<event>
11    1  0.6930157E-009  0.1558694E+03  0.7561462E-02  0.1091028E+00
         22   -1    0    0    0    0  0.00000000000E+00  0.00000000000E+00  0.77489389930E+03  0.77489389930E+03  0.00000000000E+00 0.  1.
         22   -1    0    0    0    0 -0.00000000000E+00 -0.00000000000E+00 -0.21576890739E+04  0.21576890739E+04  0.00000000000E+00 0.  1.
         24    2    1    2    0    0 -0.22110914718E+02  0.40920374254E+01 -0.15329173149E+04  0.15349905997E+04  0.76518032837E+02 0.  0.
         25    2    1    2    0    0  0.10950005724E+03 -0.35368231824E+02 -0.60700494980E+03  0.63035144681E+03  0.12508702196E+03 0.  0.
        -24    2    1    2    0    0 -0.87389142521E+02  0.31276194398E+02  0.75712709007E+03  0.76724092677E+03  0.82475127295E+02 0.  0.
        -13    1    3    3    0    0 -0.40460600039E+02  0.63850027220E+01 -0.14182768840E+04  0.14188682631E+04  0.00000000000E+00 0.  1.
         14    1    3    3    0    0  0.18349685322E+02 -0.22929652965E+01 -0.11464043093E+03  0.11612233654E+03  0.00000000000E+00 0. -1.
         13    1    5    5    0    0 -0.18924220915E+02  0.48911197009E+02  0.37194609895E+03  0.37562525455E+03  0.00000000000E+00 0. -1.
        -14    1    5    5    0    0 -0.68464921606E+02 -0.17635002611E+02  0.38518099112E+03  0.39161567222E+03  0.00000000000E+00 0.  1.
          5    1    4    4  501    0  0.73034299261E+02 -0.73494125371E+02 -0.27021520609E+03  0.28942896423E+03  0.41800000000E+01 0.  1.
         -5    1    4    4    0  501  0.36465757978E+02  0.38125893548E+02 -0.33678974371E+03  0.34092248259E+03  0.41800000000E+01 0.  1.
</event>
<event>
11    1  0.6930157E-009  0.1996002E+03  0.7561462E-02  0.1054807E+00
         22   -1    0    0    0    0  0.00000000000E+00  0.00000000000E+00  0.11195102238E+03  0.11195102238E+03  0.00000000000E+00 0.  1.
         22   -1    0    0    0    0 -0.00000000000E+00 -0.00000000000E+00 -0.76895673281E+03  0.76895673281E+03  0.00000000000E+00 0.  1.
        -24    2    1    2    0    0 -0.47050915764E+02 -0.87648472779E+01 -0.20640594436E+03  0.22649406059E+03  0.80034582480E+02 0.  0.
         25    2    1    2    0    0 -0.10194148007E+03  0.73438213016E+02 -0.43837748132E+03  0.47287224212E+03  0.12509238483E+03 0.  0.
         24    2    1    2    0    0  0.14899239583E+03 -0.64673365739E+02 -0.12222284752E+02  0.18154145248E+03  0.80165681390E+02 0.  0.
        -13    1    5    5    0    0  0.14297186358E+03 -0.80172177569E+02 -0.15311550700E+02  0.16462981327E+03  0.00000000000E+00 0.  1.
         14    1    5    5    0    0  0.60205322511E+01  0.15498811831E+02  0.30892659488E+01  0.16911639213E+02  0.00000000000E+00 0. -1.
         11    1    3    3    0    0  0.20734020054E+02 -0.14286739412E+02 -0.52107009441E+02  0.57871849318E+02  0.00000000000E+00 0. -1.
        -12    1    3    3    0    0 -0.67784935818E+02  0.55218921339E+01 -0.15429893492E+03  0.16862221127E+03  0.00000000000E+00 0.  1.
          5    1    4    4  501    0 -0.11882335216E+03  0.19334451633E+02 -0.29610594234E+03  0.31967016052E+03  0.41800000000E+01 0. -1.
         -5    1    4    4    0  501  0.16881872087E+02  0.54103761384E+02 -0.14227153898E+03  0.15320208160E+03  0.41800000000E+01 0. -1.
</event>
<event>
11    1  0.6930157E-009  0.2051653E+03  0.7561462E-02  0.1050930E+00
         22   -1    0    0    0    0  0.00000000000E+00  0.00000000000E+00  0.32425387931E+03  0.32425387931E+03  0.00000000000E+00 0. -1.
         22   -1    0    0    0    0 -0.00000000000E+00 -0.00000000000E+00 -0.44741285443E+03  0.44741285443E+03  0.00000000000E+00 0.  1.
        -24    2    1    2    0    0  0.62281689455E+02  0.15469268736E+03 -0.24855399696E+03  0.30969437250E+03  0.79515272709E+02 0.  0.
         25    2    1    2    0    0 -0.13962587678E+03 -0.99928547577E+02 -0.75538739090E+02  0.22546568056E+03  0.12509025509E+03 0.  0.
         24    2    1    2    0    0  0.77344187321E+02 -0.54764139779E+02  0.20093376094E+03  0.23650668068E+03  0.81115962694E+02 0.  0.
        -11    1    5    5    0    0  0.41144569689E+02 -0.35189249151E+02  0.32560484558E+02  0.63177084654E+02  0.00000000000E+00 0.  1.
         12    1    5    5    0    0  0.36199617632E+02 -0.19574890628E+02  0.16837327638E+03  0.17332959603E+03  0.00000000000E+00 0. -1.
         13    1    3    3    0    0  0.29752598345E+02  0.14278281537E+02 -0.17457185010E+02  0.37334163181E+02  0.00000000000E+00 0. -1.
        -14    1    3    3    0    0  0.32529091110E+02  0.14041440582E+03 -0.23109681195E+03  0.27236020932E+03  0.00000000000E+00 0.  1.
          5    1    4    4  501    0 -0.36137123648E+02 -0.77427348475E+02  0.14040544993E+02  0.86691956380E+02  0.41800000000E+01 0.  1.
         -5    1    4    4    0  501 -0.10348875313E+03 -0.22501199102E+02 -0.89579284083E+02  0.13877372418E+03  0.41800000000E+01 0.  1.
</event>
<event>
11    1  0.6930157E-009  0.1805231E+03  0.7561462E-02  0.1069220E+00
         22   -1    0    0    0    0  0.00000000000E+00  0.00000000000E+00  0.64529585086E+03  0.64529585086E+03  0.00000000000E+00 0.  1.
         22   -1    0    0    0    0 -0.00000000000E+00 -0.00000000000E+00 -0.19042459287E+03  0.19042459287E+03  0.00000000000E+00 0. -1.
        -24    2    1    2    0    0  0.11986728785E+03  0.20802315177E+02 -0.91940872983E+02  0.17308303048E+03  0.81876176634E+02 0.  0.
         25    2    1    2    0    0 -0.17574384730E+03 -0.32845608821E+02  0.18056952219E+03  0.28322445099E+03  0.12508398543E+03 0.  0.
         24    2    1    2    0    0  0.55876559449E+02  0.12043293644E+02  0.36624260878E+03  0.37941296226E+03  0.80952557872E+02 0.  0.
        -13    1    5    5    0    0  0.74820310231E+02  0.51739267108E+01  0.32459273290E+03  0.33314454909E+03  0.00000000000E+00 0.  1.
         14    1    5    5    0    0 -0.18943750783E+02  0.68693669335E+01  0.41649875885E+02  0.46268413167E+02  0.00000000000E+00 0. -1.
         13    1    3    3    0    0  0.13132944986E+03  0.12237233793E+02 -0.78732109754E+02  0.15360963316E+03  0.00000000000E+00 0. -1.
        -14    1    3    3    0    0 -0.11462162012E+02  0.85650813840E+01 -0.13208763229E+02  0.19473397319E+02  0.00000000000E+00 0.  1.
          5    1    4    4  501    0 -0.88380479460E+02  0.27040650063E+02  0.14386906641E+03  0.17104995345E+03  0.41800000000E+01 0. -1.
         -5    1    4    4    0  501 -0.87363367840E+02 -0.59886258884E+02  0.36700455784E+02  0.11217449754E+03  0.41800000000E+01 0. -1.
</event>
<event>
11    1  0.6930157E-009  0.1428986E+03  0.7561462E-02  0.1104364E+00
         22   -1    0    0    0    0  0.00000000000E+00  0.00000000000E+00  0.11237264292E+03  0.11237264292E+03  0.00000000000E+00 0. -1.
         22   -1    0    0    0    0 -0.00000000000E+00 -0.00000000000E+00 -0.80463680180E+03  0.80463680180E+03  0.00000000000E+00 0.  1.
         24    2    1    2    0    0 -0.13235858126E+02 -0.40680097576E+01 -0.65801199849E+03  0.66308357189E+03  0.80674013882E+02 0.  0.
         25    2    1    2    0    0 -0.28158111805E+02 -0.56198164792E+02 -0.34705641808E+02  0.14423521787E+03  0.12509277962E+03 0.  0.
        -24    2    1    2    0    0  0.41393969931E+02  0.60266174549E+02  0.45348141688E+00  0.10969065496E+03  0.81770175480E+02 0.  0.
        -11    1    3    3    0    0  0.14413182888E+02  0.13058579734E+02 -0.54848389741E+03  0.54882861812E+03  0.00000000000E+00 0.  1.
         12    1    3    3    0    0 -0.27649041014E+02 -0.17126589491E+02 -0.10952810108E+03  0.11425495377E+03  0.00000000000E+00 0. -1.
         11    1    5    5    0    0  0.83894934721E+01  0.63968054172E+02  0.24154671560E+02  0.68889358492E+02  0.00000000000E+00 0. -1.
        -12    1    5    5    0    0  0.33004476459E+02 -0.37018796225E+01 -0.23701190143E+02  0.40801296465E+02  0.00000000000E+00 0.  1.
          5    1    4    4  501    0 -0.67370913842E+02 -0.68835928924E+01  0.75325878301E+01  0.68267387253E+02  0.41800000000E+01 0. -1.
         -5    1    4    4    0  501  0.39212802037E+02 -0.49314571899E+02 -0.42238229638E+02  0.75967830614E+02  0.41800000000E+01 0. -1.
</event>
<event>
11    1  0.6930157E-009  0.1471171E+03  0.7561462E-02  0.1099861E+00
         22   -1    0    0    0    0  0.00000000000E+00  0.00000000000E+00  0.12079255471E+04  0.12079255471E+04  0.00000000000E+00 0.  1.
         22   -1    0    0    0    0 -0.00000000000E+00 -0.00000000000E+00 -0.93081077423E+02  0.93081077423E+02  0.00000000000E+00 0. -1.
        -24    2    1    2    0    0  0.12686240773E+02 -0.77855667147E+02 -0.33937981822E+02  0.12244472705E+03  0.87283898635E+02 0.  0.
         25    2    1    2    0    0 -0.55906415385E+01  0.64602225428E+02  0.37703468741E+03  0.40250128299E+03  0.12508966580E+03 0.  0.
         24    2    1    2    0    0 -0.70955992341E+01  0.13253441719E+02  0.77174776404E+03  0.77606061444E+03  0.80308559560E+02 0.  0.
        -11    1    5    5    0    0  0.43561900704E+01 -0.30823483825E+02  0.19001938856E+03  0.19255241254E+03  0.00000000000E+00 0.  1.
         12    1    5    5    0    0 -0.11451789304E+02  0.44076925544E+02  0.58172837548E+03  0.58350820190E+03  0.00000000000E+00 0. -1.
         13    1    3    3    0    0  0.25393070901E+02 -0.91496269793E+02 -0.15475367252E+02  0.96207392790E+02  0.00000000000E+00 0. -1.
        -14    1    3    3    0    0 -0.12706830129E+02  0.13640602646E+02 -0.18462614569E+02  0.26237334262E+02  0.00000000000E+00 0.  1.
          5    1    4    4  501    0 -0.21189304729E+02  0.18281376251E+01  0.30431955330E+03  0.30509046468E+03  0.41800000000E+01 0.  1.
         -5    1    4    4    0  501  0.15598663191E+02  0.62774087803E+02  0.72715134119E+02  0.97410818305E+02  0.41800000000E+01 0.  1.
</event>
<event>
11    1  0.6930157E-009  0.2107524E+03  0.7561462E-02  0.1047170E+00
         22   -1    0    0    0    0  0.00000000000E+00  0.00000000000E+00  0.46258705585E+03  0.46258705585E+03  0.00000000000E+00 0. -1.
         22   -1    0    0    0    0 -0.00000000000E+00 -0.00000000000E+00 -0.16912706194E+04  0.16912706194E+04  0.00000000000E+00 0.  1.
        -24    2    1    2    0    0  0.19506160796E+02 -0.46576254182E+02 -0.15858280252E+04  0.15885597428E+04  0.78241249201E+02 0.  0.
         25    2    1    2    0    0 -0.17924530926E+03 -0.51170766558E+01  0.82703682025E+02  0.23375697948E+03  0.12508941229E+03 0.  0.
         24    2    1    2    0    0  0.15973914847E+03  0.51693330838E+02  0.27444077960E+03  0.33154095302E+03  0.80080372210E+02 0.  0.
        -11    1    5    5    0    0  0.36278661758E+02  0.12402066605E+02  0.13866352229E+03  0.14386634412E+03  0.00000000000E+00 0.  1.
         12    1    5    5    0    0  0.12346048671E+03  0.39291264232E+02  0.13577725731E+03  0.18767460890E+03  0.00000000000E+00 0. -1.
         13    1    3    3    0    0  0.14307627886E+02  0.17063822282E+02 -0.19510908021E+03  0.19637575061E+03  0.00000000000E+00 0. -1.
        -14    1    3    3    0    0  0.51985329098E+01 -0.63640076463E+02 -0.13907189450E+04  0.13921839921E+04  0.00000000000E+00 0.  1.
          5    1    4    4  501    0 -0.15932975911E+03 -0.51590466923E+02  0.57594973120E+02  0.17715022367E+03  0.41800000000E+01 0.  1.
         -5    1    4    4    0  501 -0.19915550152E+02  0.46473390267E+02  0.25108708905E+02  0.56606755813E+02  0.41800000000E+01 0.  1.
</event>
<event>
11    1  0.6930157E-009  0.1285157E+03  0.7561462E-02  0.1121106E+00
         22   -1    0    0    0    0  0.00000000000E+00  0.00000000000E+00  0.30448692476E+03  0.30448692476E+03  0.00000000000E+00 0. -1.
         22   -1    0    0    0    0 -0.00000000000E+00 -0.00000000000E+00 -0.38470376636E+03  0.38470376636E+03  0.00000000000E+00 0.  1.
         24    2    1    2    0    0 -0.26949860484E+02  0.11877418610E+02 -0.31200158376E+03  0.33057824452E+03  0.10521225893E+03 0.  0.
         25    2    1    2    0    0  0.21455952123E+02 -0.26332322525E+02  0.17645204402E+02  0.13078919892E+03  0.12506283311E+03 0.  0.
        -24    2    1    2    0    0  0.54939083609E+01  0.14454903916E+02  0.21413953776E+03  0.22782324768E+03  0.76213930982E+02 0.  0.
        -11    1    3    3    0    0 -0.43784694470E+02  0.50245546934E+01 -0.30903474354E+03  0.31216152603E+03  0.00000000000E+00 0.  1.
         12    1    3    3    0    0  0.16834833986E+02  0.68528639163E+01 -0.29668402243E+01  0.18416718495E+02  0.00000000000E+00 0. -1.
         13    1    5    5    0    0  0.19058390277E+02  0.42492117000E+02  0.12427393773E+03  0.13271327682E+03  0.00000000000E+00 0. -1.
        -14    1    5    5    0    0 -0.13564481917E+02 -0.28037213085E+02  0.89865600029E+02  0.95109970854E+02  0.00000000000E+00 0.  1.
          5    1    4    4  501    0 -0.36429342891E+02 -0.69642373685E+01 -0.34178096889E+02  0.50608421558E+02  0.41800000000E+01 0. -1.
         -5    1    4    4    0  501  0.57885295014E+02 -0.19368085157E+02  0.51823301291E+02  0.80180777361E+02  0.41800000000E+01 0. -1.
</event>
<event>
11    1  0.6930157E-009  0.1322315E+03  0.7561462E-02  0.1116557E+00
         22   -1    0    0    0    0  0.00000000000E+00  0.00000000000E+00  0.14610913571E+03  0.14610913571E+03  0.00000000000E+00 0.  1.
         22   -1    0    0    0    0 -0.00000000000E+00 -0.00000000000E+00 -0.90163541947E+03  0.90163541947E+03  0.00000000000E+00 0. -1.
         24    2    1    2    0    0  0.75672250475E+01  0.37770425994E+02 -0.52857403191E+03  0.53590579260E+03  0.79502473900E+02 0.  0.
         25    2    1    2    0    0 -0.29587540105E+02 -0.53389421941E+02 -0.34207693108E+03  0.36931021916E+03  0.12509020062E+03 0.  0.
        -24    2    1    2    0    0  0.22020315057E+02  0.15618995948E+02  0.11512467924E+03  0.14252854343E+03  0.79572901236E+02 0.  0.
        -13    1    3    3    0    0  0.12741870127E+02  0.34827721741E+02 -0.90667105317E+02  0.97958406697E+02  0.00000000000E+00 0.  1.
         14    1    3    3    0    0 -0.51746450791E+01  0.29427042528E+01 -0.43790692659E+03  0.43794738590E+03  0.00000000000E+00 0. -1.
         11    1    5    5    0    0  0.20100383325E+02  0.10572976760E+02 -0.41874471182E+01  0.23094327458E+02  0.00000000000E+00 0. -1.
        -12    1    5    5    0    0  0.19199317321E+01  0.50460191877E+01  0.11931212636E+03  0.11943421597E+03  0.00000000000E+00 0.  1.
          5    1    4    4  501    0 -0.50314683584E+02 -0.27611062317E+02 -0.32818363003E+03  0.33319049441E+03  0.41800000000E+01 0. -1.
         -5    1    4    4    0  501  0.20727143480E+02 -0.25778359624E+02 -0.13893301054E+02  0.36119724749E+02  0.41800000000E+01 0. -1.
</event>
<event>
11    1  0.6930157E-009  0.1913785E+03  0.7561462E-02  0.1060793E+00
         22   -1    0    0    0    0  0.00000000000E+00  0.00000000000E+00  0.67733479504E+03  0.67733479504E+03  0.00000000000E+00 0.  1.
         22   -1    0    0    0    0 -0.00000000000E+00 -0.00000000000E+00 -0.58794496658E+03  0.58794496658E+03  0.00000000000E+00 0. -1.
         24    2    1    2    0    0  0.10430220017E+03 -0.10333879945E+03 -0.43901861436E+03  0.46966756103E+03  0.79324760924E+02 0.  0.
         25    2    1    2    0    0 -0.10795245026E+03  0.84454109285E+02 -0.64863157460E+02  0.19657364680E+03  0.12509093223E+03 0.  0.
        -24    2    1    2    0    0  0.36502500876E+01  0.18884690167E+02  0.59327160027E+03  0.59903855379E+03  0.80660035894E+02 0.  0.
        -11    1    3    3    0    0 -0.11762013607E+02 -0.33260354159E+01 -0.52203488186E+02  0.53615405011E+02  0.00000000000E+00 0.  1.
         12    1    3    3    0    0  0.11606421378E+03 -0.10001276404E+03 -0.38681512617E+03  0.41605215602E+03  0.00000000000E+00 0. -1.
         13    1    5    5    0    0  0.18459813597E+02  0.86910809862E+01  0.35262885519E+02  0.40740283527E+02  0.00000000000E+00 0. -1.
        -14    1    5    5    0    0 -0.14809563509E+02  0.10193609181E+02  0.55800871475E+03  0.55829827027E+03  0.00000000000E+00 0.  1.
          5    1    4    4  501    0  0.43897750275E+01  0.46768737676E+01 -0.58052724670E+02  0.58555396973E+02  0.41800000000E+01 0. -1.
         -5    1    4    4    0  501 -0.11234222529E+03  0.79777235517E+02 -0.68104327895E+01  0.13801824982E+03  0.41800000000E+01 0. -1.
</event>
<event>
11    1  0.6930157E-009  0.1406781E+03  0.7561462E-02  0.1106804E+00
         22   -1    0    0    0    0  0.00000000000E+00  0.00000000000E+00  0.17257288281E+04  0.17257288281E+04  0.00000000000E+00 0. -1.
         22   -1    0    0    0    0 -0.00000000000E+00 -0.00000000000E+00 -0.91480713653E+02  0.91480713653E+02  0.00000000000E+00 0. -1.
         24    2    1    2    0    0 -0.14493828081E+02  0.39210772887E+02 -0.40482338021E+02  0.98295099336E+02  0.79218376019E+02 0.  0.
         25    2    1    2    0    0  0.68286106754E+02 -0.25696623363E+01  0.22976458420E+03  0.27038866750E+03  0.12509465144E+03 0.  0.
        -24    2    1    2    0    0 -0.53792278673E+02 -0.36641110550E+02  0.14449658682E+04  0.14485257749E+04  0.77874128702E+02 0.  0.
        -13    1    3    3    0    0 -0.12371462484E+02 -0.54831866856E+01  0.19331642611E+02  0.23597263110E+02  0.00000000000E+00 0.  1.
         14    1    3    3    0    0 -0.21223655966E+01  0.44693959572E+02 -0.59813980632E+02  0.74697836227E+02  0.00000000000E+00 0. -1.
         13    1    5    5    0    0 -0.44729813071E+02 -0.68407311009E+01  0.32588645440E+03  0.32901296773E+03  0.00000000000E+00 0. -1.
        -14    1    5    5    0    0 -0.90624656022E+01 -0.29800379449E+02  0.11190794139E+04  0.11195128072E+04  0.00000000000E+00 0.  1.
          5    1    4    4  501    0  0.15261261906E+02  0.57506328990E+02  0.72870206964E+02  0.94166997679E+02  0.41800000000E+01 0.  1.
         -5    1    4    4    0  501  0.53024844848E+02 -0.60075991327E+02  0.15689437723E+03  0.17622166982E+03  0.41800000000E+01 0.  1.
</event>
<event>
11    1  0.6930157E-009  0.1540236E+03  0.7561462E-02  0.1092837E+00
         22   -1    0    0    0    0  0.00000000000E+00  0.00000000000E+00  0.62222790755E+03  0.62222790755E+03  0.00000000000E+00 0. -1.
         22   -1    0    0    0    0 -0.00000000000E+00 -0.00000000000E+00 -0.17180948162E+03  0.17180948162E+03  0.00000000000E+00 0. -1.
         24    2    1    2    0    0  0.60215220110E+02 -0.47645854389E+02  0.10229495152E+01  0.11081893806E+03  0.79898625982E+02 0.  0.
         25    2    1    2    0    0  0.18510371244E+02  0.94188209169E+02 -0.53063395064E+02  0.16636533310E+03  0.12509055749E+03 0.  0.
        -24    2    1    2    0    0 -0.78725591354E+02 -0.46542354780E+02  0.50245887148E+03  0.51685311801E+03  0.79424923985E+02 0.  0.
        -13    1    3    3    0    0  0.64876508253E+01 -0.10268458626E+02  0.35019467847E+02  0.37066075920E+02  0.00000000000E+00 0.  1.
         14    1    3    3    0    0  0.53727569285E+02 -0.37377395762E+02 -0.33996518332E+02  0.73752862141E+02  0.00000000000E+00 0. -1.
         13    1    5    5    0    0 -0.88824055116E+02 -0.55123099383E+02  0.47495242640E+03  0.48632096006E+03  0.00000000000E+00 0. -1.
        -14    1    5    5    0    0  0.10098463762E+02  0.85807446030E+01  0.27506445080E+02  0.30532157952E+02  0.00000000000E+00 0.  1.
          5    1    4    4  501    0 -0.96604181560E+01  0.11903638139E+03 -0.45180617749E+02  0.12775658258E+03  0.41800000000E+01 0.  1.
         -5    1    4    4    0  501  0.28170789400E+02 -0.24848172222E+02 -0.78827773148E+01  0.38608750516E+02  0.41800000000E+01 0.  1.
</event>
<event>
11    1  0.6930157E-009  0.1768438E+03  0.7561462E-02  0.1072225E+00
         22   -1    0    0    0    0  0.00000000000E+00  0.00000000000E+00  0.94646953766E+03  0.94646953766E+03  0.00000000000E+00 0.  1.
         22   -1    0    0    0    0 -0.00000000000E+00 -0.00000000000E+00 -0.15953499397E+04  0.15953499397E+04  0.00000000000E+00 0.  1.
         24    2    1    2    0    0 -0.39056609951E+02  0.44980392104E+02 -0.15563835432E+04  0.15594418584E+04  0.77333832493E+02 0.  0.
         25    2    1    2    0    0  0.14249756461E+03 -0.89746943089E+02  0.35089765242E+03  0.40882315758E+03  0.12508853660E+03 0.  0.
        -24    2    1    2    0    0 -0.10344095465E+03  0.44766550985E+02  0.55660548872E+03  0.57355446143E+03  0.80317961640E+02 0.  0.
        -13    1    3    3    0    0 -0.39352290534E+02  0.49123302494E+02 -0.15524369772E+04  0.15537124154E+04  0.00000000000E+00 0.  1.
         14    1    3    3    0    0  0.29568058303E+00 -0.41429103898E+01 -0.39465660048E+01  0.57294429690E+01  0.00000000000E+00 0. -1.
         11    1    5    5    0    0 -0.21125836107E+02 -0.30923754564E+01  0.22461171121E+02  0.30989803893E+02  0.00000000000E+00 0. -1.
        -12    1    5    5    0    0 -0.82315118547E+02  0.47858926441E+02  0.53414431760E+03  0.54256465754E+03  0.00000000000E+00 0.  1.
          5    1    4    4  501    0  0.89093348202E+01  0.22515004038E+02  0.11407258924E+02  0.27090581572E+02  0.41800000000E+01 0. -1.
         -5    1    4    4    0  501  0.13358822978E+03 -0.11226194713E+03  0.33949039350E+03  0.38173257601E+03  0.41800000000E+01 0. -1.
</event>
<event>
11    1  0.6930157E-009  0.1742907E+03  0.7561462E-02  0.1074357E+00
         22   -1    0    0    0    0  0.00000000000E+00  0.00000000000E+00  0.79877042134E+03  0.79877042134E+03  0.00000000000E+00 0. -1.
         22   -1    0    0    0    0 -0.00000000000E+00 -0.00000000000E+00 -0.93125289629E+03  0.93125289629E+03  0.00000000000E+00 0. -1.
        -24    2    1    2    0    0  0.11877080650E+03 -0.22773678428E+02 -0.89667823279E+03  0.90833657165E+03  0.80114476384E+02 0.  0.
         25    2    1    2    0    0 -0.14624370195E+03  0.51666264201E+02  0.40853454104E+03  0.45453757687E+03  0.12508922557E+03 0.  0.
         24    2    1    2    0    0  0.27472895443E+02 -0.28892585773E+02  0.35566121681E+03  0.36714916911E+03  0.81939427239E+02 0.  0.
        -13    1    5    5    0    0  0.39830003937E+02  0.25603790298E+01  0.79787507697E+02  0.89213402238E+02  0.00000000000E+00 0.  1.
         14    1    5    5    0    0 -0.12357108493E+02 -0.31452964802E+02  0.27587370911E+03  0.27793576687E+03  0.00000000000E+00 0. -1.
         11    1    3    3    0    0  0.69064481559E+02 -0.51601083605E+02 -0.47485856667E+03  0.48262121046E+03  0.00000000000E+00 0. -1.
        -12    1    3    3    0    0  0.49706324945E+02  0.28827405177E+02 -0.42181966612E+03  0.42571536119E+03  0.00000000000E+00 0.  1.
          5    1    4    4  501    0  0.19902627812E+02  0.11357517427E+02  0.90368472143E+02  0.93322242544E+02  0.41800000000E+01 0. -1.
         -5    1    4    4    0  501 -0.16614632976E+03  0.40308746774E+02  0.31816606890E+03  0.36121533433E+03  0.41800000000E+01 0. -1.
</event>
<event>
11    1  0.1164818E-008  0.1711773E+03  0.7561462E-02  0.1077012E+00
         22   -1    0    0    0    0  0.00000000000E+00  0.00000000000E+00  0.31521896953E+03  0.31521896953E+03  0.00000000000E+00 0.  1.
         22   -1    0    0    0    0 -0.00000000000E+00 -0.00000000000E+00 -0.12920517383E+04  0.12920517383E+04  0.00000000000E+00 0. -1.
        -24    2    1    2    0    0 -0.93468332368E+02 -0.36559419238E+02 -0.10324978524E+04  0.10405205920E+04  0.80983744723E+02 0.  0.
         25    2    1    2    0    0 -0.32091587552E+01  0.10858591197E+03 -0.20792623356E+03  0.26586219645E+03  0.12509272529E+03 0.  0.
         24    2    1    2    0    0  0.96677491123E+02 -0.72026492728E+02  0.26359131713E+03  0.30088791942E+03  0.80739114705E+02 0.  0.
        -11    1    5    5    0    0  0.90956486392E+02 -0.78484241787E+02  0.26605009980E+03  0.29191696461E+03  0.00000000000E+00 0.  1.
         12    1    5    5    0    0  0.57210047318E+01  0.64577490586E+01 -0.24587826664E+01  0.89709548124E+01  0.00000000000E+00 0. -1.
         13    1    3    3    0    0 -0.65251200477E+02 -0.62630957669E+02 -0.74302532533E+03  0.74850984637E+03  0.00000000000E+00 0. -1.
        -14    1    3    3    0    0 -0.28217131892E+02  0.26071538430E+02 -0.28947252705E+03  0.29201074564E+03  0.00000000000E+00 0.  1.
          5    1    4    4  501    0  0.28058098250E+02  0.86767998973E+02 -0.51521380150E+02  0.10482302961E+03  0.41800000000E+01 0.  1.
         -5    1    4    4    0  501 -0.31267257005E+02  0.21817912994E+02 -0.15640485341E+03  0.16103916684E+03  0.41800000000E+01 0.  1.
</event>
<event>
11    1  0.6930157E-009  0.1679840E+03  0.7561462E-02  0.1079799E+00
         22   -1    0    0    0    0  0.00000000000E+00  0.00000000000E+00  0.19481248478E+03  0.19481248478E+03  0.00000000000E+00 0.  1.
         22   -1    0    0    0    0 -0.00000000000E+00 -0.00000000000E+00 -0.75014867198E+03  0.75014867198E+03  0.00000000000E+00 0.  1.
        -24    2    1    2    0    0 -0.25117848564E+02 -0.31374132736E+02 -0.59029065292E+03  0.59684338016E+03  0.78509381555E+02 0.  0.
         25    2    1    2    0    0 -0.88186068798E+02 -0.79773061325E+01 -0.71149351987E+02  0.16896940126E+03  0.12509199867E+03 0.  0.
         24    2    1    2    0    0  0.11330391736E+03  0.39351438868E+02  0.10610381771E+03  0.17914837534E+03  0.80310689340E+02 0.  0.
        -13    1    5    5    0    0  0.94982865314E+02  0.25730555579E+02  0.11780186525E+03  0.15349620728E+03  0.00000000000E+00 0.  1.
         14    1    5    5    0    0  0.18321052048E+02  0.13620883289E+02 -0.11698047538E+02  0.25652168055E+02  0.00000000000E+00 0. -1.
         13    1    3    3    0    0  0.26878630383E+02 -0.22495642058E+02 -0.20840144644E+03  0.21132836431E+03  0.00000000000E+00 0. -1.
        -14    1    3    3    0    0 -0.51996478947E+02 -0.88784906777E+01 -0.38188920648E+03  0.38551501585E+03  0.00000000000E+00 0.  1.
          5    1    4    4  501    0 -0.77209938524E+01 -0.56663494847E+02 -0.39591697017E+02  0.69680271720E+02  0.41800000000E+01 0. -1.
         -5    1    4    4    0  501 -0.80465074945E+02  0.48686188714E+02 -0.31557654970E+02  0.99289129540E+02  0.41800000000E+01 0. -1.
</event>
<event>
11    1  0.6930157E-009  0.1324706E+03  0.7561462E-02  0.1116270E+00
         22   -1    0    0    0    0  0.00000000000E+00  0.00000000000E+00  0.39154413701E+03  0.39154413701E+03  0.00000000000E+00 0.  1.
         22   -1    0    0    0    0 -0.00000000000E+00 -0.00000000000E+00 -0.28956127146E+03  0.28956127146E+03  0.00000000000E+00 0.  1.
        -24    2    1    2    0    0  0.18280913492E+02  0.35620211583E+01 -0.17116493884E+03  0.18949917942E+03  0.79155687856E+02 0.  0.
         25    2    1    2    0    0 -0.53651851664E+02  0.20675691511E+02 -0.57032820515E+02  0.14900949701E+03  0.12508030291E+03 0.  0.
         24    2    1    2    0    0  0.35370938172E+02 -0.24237712669E+02  0.33018062490E+03  0.34259673204E+03  0.80713727226E+02 0.  0.
        -11    1    5    5    0    0  0.50040431929E+02  0.99700260368E+01  0.23324953419E+03  0.23876513868E+03  0.00000000000E+00 0.  1.
         12    1    5    5    0    0 -0.14669493757E+02 -0.34207738706E+02  0.96931090714E+02  0.10383159337E+03  0.00000000000E+00 0. -1.
         13    1    3    3    0    0  0.10502570642E+01  0.37814858054E+02 -0.51908832219E+02  0.64230782277E+02  0.00000000000E+00 0. -1.
        -14    1    3    3    0    0  0.17230656428E+02 -0.34252836896E+02 -0.11925610662E+03  0.12526839714E+03  0.00000000000E+00 0.  1.
          5    1    4    4  501    0  0.47599695481E+01  0.51958464983E+02 -0.63511242373E+02  0.82301213242E+02  0.41800000000E+01 0.  1.
         -5    1    4    4    0  501 -0.58411821212E+02 -0.31282773471E+02  0.64784218581E+01  0.66708283767E+02  0.41800000000E+01 0.  1.
</event>
<event>
11    1  0.6930157E-009  0.1318728E+03  0.7561462E-02  0.1116989E+00
         22   -1    0    0    0    0  0.00000000000E+00  0.00000000000E+00  0.15470820039E+03  0.15470820039E+03  0.00000000000E+00 0. -1.
         22   -1    0    0    0    0 -0.00000000000E+00 -0.00000000000E+00 -0.10002469534E+04  0.10002469534E+04  0.00000000000E+00 0. -1.
         24    2    1    2    0    0 -0.40932717366E+02 -0.78076850556E+01 -0.91115098929E+03  0.91557106662E+03  0.79610335045E+02 0.  0.
         25    2    1    2    0    0  0.42549801226E+02  0.11549737437E+02 -0.38739492624E+01  0.13268963885E+03  0.12509057021E+03 0.  0.
        -24    2    1    2    0    0 -0.16170838599E+01 -0.37420523810E+01  0.69486185510E+02  0.10669444836E+03  0.80862583548E+02 0.  0.
        -13    1    3    3    0    0  0.20158917381E+02 -0.62553273119E+01 -0.10460712931E+03  0.10671533428E+03  0.00000000000E+00 0.  1.
         14    1    3    3    0    0 -0.61091634747E+02 -0.15523577437E+01 -0.80654385998E+03  0.80885573233E+03  0.00000000000E+00 0. -1.
         11    1    5    5    0    0  0.31380011227E+01 -0.20000752178E+02  0.82743122329E+02  0.85183927073E+02  0.00000000000E+00 0. -1.
        -12    1    5    5    0    0 -0.47550849825E+01  0.16258699797E+02 -0.13256936819E+02  0.21510521288E+02  0.00000000000E+00 0.  1.
          5    1    4    4  501    0  0.25310909507E+02  0.67607509152E+02  0.78465170498E+01  0.72735532332E+02  0.41800000000E+01 0.  1.
         -5    1    4    4    0  501  0.17238891719E+02 -0.56057771715E+02 -0.11720466312E+02  0.59954106515E+02  0.41800000000E+01 0.  1.
</event>
<event>
11    1  0.6930157E-009  0.4034390E+03  0.7561462E-02  0.9639665E-01
         22   -1    0    0    0    0  0.00000000000E+00  0.00000000000E+00  0.13637258420E+04  0.13637258420E+04  0.00000000000E+00 0.  1.
         22   -1    0    0    0    0 -0.00000000000E+00 -0.00000000000E+00 -0.73232887109E+03  0.73232887109E+03  0.00000000000E+00 0.  1.
         24    2    1    2    0    0  0.26125812083E+03 -0.78948383777E+02 -0.56498612737E+03  0.63282534929E+03  0.82279679017E+02 0.  0.
         25    2    1    2    0    0  0.22559236161E+03 -0.70248016062E+02  0.17617158247E+03  0.32017319407E+03  0.12509096831E+03 0.  0.
        -24    2    1    2    0    0 -0.48685048244E+03  0.14919639984E+03  0.10202115158E+04  0.11430561697E+04  0.80392239664E+02 0.  0.
        -11    1    3    3    0    0  0.18880841156E+03 -0.93093809628E+02 -0.39775419965E+03  0.45002608481E+03  0.00000000000E+00 0.  1.
         12    1    3    3    0    0  0.72449709269E+02  0.14145425851E+02 -0.16723192772E+03  0.18279926448E+03  0.00000000000E+00 0. -1.
         13    1    5    5    0    0 -0.29249039442E+03  0.48801406755E+02  0.57075922557E+03  0.64319382903E+03  0.00000000000E+00 0. -1.
        -14    1    5    5    0    0 -0.19436008802E+03  0.10039499308E+03  0.44945229026E+03  0.49986234072E+03  0.00000000000E+00 0.  1.
          5    1    4    4  501    0  0.17441662406E+02 -0.58992920625E+01 -0.19616175707E+02  0.27226457421E+02  0.41800000000E+01 0. -1.
         -5    1    4    4    0  501  0.20815069921E+03 -0.64348723999E+02  0.19578775818E+03  0.29294673665E+03  0.41800000000E+01 0. -1.
</event>
<event>
11    1  0.6930157E-009  0.1455495E+03  0.7561462E-02  0.1101515E+00
         22   -1    0    0    0    0  0.00000000000E+00  0.00000000000E+00  0.35539020753E+03  0.35539020753E+03  0.00000000000E+00 0. -1.
         22   -1    0    0    0    0 -0.00000000000E+00 -0.00000000000E+00 -0.53680198216E+03  0.53680198216E+03  0.00000000000E+00 0.  1.
        -24    2    1    2    0    0 -0.46874180320E+02 -0.58502240377E+02 -0.48590010148E+03  0.49900556704E+03  0.85369470012E+02 0.  0.
         25    2    1    2    0    0  0.66445434814E+01  0.72725746902E+02  0.12166955057E+03  0.18916633193E+03  0.12508891789E+03 0.  0.
         24    2    1    2    0    0  0.40229636839E+02 -0.14223506525E+02  0.18281877628E+03  0.20402029072E+03  0.79880174311E+02 0.  0.
        -13    1    5    5    0    0 -0.89818144477E+01  0.23102764583E+02  0.83137940983E+02  0.86754411721E+02  0.00000000000E+00 0.  1.
         14    1    5    5    0    0  0.49211451287E+02 -0.37326271108E+02  0.99680835299E+02  0.11726587900E+03  0.00000000000E+00 0. -1.
         11    1    3    3    0    0  0.14693560576E+02 -0.38264629020E+02 -0.10660341689E+03  0.11421195668E+03  0.00000000000E+00 0. -1.
        -12    1    3    3    0    0 -0.61567740896E+02 -0.20237611356E+02 -0.37929668459E+03  0.38479361036E+03  0.00000000000E+00 0.  1.
          5    1    4    4  501    0 -0.23807315566E+02  0.47756727780E+02  0.13670261933E+03  0.14680794207E+03  0.41800000000E+01 0. -1.
         -5    1    4    4    0  501  0.30451859047E+02  0.24969019122E+02 -0.15033068757E+02  0.42358389861E+02  0.41800000000E+01 0. -1.
</event>
<event>
11    1  0.6930157E-009  0.1290248E+03  0.7561462E-02  0.1120473E+00
         22   -1    0    0    0    0  0.00000000000E+00  0.00000000000E+00  0.15847252080E+03  0.15847252080E+03  0.00000000000E+00 0.  1.
         22   -1    0    0    0    0 -0.00000000000E+00 -0.00000000000E+00 -0.11207670369E+04  0.11207670369E+04  0.00000000000E+00 0.  1.
        -24    2    1    2    0    0  0.29297094093E+02 -0.11555305238E+02 -0.77160766693E+03  0.77649173199E+03  0.81050437288E+02 0.  0.
         25    2    1    2    0    0 -0.39532696210E+02 -0.19374845511E+02 -0.32046174591E+03  0.34681628796E+03  0.12509032055E+03 0.  0.
         24    2    1    2    0    0  0.10235602117E+02  0.30930150749E+02  0.12977489671E+03  0.15593153778E+03  0.80072959750E+02 0.  0.
        -13    1    5    5    0    0 -0.14308530857E+02  0.45126194721E+02  0.11410518615E+03  0.12353582885E+03  0.00000000000E+00 0.  1.
         14    1    5    5    0    0  0.24544132973E+02 -0.14196043973E+02  0.15669710567E+02  0.32395708931E+02  0.00000000000E+00 0. -1.
         11    1    3    3    0    0  0.16378644086E+02 -0.42857183289E+01 -0.27890055213E+02  0.32626408682E+02  0.00000000000E+00 0. -1.
        -12    1    3    3    0    0  0.12918450007E+02 -0.72695869089E+01 -0.74371761172E+03  0.74386532331E+03  0.00000000000E+00 0.  1.
          5    1    4    4  501    0 -0.58166301755E+02  0.22315749118E+02 -0.77299544150E+02  0.99368019223E+02  0.41800000000E+01 0. -1.
         -5    1    4    4    0  501  0.18633605545E+02 -0.41690594629E+02 -0.24316220176E+03  0.24744826873E+03  0.41800000000E+01 0. -1.
</event>
<event>
11    1  0.6930157E-009  0.1752624E+03  0.7561462E-02  0.1073541E+00
         22   -1    0    0    0    0  0.00000000000E+00  0.00000000000E+00  0.46571997548E+03  0.46571997548E+03  0.00000000000E+00 0.  1.
         22   -1    0    0    0    0 -0.00000000000E+00 -0.00000000000E+00 -0.15347954133E+04  0.15347954133E+04  0.00000000000E+00 0. -1.
         24    2    1    2    0    0 -0.57669823522E+02 -0.10787024878E+03 -0.13975979751E+04  0.14052183457E+04  0.79979371959E+02 0.  0.
         25    2    1    2    0    0  0.96346561940E+02  0.95937450357E+02 -0.62191166054E+02  0.19494166946E+03  0.12509140250E+03 0.  0.
        -24    2    1    2    0    0 -0.38676738417E+02  0.11932798421E+02  0.39071370328E+03  0.40035537368E+03  0.77388277741E+02 0.  0.
        -11    1    3    3    0    0  0.19138676420E+02 -0.11618199490E+02 -0.17245829186E+03  0.17390553161E+03  0.00000000000E+00 0.  1.
         12    1    3    3    0    0 -0.76808499943E+02 -0.96252049288E+02 -0.12251396832E+04  0.12313128141E+04  0.00000000000E+00 0. -1.
         11    1    5    5    0    0 -0.29929878115E+02 -0.14437477064E+02  0.60921939243E+02  0.69395396310E+02  0.00000000000E+00 0. -1.
        -12    1    5    5    0    0 -0.87468603019E+01  0.26370275485E+02  0.32979176404E+03  0.33095997737E+03  0.00000000000E+00 0.  1.
          5    1    4    4  501    0  0.81264814076E+02  0.32265752651E+02 -0.88329435174E+02  0.12435678638E+03  0.41800000000E+01 0.  1.
         -5    1    4    4    0  501  0.15081747863E+02  0.63671697706E+02  0.26138269119E+02  0.70584883084E+02  0.41800000000E+01 0.  1.
</event>
<event>
11    1  0.6930157E-009  0.1388629E+03  0.7561462E-02  0.1108835E+00
         22   -1    0    0    0    0  0.00000000000E+00  0.00000000000E+00  0.26495416703E+03  0.26495416703E+03  0.00000000000E+00 0. -1.
         22   -1    0    0    0    0 -0.00000000000E+00 -0.00000000000E+00 -0.25051649825E+04  0.25051649825E+04  0.00000000000E+00 0. -1.
         24    2    1    2    0    0  0.36610815904E+01  0.64273029307E+02 -0.19310375601E+04  0.19338446658E+04  0.81882276819E+02 0.  0.
         25    2    1    2    0    0 -0.23192627180E+02 -0.35961942416E+02 -0.55757725092E+03  0.57303697866E+03  0.12509128232E+03 0.  0.
        -24    2    1    2    0    0  0.19531545589E+02 -0.28311086892E+02  0.24840399547E+03  0.26323750511E+03  0.80040241245E+02 0.  0.
        -13    1    3    3    0    0 -0.38688289946E+02  0.23901059842E+02 -0.78949305328E+03  0.79080169804E+03  0.00000000000E+00 0.  1.
         14    1    3    3    0    0  0.42349371536E+02  0.40371969466E+02 -0.11415445068E+04  0.11430429678E+04  0.00000000000E+00 0. -1.
         13    1    5    5    0    0  0.19289275873E+02  0.11354778075E+02  0.19720108365E+03  0.19846731354E+03  0.00000000000E+00 0. -1.
        -14    1    5    5    0    0  0.24226971601E+00 -0.39665864967E+02  0.51202911816E+02  0.64770191575E+02  0.00000000000E+00 0.  1.
          5    1    4    4  501    0  0.39888871530E+01 -0.75454842110E+02 -0.23485401608E+03  0.24674526477E+03  0.41800000000E+01 0.  1.
         -5    1    4    4    0  501 -0.27181514333E+02  0.39492899694E+02 -0.32272323484E+03  0.32629171389E+03  0.41800000000E+01 0.  1.
</event>
<event>
11    1  0.6930157E-009  0.1316719E+03  0.7561462E-02  0.1117232E+00
         22   -1    0    0    0    0  0.00000000000E+00  0.00000000000E+00  0.10860640717E+03  0.10860640717E+03  0.00000000000E+00 0.  1.
         22   -1    0    0    0    0 -0.00000000000E+00 -0.00000000000E+00 -0.96364548345E+03  0.96364548345E+03  0.00000000000E+00 0.  1.
         24    2    1    2    0    0  0.37721926678E+02  0.19594040726E+02 -0.56399019022E+03  0.57047595726E+03  0.74505120368E+02 0.  0.
         25    2    1    2    0    0 -0.30880696203E+02 -0.19127982404E+02 -0.36714278814E+03  0.38956575996E+03  0.12509259509E+03 0.  0.
        -24    2    1    2    0    0 -0.68412304752E+01 -0.46605832222E+00  0.76093902081E+02  0.11221017340E+03  0.82181636856E+02 0.  0.
        -11    1    3    3    0    0  0.10222573678E+02 -0.77453209903E+01 -0.44784440969E+03  0.44802801955E+03  0.00000000000E+00 0.  1.
         12    1    3    3    0    0  0.27499353000E+02  0.27339361716E+02 -0.11614578053E+03  0.12244793771E+03  0.00000000000E+00 0. -1.
         11    1    5    5    0    0 -0.18244437358E+02  0.59434537067E+01 -0.12340291366E+02  0.22813744267E+02  0.00000000000E+00 0. -1.
        -12    1    5    5    0    0  0.11403206883E+02 -0.64095120290E+01  0.88434193447E+02  0.89396429136E+02  0.00000000000E+00 0.  1.
          5    1    4    4  501    0 -0.65526860643E+02  0.13796425860E+02 -0.11707864452E+03  0.13494069896E+03  0.41800000000E+01 0. -1.
         -5    1    4    4    0  501  0.34646164439E+02 -0.32924408264E+02 -0.25006414362E+03  0.25462506101E+03  0.41800000000E+01 0. -1.
</event>
<event>
11    1  0.6930157E-009  0.1485148E+03  0.7561462E-02  0.1098406E+00
         22   -1    0    0    0    0  0.00000000000E+00  0.00000000000E+00  0.11488554774E+04  0.11488554774E+04  0.00000000000E+00 0. -1.
         22   -1    0    0    0    0 -0.00000000000E+00 -0.00000000000E+00 -0.11047585251E+03  0.11047585251E+03  0.00000000000E+00 0. -1.
         24    2    1    2    0    0 -0.80018425409E+02  0.32230877190E+02 -0.61294018324E+02  0.13094663410E+03  0.77125135010E+02 0.  0.
         25    2    1    2    0    0  0.11524448292E+02  0.39702241229E+00  0.37955905476E+03  0.39980743629E+03  0.12509172444E+03 0.  0.
        -24    2    1    2    0    0  0.68493977117E+02 -0.32627899602E+02  0.72011458843E+03  0.72857725950E+03  0.80646127311E+02 0.  0.
        -11    1    3    3    0    0  0.28437688974E+00  0.34085974527E+02 -0.95539210618E+01  0.35400733570E+02  0.00000000000E+00 0.  1.
         12    1    3    3    0    0 -0.80302802298E+02 -0.18550973374E+01 -0.51740097262E+02  0.95545900528E+02  0.00000000000E+00 0. -1.
         13    1    5    5    0    0  0.19140730084E+02 -0.37327704808E+01  0.52223799556E+03  0.52260197582E+03  0.00000000000E+00 0. -1.
        -14    1    5    5    0    0  0.49353247033E+02 -0.28895129121E+02  0.19787659287E+03  0.20597528368E+03  0.00000000000E+00 0.  1.
          5    1    4    4  501    0 -0.33259751792E+01  0.61324527069E+02  0.21557817743E+03  0.22419451981E+03  0.41800000000E+01 0.  1.
         -5    1    4    4    0  501  0.14850423471E+02 -0.60927504657E+02  0.16398087734E+03  0.17561291648E+03  0.41800000000E+01 0.  1.
</event>
<event>
11    1  0.6930157E-009  0.1426587E+03  0.7561462E-02  0.1104625E+00
         22   -1    0    0    0    0  0.00000000000E+00  0.00000000000E+00  0.39403960361E+03  0.39403960361E+03  0.00000000000E+00 0. -1.
         22   -1    0    0    0    0 -0.00000000000E+00 -0.00000000000E+00 -0.70414755892E+03  0.70414755892E+03  0.00000000000E+00 0. -1.
         24    2    1    2    0    0  0.17506613200E+02 -0.59889466741E+02 -0.56642209935E+03  0.57555280807E+03  0.80831989399E+02 0.  0.
         25    2    1    2    0    0 -0.13813247465E+02 -0.14290306180E+02 -0.87409042596E+02  0.15389297279E+03  0.12509071784E+03 0.  0.
        -24    2    1    2    0    0 -0.36933657358E+01  0.74179772921E+02  0.34372318664E+03  0.36874138167E+03  0.11094276843E+03 0.  0.
        -13    1    3    3    0    0  0.48456488291E+02 -0.29738737138E+02 -0.37715987975E+03  0.38142102542E+03  0.00000000000E+00 0.  1.
         14    1    3    3    0    0 -0.30949875090E+02 -0.30150729603E+02 -0.18926221961E+03  0.19413178265E+03  0.00000000000E+00 0. -1.
         11    1    5    5    0    0  0.70560849119E+01  0.96738335222E+02  0.31965399072E+03  0.33404605613E+03  0.00000000000E+00 0. -1.
        -12    1    5    5    0    0 -0.10749450648E+02 -0.22558562301E+02  0.24069195920E+02  0.34695325544E+02  0.00000000000E+00 0.  1.
          5    1    4    4  501    0  0.27723862424E+02  0.31153068873E+01  0.21823877378E+02  0.35666114289E+02  0.41800000000E+01 0. -1.
         -5    1    4    4    0  501 -0.41537109888E+02 -0.17405613067E+02 -0.10923291997E+03  0.11822685850E+03  0.41800000000E+01 0. -1.
</event>
<event>
11    1  0.6930157E-009  0.1332460E+03  0.7561462E-02  0.1115344E+00
         22   -1    0    0    0    0  0.00000000000E+00  0.00000000000E+00  0.24937926777E+03  0.24937926777E+03  0.00000000000E+00 0. -1.
         22   -1    0    0    0    0 -0.00000000000E+00 -0.00000000000E+00 -0.70642153466E+03  0.70642153466E+03  0.00000000000E+00 0. -1.
         24    2    1    2    0    0  0.43861390596E+02 -0.10142663983E+02 -0.58579397835E+03  0.59260398818E+03  0.77448089179E+02 0.  0.
         25    2    1    2    0    0 -0.33640527216E+02  0.54641360016E+02 -0.60007783936E+02  0.15287409621E+03  0.12510872017E+03 0.  0.
        -24    2    1    2    0    0 -0.10220863380E+02 -0.44498696033E+02  0.18875949540E+03  0.21032271804E+03  0.80752081241E+02 0.  0.
        -13    1    3    3    0    0  0.21407014738E+02  0.13695725667E+02 -0.52724610725E+02  0.58529631449E+02  0.00000000000E+00 0.  1.
         14    1    3    3    0    0  0.22454375858E+02 -0.23838389649E+02 -0.53306936762E+03  0.53407435673E+03  0.00000000000E+00 0. -1.
         13    1    5    5    0    0 -0.78039608584E+01 -0.36343628303E+02  0.19579007657E+03  0.19928751894E+03  0.00000000000E+00 0. -1.
        -14    1    5    5    0    0 -0.24169025218E+01 -0.81550677303E+01 -0.70305811732E+01  0.11035199097E+02  0.00000000000E+00 0.  1.
          5    1    4    4  501    0 -0.40495016271E+02 -0.29341355443E+02 -0.44550322279E+02  0.67104136215E+02  0.41800000000E+01 0. -1.
         -5    1    4    4    0  501  0.68544890546E+01  0.83982715459E+02 -0.15457461657E+02  0.85769959991E+02  0.41800000000E+01 0. -1.
</event>
<event>
11    1  0.6930157E-009  0.1593506E+03  0.7561462E-02  0.1087690E+00
         22   -1    0    0    0    0  0.00000000000E+00  0.00000000000E+00  0.38080688920E+04  0.38080688920E+04  0.00000000000E+00 0. -1.
         22   -1    0    0    0    0 -0.00000000000E+00 -0.00000000000E+00 -0.31750690862E+03  0.31750690862E+03  0.00000000000E+00 0. -1.
        -24    2    1    2    0    0  0.58946526541E+02 -0.14511773886E+02 -0.29584861755E+03  0.31255295079E+03  0.80483898808E+02 0.  0.
         25    2    1    2    0    0 -0.14004065838E+03 -0.34460045165E+02  0.74115234118E+03  0.76534529175E+03  0.12509093516E+03 0.  0.
         24    2    1    2    0    0  0.81094131835E+02  0.48971819051E+02  0.30452582598E+04  0.30476775581E+04  0.75935052064E+02 0.  0.
        -11    1    5    5    0    0 -0.12260606348E+02  0.18722045787E+02  0.43503265739E+03  0.43560790909E+03  0.00000000000E+00 0.  1.
         12    1    5    5    0    0  0.93354738183E+02  0.30249773264E+02  0.26102256024E+04  0.26120696490E+04  0.00000000000E+00 0. -1.
         11    1    3    3    0    0  0.79005067801E+02 -0.77609040532E+01 -0.22394089990E+03  0.23759536826E+03  0.00000000000E+00 0. -1.
        -12    1    3    3    0    0 -0.20058541260E+02 -0.67508698327E+01 -0.71907717647E+02  0.74957582526E+02  0.00000000000E+00 0.  1.
          5    1    4    4  501    0  0.73793961387E+01  0.27809962204E+02  0.81006997407E+02  0.86066576056E+02  0.41800000000E+01 0.  1.
         -5    1    4    4    0  501 -0.14742005452E+03 -0.62270007369E+02  0.66014534378E+03  0.67927871570E+03  0.41800000000E+01 0.  1.
</event>
<event>
11    1  0.6930157E-009  0.1453398E+03  0.7561462E-02  0.1101738E+00
         22   -1    0    0    0    0  0.00000000000E+00  0.00000000000E+00  0.34024239011E+03  0.34024239011E+03  0.00000000000E+00 0. -1.
         22   -1    0    0    0    0 -0.00000000000E+00 -0.00000000000E+00 -0.83952826593E+02  0.83952826593E+02  0.00000000000E+00 0. -1.
         24    2    1    2    0    0  0.12635728073E+02  0.89927332511E+01  0.46480997295E+02  0.95238420753E+02  0.81666044368E+02 0.  0.
         25    2    1    2    0    0  0.30186035179E+02  0.58742246636E+02  0.11357092400E+03  0.18140624330E+03  0.12509205439E+03 0.  0.
        -24    2    1    2    0    0 -0.42821763253E+02 -0.67734979887E+02  0.96237642228E+02  0.14755055265E+03  0.78024040512E+02 0.  0.
        -11    1    3    3    0    0  0.43851917548E+02 -0.51776466100E+01  0.10192855447E+02  0.45317689694E+02  0.00000000000E+00 0.  1.
         12    1    3    3    0    0 -0.31216189474E+02  0.14170379861E+02  0.36288141847E+02  0.49920731059E+02  0.00000000000E+00 0. -1.
         11    1    5    5    0    0 -0.61433059257E+02 -0.33248333231E+02  0.45192761178E+02  0.83197704867E+02  0.00000000000E+00 0. -1.
        -12    1    5    5    0    0  0.18611296004E+02 -0.34486646656E+02  0.51044881051E+02  0.64352847785E+02  0.00000000000E+00 0.  1.
          5    1    4    4  501    0  0.57814523440E+02  0.70983990907E+02  0.11922770054E+03  0.15037939707E+03  0.41800000000E+01 0.  1.
         -5    1    4    4    0  501 -0.27628488261E+02 -0.12241744270E+02 -0.56567765466E+01  0.31026846235E+02  0.41800000000E+01 0.  1.
</event>
<event>
11    1  0.6930157E-009  0.2074546E+03  0.7561462E-02  0.1049374E+00
         22   -1    0    0    0    0  0.00000000000E+00  0.00000000000E+00  0.65938450976E+03  0.65938450976E+03  0.00000000000E+00 0.  1.
         22   -1    0    0    0    0 -0.00000000000E+00 -0.00000000000E+00 -0.30165348102E+03  0.30165348102E+03  0.00000000000E+00 0.  1.
        -24    2    1    2    0    0 -0.12754871229E+03  0.13474646552E+03 -0.13884608709E+03  0.24544995736E+03  0.80883630568E+02 0.  0.
         25    2    1    2    0    0  0.10053576827E+03 -0.90712531881E+02 -0.24389338455E+02  0.18595208043E+03  0.12508849765E+03 0.  0.
         24    2    1    2    0    0  0.27012944021E+02 -0.44033933637E+02  0.52096645427E+03  0.52963595298E+03  0.80246556056E+02 0.  0.
        -13    1    5    5    0    0  0.87292282910E+01 -0.43060675238E+02  0.49947006350E+03  0.50139880885E+03  0.00000000000E+00 0.  1.
         14    1    5    5    0    0  0.18283715730E+02 -0.97325839930E+00  0.21496390771E+02  0.28237144137E+02  0.00000000000E+00 0. -1.
         11    1    3    3    0    0 -0.27729364989E+02  0.46778369411E+02 -0.17518126865E+01  0.54407741867E+02  0.00000000000E+00 0. -1.
        -12    1    3    3    0    0 -0.99819347304E+02  0.87968096108E+02 -0.13709427440E+03  0.19104221550E+03  0.00000000000E+00 0.  1.
          5    1    4    4  501    0 -0.32187141478E+01 -0.70484546880E+02  0.16418795509E+02  0.72563632183E+02  0.41800000000E+01 0.  1.
         -5    1    4    4    0  501  0.10375448242E+03 -0.20227985002E+02 -0.40808133963E+02  0.11338844825E+03  0.41800000000E+01 0.  1.
</event>
<event>
11    1  0.6930157E-009  0.1409709E+03  0.7561462E-02  0.1106479E+00
         22   -1    0    0    0    0  0.00000000000E+00  0.00000000000E+00  0.55159983514E+02  0.55159983514E+02  0.00000000000E+00 0. -1.
         22   -1    0    0    0    0 -0.00000000000E+00 -0.00000000000E+00 -0.10120942698E+04  0.10120942698E+04  0.00000000000E+00 0. -1.
         24    2    1    2    0    0 -0.37326610500E+01  0.77211594239E+02 -0.60168604381E+03  0.61144921079E+03  0.76605998554E+02 0.  0.
         25    2    1    2    0    0 -0.13463690484E+00 -0.34799732231E+02 -0.33947661267E+03  0.36346103536E+03  0.12509402137E+03 0.  0.
        -24    2    1    2    0    0  0.38672979549E+01 -0.42411862008E+02 -0.15771629817E+02  0.92344007178E+02  0.80404908570E+02 0.  0.
        -13    1    3    3    0    0  0.14283305111E+02 -0.62574094701E+01 -0.34361927606E+02  0.37734732635E+02  0.00000000000E+00 0.  1.
         14    1    3    3    0    0 -0.18015966161E+02  0.83469003710E+02 -0.56732411620E+03  0.57371447815E+03  0.00000000000E+00 0. -1.
         11    1    5    5    0    0  0.35844347914E+02 -0.22460328342E+02  0.13738431691E+02  0.44475028184E+02  0.00000000000E+00 0. -1.
        -12    1    5    5    0    0 -0.31977049959E+02 -0.19951533666E+02 -0.29510061508E+02  0.47868978994E+02  0.00000000000E+00 0.  1.
          5    1    4    4  501    0  0.20009948857E+02  0.43925299105E+02 -0.12316652238E+03  0.13235291681E+03  0.41800000000E+01 0. -1.
         -5    1    4    4    0  501 -0.20144585761E+02 -0.78725031337E+02 -0.21631009030E+03  0.23110811855E+03  0.41800000000E+01 0. -1.
</event>
<event>
11    1  0.6930157E-009  0.2050599E+03  0.7561462E-02  0.1051002E+00
         22   -1    0    0    0    0  0.00000000000E+00  0.00000000000E+00  0.30003246280E+03  0.30003246280E+03  0.00000000000E+00 0. -1.
         22   -1    0    0    0    0 -0.00000000000E+00 -0.00000000000E+00 -0.50319809920E+03  0.50319809920E+03  0.00000000000E+00 0. -1.
         24    2    1    2    0    0  0.53715995764E+01 -0.16868104152E+02 -0.37422566027E+03  0.38063721373E+03  0.67278946612E+02 0.  0.
         25    2    1    2    0    0 -0.62353660858E+01 -0.15400987048E+03  0.93659286278E+02  0.21949360461E+03  0.12508981000E+03 0.  0.
        -24    2    1    2    0    0  0.86376650938E+00  0.17087797463E+03  0.77400737583E+02  0.20309974365E+03  0.77837030946E+02 0.  0.
        -13    1    3    3    0    0 -0.18012346845E+02 -0.79620965170E+01 -0.32531868138E+02  0.38028437575E+02  0.00000000000E+00 0.  1.
         14    1    3    3    0    0  0.23383946421E+02 -0.89060076354E+01 -0.34169379213E+03  0.34260877616E+03  0.00000000000E+00 0. -1.
         13    1    5    5    0    0  0.35091490392E+02  0.11527915299E+03  0.35897588272E+02  0.12573516873E+03  0.00000000000E+00 0. -1.
        -14    1    5    5    0    0 -0.34227723883E+02  0.55598821642E+02  0.41503149310E+02  0.77364574922E+02  0.00000000000E+00 0.  1.
          5    1    4    4  501    0  0.72552732577E+01 -0.16487860585E+03  0.50251100738E+02  0.17256951986E+03  0.41800000000E+01 0. -1.
         -5    1    4    4    0  501 -0.13490639344E+02  0.10868735374E+02  0.43408185541E+02  0.46924084759E+02  0.41800000000E+01 0. -1.
</event>
<event>
11    1  0.6930157E-009  0.2063969E+03  0.7561462E-02  0.1050090E+00
         22   -1    0    0    0    0  0.00000000000E+00  0.00000000000E+00  0.51630095461E+03  0.51630095461E+03  0.00000000000E+00 0. -1.
         22   -1    0    0    0    0 -0.00000000000E+00 -0.00000000000E+00 -0.15858345294E+04  0.15858345294E+04  0.00000000000E+00 0.  1.
        -24    2    1    2    0    0 -0.78031103710E+02 -0.12722725406E+03 -0.74058278854E+03  0.75973128909E+03  0.80331423611E+02 0.  0.
         25    2    1    2    0    0  0.11526465668E+03  0.14951968683E+03 -0.81654470856E+03  0.84736933429E+03  0.12508976687E+03 0.  0.
         24    2    1    2    0    0 -0.37233552975E+02 -0.22292432765E+02  0.48759392227E+03  0.49503486068E+03  0.73677610085E+02 0.  0.
        -13    1    5    5    0    0 -0.30910136890E+02  0.14482792634E+02  0.10033954566E+03  0.10598684950E+03  0.00000000000E+00 0.  1.
         14    1    5    5    0    0 -0.63234160845E+01 -0.36775225399E+02  0.38725437661E+03  0.38904801117E+03  0.00000000000E+00 0. -1.
         13    1    3    3    0    0  0.72743553327E+01  0.23687802028E+01 -0.87059764607E+01  0.11589710578E+02  0.00000000000E+00 0. -1.
        -14    1    3    3    0    0 -0.85305459043E+02 -0.12959603427E+03 -0.73187681208E+03  0.74814157851E+03  0.00000000000E+00 0.  1.
          5    1    4    4  501    0  0.21974219837E+02  0.50599362815E+01 -0.33924269585E+03  0.34001698249E+03  0.41800000000E+01 0. -1.
         -5    1    4    4    0  501  0.93290436847E+02  0.14445975055E+03 -0.47730201271E+03  0.50735235180E+03  0.41800000000E+01 0. -1.
</event>
<event>
11    1  0.6930157E-009  0.1544440E+03  0.7561462E-02  0.1092422E+00
         22   -1    0    0    0    0  0.00000000000E+00  0.00000000000E+00  0.37705853995E+03  0.37705853995E+03  0.00000000000E+00 0. -1.
         22   -1    0    0    0    0 -0.00000000000E+00 -0.00000000000E+00 -0.30407981946E+04  0.30407981946E+04  0.00000000000E+00 0.  1.
        -24    2    1    2    0    0  0.13205574422E+01  0.91733371581E+02 -0.29115300321E+04  0.29141436385E+04  0.82518256331E+02 0.  0.
         25    2    1    2    0    0  0.52227789678E+02 -0.51812584768E+02 -0.75417937984E+02  0.16354715179E+03  0.12509004571E+03 0.  0.
         24    2    1    2    0    0 -0.53548347121E+02 -0.39920786813E+02  0.32320831543E+03  0.34016594427E+03  0.82390289355E+02 0.  0.
        -11    1    5    5    0    0 -0.17339559560E+02 -0.24106635115E+02  0.23511723875E+02  0.37875999549E+02  0.00000000000E+00 0.  1.
         12    1    5    5    0    0 -0.36208787561E+02 -0.15814151698E+02  0.29969659155E+03  0.30228994472E+03  0.00000000000E+00 0. -1.
         11    1    3    3    0    0  0.38746955407E+02  0.22850679154E+02 -0.10383576059E+04  0.10393315149E+04  0.00000000000E+00 0. -1.
        -12    1    3    3    0    0 -0.37426397965E+02  0.68882692427E+02 -0.18731724261E+04  0.18748121235E+04  0.00000000000E+00 0.  1.
          5    1    4    4  501    0 -0.19276564641E+02  0.20188948754E+02  0.10903789464E+02  0.30257967890E+02  0.41800000000E+01 0. -1.
         -5    1    4    4    0  501  0.71504354319E+02 -0.72001533523E+02 -0.86321727448E+02  0.13328918390E+03  0.41800000000E+01 0. -1.
</event>
<event>
11    1  0.6930157E-009  0.1515059E+03  0.7561462E-02  0.1095350E+00
         22   -1    0    0    0    0  0.00000000000E+00  0.00000000000E+00  0.13763757045E+04  0.13763757045E+04  0.00000000000E+00 0.  1.
         22   -1    0    0    0    0 -0.00000000000E+00 -0.00000000000E+00 -0.17344083988E+03  0.17344083988E+03  0.00000000000E+00 0. -1.
         24    2    1    2    0    0 -0.48515005024E+02  0.89331376385E+02 -0.97716054275E+02  0.16316824812E+03  0.82107547846E+02 0.  0.
         25    2    1    2    0    0  0.21719961381E+02 -0.27344439569E+02  0.62640418250E+02  0.14417802812E+03  0.12507600368E+03 0.  0.
        -24    2    1    2    0    0  0.26795043643E+02 -0.61986936817E+02  0.12380105006E+04  0.12424702681E+04  0.80635059391E+02 0.  0.
        -13    1    3    3    0    0 -0.18393686004E+02 -0.36439061453E+01  0.69212424585E+01  0.19987729585E+02  0.00000000000E+00 0.  1.
         14    1    3    3    0    0 -0.30121319020E+02  0.92975282531E+02 -0.10463729673E+03  0.14318051854E+03  0.00000000000E+00 0. -1.
         13    1    5    5    0    0  0.46405242702E+00 -0.63274920702E+02  0.49985654431E+03  0.50384570637E+03  0.00000000000E+00 0. -1.
        -14    1    5    5    0    0  0.26330991216E+02  0.12879838857E+01  0.73815395631E+03  0.73862456175E+03  0.00000000000E+00 0.  1.
          5    1    4    4  501    0 -0.51727945337E+02 -0.15517854412E+02  0.16876700593E+02  0.56735170373E+02  0.41800000000E+01 0. -1.
         -5    1    4    4    0  501  0.73447906718E+02 -0.11826585156E+02  0.45763717657E+02  0.87442857750E+02  0.41800000000E+01 0. -1.
</event>
<event>
11    1  0.6930157E-009  0.1345352E+03  0.7561462E-02  0.1113819E+00
         22   -1    0    0    0    0  0.00000000000E+00  0.00000000000E+00  0.12570236328E+03  0.12570236328E+03  0.00000000000E+00 0. -1.
         22   -1    0    0    0    0 -0.00000000000E+00 -0.00000000000E+00 -0.16833951497E+04  0.16833951497E+04  0.00000000000E+00 0.  1.
         24    2    1    2    0    0 -0.45626574665E+02 -0.20209185100E+02 -0.15785017279E+04  0.15813338032E+04  0.80366016271E+02 0.  0.
         25    2    1    2    0    0  0.25362189917E+02  0.28444529582E+02 -0.22989019120E+02  0.13277112747E+03  0.12508934946E+03 0.  0.
        -24    2    1    2    0    0  0.20264384749E+02 -0.82353444819E+01  0.43797960597E+02  0.94992582351E+02  0.81405547484E+02 0.  0.
        -11    1    3    3    0    0 -0.39062030104E+02  0.19262398951E+02 -0.11856228866E+04  0.11864225687E+04  0.00000000000E+00 0.  1.
         12    1    3    3    0    0 -0.65645445610E+01 -0.39471584051E+02 -0.39287884131E+03  0.39491123451E+03  0.00000000000E+00 0. -1.
         11    1    5    5    0    0  0.19727559217E+02 -0.43018089365E+02  0.14458679780E+02  0.49485210177E+02  0.00000000000E+00 0. -1.
        -12    1    5    5    0    0  0.53682553228E+00  0.34782744883E+02  0.29339280818E+02  0.45507372174E+02  0.00000000000E+00 0.  1.
          5    1    4    4  501    0  0.95512089137E+01  0.19357739196E+02  0.51484889540E+02  0.55983157373E+02  0.41800000000E+01 0. -1.
         -5    1    4    4    0  501  0.15810981003E+02  0.90867903853E+01 -0.74473908660E+02  0.76787970093E+02  0.41800000000E+01 0. -1.
</event>
<event>
11    1  0.6930157E-009  0.1783196E+03  0.7561462E-02  0.1071010E+00
         22   -1    0    0    0    0  0.00000000000E+00  0.00000000000E+00  0.41072510846E+03  0.41072510846E+03  0.00000000000E+00 0. -1.
         22   -1    0    0    0    0 -0.00000000000E+00 -0.00000000000E+00 -0.84723333882E+03  0.84723333882E+03  0.00000000000E+00 0.  1.
        -24    2    1    2    0    0  0.28188198220E+02  0.12325271637E+03 -0.64102494727E+03  0.65825973250E+03  0.80044273985E+02 0.  0.
         25    2    1    2    0    0  0.81177307705E+02 -0.14714327538E+03 -0.12370114712E+03  0.24329187397E+03  0.12509221945E+03 0.  0.
         24    2    1    2    0    0 -0.10936550592E+03  0.23890559003E+02  0.32821786403E+03  0.35640684081E+03  0.82263583757E+02 0.  0.
        -13    1    5    5    0    0  0.19748455173E+01  0.19223647005E+02  0.10672185303E+03  0.10845737657E+03  0.00000000000E+00 0.  1.
         14    1    5    5    0    0 -0.11134035144E+03  0.46669119977E+01  0.22149601100E+03  0.24794946424E+03  0.00000000000E+00 0. -1.
         13    1    3    3    0    0  0.40161836360E+02  0.49115007178E+02 -0.17338871978E+03  0.18463180977E+03  0.00000000000E+00 0. -1.
        -14    1    3    3    0    0 -0.11973638141E+02  0.74137709196E+02 -0.46763622749E+03  0.47362792274E+03  0.00000000000E+00 0.  1.
          5    1    4    4  501    0  0.49303807366E+02 -0.14270705115E+03 -0.44127902950E+02  0.15735600430E+03  0.41800000000E+01 0.  1.
         -5    1    4    4    0  501  0.31873500339E+02 -0.44362242248E+01 -0.79573244165E+02  0.85935869672E+02  0.41800000000E+01 0.  1.
</event>
<event>
11    1  0.6930157E-009  0.2259039E+03  0.7561462E-02  0.1037581E+00
         22   -1    0    0    0    0  0.00000000000E+00  0.00000000000E+00  0.35039956063E+03  0.35039956063E+03  0.00000000000E+00 0. -1.
         22   -1    0    0    0    0 -0.00000000000E+00 -0.00000000000E+00 -0.27412954770E+04  0.27412954770E+04  0.00000000000E+00 0.  1.
         24    2    1    2    0    0  0.18699100973E+03  0.71489154100E+02 -0.21542338156E+04  0.21649956313E+04  0.80040078523E+02 0.  0.
         25    2    1    2    0    0 -0.15048798092E+03 -0.24964443192E+02 -0.55744301642E+03  0.59132088241E+03  0.12509122109E+03 0.  0.
        -24    2    1    2    0    0 -0.36503028815E+02 -0.46524710909E+02  0.32078091566E+03  0.33537852396E+03  0.77982938185E+02 0.  0.
        -11    1    3    3    0    0  0.19405483308E+03  0.69707469303E+02 -0.21194912721E+04  0.21294975140E+04  0.00000000000E+00 0.  1.
         12    1    3    3    0    0 -0.70638233509E+01  0.17816847971E+01 -0.34742543557E+02  0.35498117329E+02  0.00000000000E+00 0. -1.
         13    1    5    5    0    0 -0.55380163073E+02 -0.34569856092E+02  0.29050450086E+03  0.29774973120E+03  0.00000000000E+00 0. -1.
        -14    1    5    5    0    0  0.18877134259E+02 -0.11954854816E+02  0.30276414796E+02  0.37628792757E+02  0.00000000000E+00 0.  1.
          5    1    4    4  501    0 -0.52210646419E+02  0.22606612821E+02 -0.36986966134E+03  0.37424330231E+03  0.41800000000E+01 0.  1.
         -5    1    4    4    0  501 -0.98277334500E+02 -0.47571056013E+02 -0.18757335508E+03  0.21707758010E+03  0.41800000000E+01 0.  1.
</event>
<event>
11    1  0.6930157E-009  0.1527364E+03  0.7561462E-02  0.1094115E+00
         22   -1    0    0    0    0  0.00000000000E+00  0.00000000000E+00  0.62848768869E+03  0.62848768869E+03  0.00000000000E+00 0.  1.
         22   -1    0    0    0    0 -0.00000000000E+00 -0.00000000000E+00 -0.15373400337E+03  0.15373400337E+03  0.00000000000E+00 0.  1.
        -24    2    1    2    0    0  0.39922348814E+01  0.16137848516E+02 -0.82084244882E+02  0.12172829493E+03  0.88337910514E+02 0.  0.
         25    2    1    2    0    0 -0.75868236346E+02 -0.63157125662E+02  0.98488449520E+02  0.18732758074E+03  0.12508731354E+03 0.  0.
         24    2    1    2    0    0  0.71876001464E+02  0.47019277145E+02  0.45834948068E+03  0.47316581639E+03  0.80154047597E+02 0.  0.
        -13    1    5    5    0    0  0.81837092110E+02  0.51310594148E+02  0.44756887628E+03  0.45787332935E+03  0.00000000000E+00 0.  1.
         14    1    5    5    0    0 -0.99610906453E+01 -0.42913170026E+01  0.10780604401E+02  0.15292487035E+02  0.00000000000E+00 0. -1.
         11    1    3    3    0    0  0.29674989732E+01 -0.18890982988E+02  0.11142861350E+02  0.22132298739E+02  0.00000000000E+00 0. -1.
        -12    1    3    3    0    0  0.10247359082E+01  0.35028831505E+02 -0.93227106232E+02  0.99595996188E+02  0.00000000000E+00 0.  1.
          5    1    4    4  501    0 -0.42932951805E+02  0.30401594906E+02  0.87264820510E+01  0.53489430848E+02  0.41800000000E+01 0. -1.
         -5    1    4    4    0  501 -0.32935284541E+02 -0.93558720568E+02  0.89761967469E+02  0.13383814989E+03  0.41800000000E+01 0. -1.
</event>
<event>
11    1  0.6930157E-009  0.1286209E+03  0.7561462E-02  0.1120975E+00
         22   -1    0    0    0    0  0.00000000000E+00  0.00000000000E+00  0.67076933925E+03  0.67076933925E+03  0.00000000000E+00 0. -1.
         22   -1    0    0    0    0 -0.00000000000E+00 -0.00000000000E+00 -0.27610954614E+03  0.27610954614E+03  0.00000000000E+00 0. -1.
        -24    2    1    2    0    0  0.57601505488E+01  0.29979194793E+02 -0.21517944344E+03  0.23193541220E+03  0.80993278110E+02 0.  0.
         25    2    1    2    0    0 -0.76261890018E+01 -0.23161556552E+02  0.31620126284E+02  0.13130700628E+03  0.12508829303E+03 0.  0.
         24    2    1    2    0    0  0.18660384530E+01 -0.68176382413E+01  0.57821911027E+03  0.58363646690E+03  0.79020400677E+02 0.  0.
        -13    1    5    5    0    0 -0.26712802543E+02  0.18241138692E+02  0.13629557926E+03  0.14008139736E+03  0.00000000000E+00 0.  1.
         14    1    5    5    0    0  0.28578840996E+02 -0.25058776934E+02  0.44192353101E+03  0.44355506954E+03  0.00000000000E+00 0. -1.
         13    1    3    3    0    0 -0.87677560009E+01  0.32863306935E+02 -0.21442386588E+03  0.21710473221E+03  0.00000000000E+00 0. -1.
        -14    1    3    3    0    0  0.14527906550E+02 -0.28841121415E+01 -0.75557755778E+00  0.14830679991E+02  0.00000000000E+00 0.  1.
          5    1    4    4  501    0 -0.56734594686E+02  0.12806679490E+02 -0.75532761186E+01  0.58799231745E+02  0.41800000000E+01 0. -1.
         -5    1    4    4    0  501  0.49108405684E+02 -0.35968236042E+02  0.39173402403E+02  0.72507774539E+02  0.41800000000E+01 0. -1.
</event>
<event>
11    1  0.6930157E-009  0.1340885E+03  0.7561462E-02  0.1114345E+00
         22   -1    0    0    0    0  0.00000000000E+00  0.00000000000E+00  0.17330708942E+03  0.17330708942E+03  0.00000000000E+00 0. -1.
         22   -1    0    0    0    0 -0.00000000000E+00 -0.00000000000E+00 -0.33121737724E+03  0.33121737724E+03  0.00000000000E+00 0. -1.
        -24    2    1    2    0    0  0.44072384529E+02  0.33248251127E+02 -0.21879455282E+03  0.23910604880E+03  0.79074806031E+02 0.  0.
         25    2    1    2    0    0 -0.34420068089E+02  0.33219848505E+02 -0.27142985982E+02  0.13664263455E+03  0.12508464521E+03 0.  0.
         24    2    1    2    0    0 -0.96523164397E+01 -0.66468099632E+02  0.88027250988E+02  0.12877578331E+03  0.65751273512E+02 0.  0.
        -11    1    5    5    0    0  0.82261980685E+01 -0.15798071596E+02 -0.73789663317E+01  0.19279485080E+02  0.00000000000E+00 0.  1.
         12    1    5    5    0    0 -0.17878514508E+02 -0.50670028035E+02  0.95406217320E+02  0.10949629823E+03  0.00000000000E+00 0. -1.
         13    1    3    3    0    0 -0.56654646336E+00 -0.20179291724E+02 -0.94584306566E+02  0.96714610261E+02  0.00000000000E+00 0. -1.
        -14    1    3    3    0    0  0.44638930992E+02  0.53427542851E+02 -0.12421024625E+03  0.14239143854E+03  0.00000000000E+00 0.  1.
          5    1    4    4  501    0 -0.38185962452E+02 -0.42815258700E+02 -0.14926197730E+02  0.59427080398E+02  0.41800000000E+01 0. -1.
         -5    1    4    4    0  501  0.37658943633E+01  0.76035107205E+02 -0.12216788253E+02  0.77215554154E+02  0.41800000000E+01 0. -1.
</event>
<event>
11    1  0.6930157E-009  0.1469593E+03  0.7561462E-02  0.1100027E+00
         22   -1    0    0    0    0  0.00000000000E+00  0.00000000000E+00  0.23439413431E+03  0.23439413431E+03  0.00000000000E+00 0.  1.
         22   -1    0    0    0    0 -0.00000000000E+00 -0.00000000000E+00 -0.18999656120E+04  0.18999656120E+04  0.00000000000E+00 0. -1.
         24    2    1    2    0    0  0.73669809145E+02  0.26477835987E+02 -0.18364150742E+04  0.18405768279E+04  0.95783184183E+02 0.  0.
         25    2    1    2    0    0 -0.23165357374E+02 -0.14840784715E+02  0.46090946217E+02  0.13611969668E+03  0.12508922347E+03 0.  0.
        -24    2    1    2    0    0 -0.50504451771E+02 -0.11637051272E+02  0.12475265020E+03  0.15766322174E+03  0.81291740950E+02 0.  0.
        -11    1    3    3    0    0  0.77920919621E+00  0.16848473528E+02 -0.52405476440E+02  0.55052812718E+02  0.00000000000E+00 0.  1.
         12    1    3    3    0    0  0.72890599949E+02  0.96293624592E+01 -0.17840095977E+04  0.17855240152E+04  0.00000000000E+00 0. -1.
         13    1    5    5    0    0 -0.71593685932E+02 -0.12932987707E+02  0.79760103027E+02  0.10795643599E+03  0.00000000000E+00 0. -1.
        -14    1    5    5    0    0  0.21089234160E+02  0.12959364348E+01  0.44992547177E+02  0.49706785756E+02  0.00000000000E+00 0.  1.
          5    1    4    4  501    0  0.44909565790E+02  0.69683393484E+01  0.45596048659E+02  0.64512780951E+02  0.41800000000E+01 0. -1.
         -5    1    4    4    0  501 -0.68074923164E+02 -0.21809124063E+02  0.49489755783E+00  0.71606915726E+02  0.41800000000E+01 0. -1.
</event>
<event>
11    1  0.7138590E-009  0.1577166E+03  0.7561462E-02  0.1089245E+00
         22   -1    0    0    0    0  0.00000000000E+00  0.00000000000E+00  0.99309805759E+02  0.99309805759E+02  0.00000000000E+00 0.  1.
         22   -1    0    0    0    0 -0.00000000000E+00 -0.00000000000E+00 -0.10325489913E+04  0.10325489913E+04  0.00000000000E+00 0.  1.
        -24    2    1    2    0    0  0.17380313203E+02 -0.19402654809E+02 -0.53050151381E+03  0.53712785671E+03  0.79974620928E+02 0.  0.
         25    2    1    2    0    0 -0.66323935640E+02  0.99159874580E+02 -0.43480422728E+03  0.46791276886E+03  0.12512433033E+03 0.  0.
         24    2    1    2    0    0  0.48943622438E+02 -0.79757219772E+02  0.32066555574E+02  0.12681817147E+03  0.79359261241E+02 0.  0.
        -11    1    5    5    0    0  0.50806306135E+02 -0.75288451270E+02  0.53116399016E+02  0.10521874112E+03  0.00000000000E+00 0.  1.
         12    1    5    5    0    0 -0.18626836976E+01 -0.44687685019E+01 -0.21049843443E+02  0.21599430350E+02  0.00000000000E+00 0. -1.
         13    1    3    3    0    0  0.56145880039E+01 -0.50191075771E+02 -0.35263988292E+03  0.35623805904E+03  0.00000000000E+00 0. -1.
        -14    1    3    3    0    0  0.11765725199E+02  0.30788420963E+02 -0.17786163090E+03  0.18088979767E+03  0.00000000000E+00 0.  1.
          5    1    4    4  501    0  0.23045371621E+02 -0.15018787669E+02 -0.69202492003E+02  0.74586261709E+02  0.41800000000E+01 0.  1.
         -5    1    4    4    0  501 -0.89369307262E+02  0.11417866225E+03 -0.36560173528E+03  0.39332650716E+03  0.41800000000E+01 0.  1.
</event>
<event>
11    1  0.6930157E-009  0.1878132E+03  0.7561462E-02  0.1063492E+00
         22   -1    0    0    0    0  0.00000000000E+00  0.00000000000E+00  0.37920565048E+03  0.37920565048E+03  0.00000000000E+00 0.  1.
         22   -1    0    0    0    0 -0.00000000000E+00 -0.00000000000E+00 -0.17782619902E+03  0.17782619902E+03  0.00000000000E+00 0. -1.
         24    2    1    2    0    0  0.10485063744E+03 -0.88154084219E+02 -0.58330390407E+02  0.16900054878E+03  0.79962192987E+02 0.  0.
         25    2    1    2    0    0 -0.10390025868E+03  0.11040156457E+03  0.13833233058E+03  0.24033562889E+03  0.12506642880E+03 0.  0.
        -24    2    1    2    0    0 -0.95037875763E+00 -0.22247480352E+02  0.12137751128E+03  0.14769567183E+03  0.81152064853E+02 0.  0.
        -11    1    3    3    0    0  0.51217141778E+02  0.40897601800E+01 -0.12545111181E+02  0.52889522259E+02  0.00000000000E+00 0.  1.
         12    1    3    3    0    0  0.53633495664E+02 -0.92243844399E+02 -0.45785279226E+02  0.11611102652E+03  0.00000000000E+00 0. -1.
         11    1    5    5    0    0  0.10710922935E+01  0.29973361065E+02  0.29947460665E+02  0.42383959377E+02  0.00000000000E+00 0. -1.
        -12    1    5    5    0    0 -0.20214710511E+01 -0.52220841417E+02  0.91430050616E+02  0.10531171245E+03  0.00000000000E+00 0.  1.
          5    1    4    4  501    0 -0.36411689495E+02  0.10299188175E+03  0.13291739520E+03  0.17209777798E+03  0.41800000000E+01 0.  1.
         -5    1    4    4    0  501 -0.67488569190E+02  0.74096828217E+01  0.54149353782E+01  0.68237850904E+02  0.41800000000E+01 0.  1.
</event>
<event>
11    1  0.7475628E-009  0.1982416E+03  0.7561462E-02  0.1055774E+00
         22   -1    0    0    0    0  0.00000000000E+00  0.00000000000E+00  0.32425371520E+03  0.32425371520E+03  0.00000000000E+00 0. -1.
         22   -1    0    0    0    0 -0.00000000000E+00 -0.00000000000E+00 -0.81195108564E+03  0.81195108564E+03  0.00000000000E+00 0. -1.
        -24    2    1    2    0    0 -0.32594432047E+01 -0.47374169596E+02 -0.52283278035E+03  0.53097252999E+03  0.79515881965E+02 0.  0.
         25    2    1    2    0    0 -0.27506275804E+02 -0.10784652088E+03 -0.23094152146E+03  0.28525507345E+03  0.12509597644E+03 0.  0.
         24    2    1    2    0    0  0.30765719009E+02  0.15522069047E+03  0.26607693137E+03  0.31997719740E+03  0.80922686742E+02 0.  0.
        -11    1    5    5    0    0 -0.13757969981E+02  0.79930928746E+02  0.77865785729E+02  0.11243360572E+03  0.00000000000E+00 0.  1.
         12    1    5    5    0    0  0.44523688989E+02  0.75289761728E+02  0.18821114564E+03  0.20754359168E+03  0.00000000000E+00 0. -1.
         13    1    3    3    0    0  0.79668916331E+01 -0.25782991484E+02 -0.48647035036E+03  0.48721826299E+03  0.00000000000E+00 0. -1.
        -14    1    3    3    0    0 -0.11226334838E+02 -0.21591178113E+02 -0.36362429987E+02  0.43754267000E+02  0.00000000000E+00 0.  1.
          5    1    4    4  501    0 -0.28099040998E+02 -0.76086610438E+02 -0.23882767847E+03  0.25225951081E+03  0.41800000000E+01 0.  1.
         -5    1    4    4    0  501  0.59276519427E+00 -0.31759910440E+02  0.78861570051E+01  0.32995562642E+02  0.41800000000E+01 0.  1.
</event>
<event>
11    1  0.6930157E-009  0.1337874E+03  0.7561462E-02  0.1114701E+00
         22   -1    0    0    0    0  0.00000000000E+00  0.00000000000E+00  0.74319974075E+03  0.74319974075E+03  0.00000000000E+00 0.  1.
         22   -1    0    0    0    0 -0.00000000000E+00 -0.00000000000E+00 -0.26652113095E+03  0.26652113095E+03  0.00000000000E+00 0.  1.
         24    2    1    2    0    0  0.20514205010E+02  0.21752678256E+02 -0.21695706670E+03  0.23209821468E+03  0.76845304667E+02 0.  0.
         25    2    1    2    0    0 -0.19207674252E+02 -0.67337342453E+02  0.95383322799E+02  0.17218917616E+03  0.12509149324E+03 0.  0.
        -24    2    1    2    0    0 -0.13065307577E+01  0.45584664196E+02  0.59825235370E+03  0.60543348086E+03  0.81019456984E+02 0.  0.
        -11    1    3    3    0    0  0.38437965109E+02 -0.12126048729E+01 -0.18458275540E+03  0.18854638995E+03  0.00000000000E+00 0.  1.
         12    1    3    3    0    0 -0.17923760099E+02  0.22965283129E+02 -0.32374311296E+02  0.43551824728E+02  0.00000000000E+00 0. -1.
         11    1    5    5    0    0 -0.44127094716E+00  0.29461438700E+01 -0.20512310002E+01  0.36169092285E+01  0.00000000000E+00 0. -1.
        -12    1    5    5    0    0 -0.86525981053E+00  0.42638520326E+02  0.60030358470E+03  0.60181657163E+03  0.00000000000E+00 0.  1.
          5    1    4    4  501    0 -0.48102470066E+02 -0.93924819606E+01  0.95366506791E+02  0.10730474995E+03  0.41800000000E+01 0. -1.
         -5    1    4    4    0  501  0.28894795813E+02 -0.57944860492E+02  0.16816008501E-01  0.64884426216E+02  0.41800000000E+01 0. -1.
</event>
<event>
11    1  0.6930157E-009  0.1339835E+03  0.7561462E-02  0.1114469E+00
         22   -1    0    0    0    0  0.00000000000E+00  0.00000000000E+00  0.30921474907E+03  0.30921474907E+03  0.00000000000E+00 0.  1.
         22   -1    0    0    0    0 -0.00000000000E+00 -0.00000000000E+00 -0.36680501406E+04  0.36680501406E+04  0.00000000000E+00 0.  1.
        -24    2    1    2    0    0 -0.30253423069E+02  0.19337071571E+01 -0.27428515325E+04  0.27441295771E+04  0.78061500906E+02 0.  0.
         25    2    1    2    0    0  0.77766070524E+02 -0.72140859366E+01 -0.91192793812E+03  0.92377343252E+03  0.12508071612E+03 0.  0.
         24    2    1    2    0    0 -0.47512647455E+02  0.52803787795E+01  0.29594407902E+03  0.30936188009E+03  0.76397256994E+02 0.  0.
        -13    1    5    5    0    0  0.86534317074E+01 -0.54501633956E+01  0.17793535910E+03  0.17822900488E+03  0.00000000000E+00 0.  1.
         14    1    5    5    0    0 -0.56166079162E+02  0.10730542175E+02  0.11800871992E+03  0.13113287521E+03  0.00000000000E+00 0. -1.
         13    1    3    3    0    0 -0.24915864229E+02  0.32256994004E+02 -0.80305427965E+03  0.80408798649E+03  0.00000000000E+00 0. -1.
        -14    1    3    3    0    0 -0.53375588405E+01 -0.30323286847E+02 -0.19397972528E+04  0.19400415906E+04  0.00000000000E+00 0.  1.
          5    1    4    4  501    0  0.84275360980E+02 -0.49001729981E+02 -0.48381924318E+03  0.49356057225E+03  0.41800000000E+01 0.  1.
         -5    1    4    4    0  501 -0.65092904567E+01  0.41787644044E+02 -0.42810869494E+03  0.43021286027E+03  0.41800000000E+01 0.  1.
</event>
<event>
11    1  0.6930157E-009  0.1433992E+03  0.7561462E-02  0.1103821E+00
         22   -1    0    0    0    0  0.00000000000E+00  0.00000000000E+00  0.12260223926E+04  0.12260223926E+04  0.00000000000E+00 0. -1.
         22   -1    0    0    0    0 -0.00000000000E+00 -0.00000000000E+00 -0.63535340174E+03  0.63535340174E+03  0.00000000000E+00 0.  1.
        -24    2    1    2    0    0 -0.12540504203E+02 -0.77760899685E+02 -0.49300366949E+03  0.50568959748E+03  0.80407270193E+02 0.  0.
         25    2    1    2    0    0 -0.35108204804E+02  0.29061424784E+02 -0.10045973954E+03  0.16678400186E+03  0.12509033358E+03 0.  0.
         24    2    1    2    0    0  0.47648709008E+02  0.48699474901E+02  0.11841323999E+04  0.11889021950E+04  0.81711997301E+02 0.  0.
        -13    1    5    5    0    0 -0.59205078242E+01 -0.13389507251E+02  0.44390041957E+03  0.44414177220E+03  0.00000000000E+00 0.  1.
         14    1    5    5    0    0  0.53569216832E+02  0.62088982152E+02  0.74023198036E+03  0.74476042285E+03  0.00000000000E+00 0. -1.
         13    1    3    3    0    0  0.31605186487E+02 -0.14096815062E+02 -0.13147033624E+03  0.13594873048E+03  0.00000000000E+00 0. -1.
        -14    1    3    3    0    0 -0.44145690690E+02 -0.63664084623E+02 -0.36153333325E+03  0.36974086700E+03  0.00000000000E+00 0.  1.
          5    1    4    4  501    0 -0.81163808320E+02  0.13493258619E+02 -0.76495621719E+02  0.11242190334E+03  0.41800000000E+01 0.  1.
         -5    1    4    4    0  501  0.46055603515E+02  0.15568166165E+02 -0.23964117816E+02  0.54362098521E+02  0.41800000000E+01 0.  1.
</event>
<event>
11    1  0.6930157E-009  0.1554823E+03  0.7561462E-02  0.1091405E+00
         22   -1    0    0    0    0  0.00000000000E+00  0.00000000000E+00  0.28535167716E+04  0.28535167716E+04  0.00000000000E+00 0.  1.
         22   -1    0    0    0    0 -0.00000000000E+00 -0.00000000000E+00 -0.49884057477E+03  0.49884057477E+03  0.00000000000E+00 0. -1.
        -24    2    1    2    0    0  0.46633960708E+02  0.75814066476E+02 -0.42291836140E+03  0.44016198219E+03  0.83427400737E+02 0.  0.
         25    2    1    2    0    0 -0.75366845386E+02 -0.12557684363E+03  0.73256900493E+02  0.20606508213E+03  0.12508612859E+03 0.  0.
         24    2    1    2    0    0  0.28732884678E+02  0.49762777150E+02  0.27043376578E+04  0.27061302821E+04  0.79981395772E+02 0.  0.
        -13    1    5    5    0    0  0.30053788745E+02  0.45659742735E+02  0.26974581162E+04  0.26980119219E+04  0.00000000000E+00 0.  1.
         14    1    5    5    0    0 -0.13209040672E+01  0.41030344153E+01  0.68795415982E+01  0.81183601527E+01  0.00000000000E+00 0. -1.
         13    1    3    3    0    0  0.27471859075E+02  0.66147110976E+02 -0.14813957939E+03  0.16454628016E+03  0.00000000000E+00 0. -1.
        -14    1    3    3    0    0  0.19162101633E+02  0.96669555006E+01 -0.27477878200E+03  0.27561570203E+03  0.00000000000E+00 0.  1.
          5    1    4    4  501    0 -0.43776064926E+02  0.10600012509E+02  0.44157175613E+02  0.63214181034E+02  0.41800000000E+01 0.  1.
         -5    1    4    4    0  501 -0.31590780460E+02 -0.13617685614E+03  0.29099724880E+02  0.14285090110E+03  0.41800000000E+01 0.  1.
</event>
<event>
11    1  0.6930157E-009  0.1599769E+03  0.7561462E-02  0.1087099E+00
         22   -1    0    0    0    0  0.00000000000E+00  0.00000000000E+00  0.23127598845E+03  0.23127598845E+03  0.00000000000E+00 0. -1.
         22   -1    0    0    0    0 -0.00000000000E+00 -0.00000000000E+00 -0.30843378661E+03  0.30843378661E+03  0.00000000000E+00 0. -1.
        -24    2    1    2    0    0  0.48725942403E+02 -0.80385128538E+02 -0.14994332179E+03  0.19448451222E+03  0.80655064259E+02 0.  0.
         25    2    1    2    0    0 -0.49167398645E+02  0.10408870085E+03 -0.66897582062E+02  0.18267369496E+03  0.12506998685E+03 0.  0.
         24    2    1    2    0    0  0.44145624213E+00 -0.23703572311E+02  0.13968310570E+03  0.16255156788E+03  0.79684301965E+02 0.  0.
        -11    1    5    5    0    0  0.36629941129E+02 -0.46536568791E+01  0.95281356074E+02  0.10218584014E+03  0.00000000000E+00 0.  1.
         12    1    5    5    0    0 -0.36188484887E+02 -0.19049915432E+02  0.44401749623E+02  0.60365727743E+02  0.00000000000E+00 0. -1.
         11    1    3    3    0    0  0.26636909507E+02 -0.63840198369E+02 -0.15180579860E+03  0.16682354860E+03  0.00000000000E+00 0. -1.
        -12    1    3    3    0    0  0.22089032896E+02 -0.16544930169E+02  0.18624768180E+01  0.27660963622E+02  0.00000000000E+00 0.  1.
          5    1    4    4  501    0 -0.33564087587E+01  0.26982648253E+02  0.36517831514E+02  0.45720380631E+02  0.41800000000E+01 0.  1.
         -5    1    4    4    0  501 -0.45810989887E+02  0.77106052596E+02 -0.10341541358E+03  0.13695331433E+03  0.41800000000E+01 0.  1.
</event>
<event>
11    1  0.6930157E-009  0.1657180E+03  0.7561462E-02  0.1081819E+00
         22   -1    0    0    0    0  0.00000000000E+00  0.00000000000E+00  0.19495775361E+03  0.19495775361E+03  0.00000000000E+00 0. -1.
         22   -1    0    0    0    0 -0.00000000000E+00 -0.00000000000E+00 -0.56878516771E+03  0.56878516771E+03  0.00000000000E+00 0. -1.
        -24    2    1    2    0    0  0.25461867757E+01 -0.38861229650E+00 -0.42975909969E+03  0.43720027400E+03  0.80278027728E+02 0.  0.
         25    2    1    2    0    0  0.10584997862E+03 -0.14886276870E+02 -0.23701935489E+02  0.16623630119E+03  0.12508759680E+03 0.  0.
         24    2    1    2    0    0 -0.10839616540E+03  0.15274889167E+02  0.79633621066E+02  0.16030634614E+03  0.85869436332E+02 0.  0.
        -11    1    5    5    0    0  0.11800876748E+02 -0.15387970631E-01 -0.46771083192E+01  0.12693946236E+02  0.00000000000E+00 0.  1.
         12    1    5    5    0    0 -0.12019704214E+03  0.15290277138E+02  0.84310729385E+02  0.14761239990E+03  0.00000000000E+00 0. -1.
         13    1    3    3    0    0 -0.48042101048E+01 -0.34064770145E+02 -0.32720520239E+03  0.32900871336E+03  0.00000000000E+00 0. -1.
        -14    1    3    3    0    0  0.73503968805E+01  0.33676157849E+02 -0.10255389730E+03  0.10819156064E+03  0.00000000000E+00 0.  1.
          5    1    4    4  501    0  0.68532885953E+02 -0.60785916612E+02  0.18372781959E+02  0.93523877338E+02  0.41800000000E+01 0. -1.
         -5    1    4    4    0  501  0.37317092667E+02  0.45899639742E+02 -0.42074717448E+02  0.72712423848E+02  0.41800000000E+01 0. -1.
</event>
<event>
11    1  0.6930157E-009  0.1358392E+03  0.7561462E-02  0.1112296E+00
         22   -1    0    0    0    0  0.00000000000E+00  0.00000000000E+00  0.18478874097E+03  0.18478874097E+03  0.00000000000E+00 0. -1.
         22   -1    0    0    0    0 -0.00000000000E+00 -0.00000000000E+00 -0.58012922003E+03  0.58012922003E+03  0.00000000000E+00 0. -1.
         24    2    1    2    0    0 -0.33941146071E+02 -0.41008930077E+02 -0.43125512401E+03  0.44183940884E+03  0.80045908577E+02 0.  0.
         25    2    1    2    0    0 -0.13611335570E+02  0.66336429174E+02 -0.86744179934E+02  0.16660167321E+03  0.12508307029E+03 0.  0.
        -24    2    1    2    0    0  0.47552481642E+02 -0.25327499097E+02  0.12265882488E+03  0.15647687895E+03  0.80852369187E+02 0.  0.
        -13    1    3    3    0    0 -0.17081958703E+01 -0.43693208188E+01  0.25217534737E+01  0.53261748123E+01  0.00000000000E+00 0.  1.
         14    1    3    3    0    0 -0.32232950201E+02 -0.36639609259E+02 -0.43377687748E+03  0.43651323403E+03  0.00000000000E+00 0. -1.
         11    1    5    5    0    0  0.41298652107E+02 -0.28044599925E+02  0.13413755698E+03  0.14312568757E+03  0.00000000000E+00 0. -1.
        -12    1    5    5    0    0  0.62538295346E+01  0.27171008280E+01 -0.11478732094E+02  0.13351191379E+02  0.00000000000E+00 0.  1.
          5    1    4    4  501    0 -0.41431210294E+02  0.92094899731E+02 -0.46833846645E+02  0.11139523030E+03  0.41800000000E+01 0.  1.
         -5    1    4    4    0  501  0.27819874724E+02 -0.25758470557E+02 -0.39910333289E+02  0.55206442905E+02  0.41800000000E+01 0.  1.
</event>
<event>
11    1  0.6930157E-009  0.1320851E+03  0.7561462E-02  0.1116733E+00
         22   -1    0    0    0    0  0.00000000000E+00  0.00000000000E+00  0.32217129003E+03  0.32217129003E+03  0.00000000000E+00 0.  1.
         22   -1    0    0    0    0 -0.00000000000E+00 -0.00000000000E+00 -0.29714846541E+04  0.29714846541E+04  0.00000000000E+00 0. -1.
        -24    2    1    2    0    0  0.24149032234E+02  0.34715470882E+02 -0.28045788531E+04  0.28065427393E+04  0.96079468094E+02 0.  0.
         25    2    1    2    0    0 -0.46089330870E+02 -0.23975179291E+02 -0.13110023719E+03  0.18850308593E+03  0.12508839104E+03 0.  0.
         24    2    1    2    0    0  0.21940298636E+02 -0.10740291591E+02  0.28636572624E+03  0.29861011895E+03  0.81030509085E+02 0.  0.
        -13    1    5    5    0    0  0.41762843072E+00  0.20402424848E+01  0.26688097964E+03  0.26688910487E+03  0.00000000000E+00 0.  1.
         14    1    5    5    0    0  0.21522670206E+02 -0.12780534076E+02  0.19484746603E+02  0.31721014080E+02  0.00000000000E+00 0. -1.
         13    1    3    3    0    0 -0.18287812957E+02  0.21010950814E+02 -0.22504379843E+04  0.22506103672E+04  0.00000000000E+00 0. -1.
        -14    1    3    3    0    0  0.42436845191E+02  0.13704520068E+02 -0.55414086889E+03  0.55593237203E+03  0.00000000000E+00 0.  1.
          5    1    4    4  501    0 -0.55771882752E+02 -0.68766548247E+02 -0.95723476068E+02  0.13045994532E+03  0.41800000000E+01 0.  1.
         -5    1    4    4    0  501  0.96825518812E+01  0.44791368956E+02 -0.35376761117E+02  0.58043140603E+02  0.41800000000E+01 0.  1.
</event>
<event>
11    1  0.6930157E-009  0.1341501E+03  0.7561462E-02  0.1114272E+00
         22   -1    0    0    0    0  0.00000000000E+00  0.00000000000E+00  0.51255336383E+03  0.51255336383E+03  0.00000000000E+00 0.  1.
         22   -1    0    0    0    0 -0.00000000000E+00 -0.00000000000E+00 -0.40329744959E+03  0.40329744959E+03  0.00000000000E+00 0.  1.
         24    2    1    2    0    0 -0.33348642318E+02 -0.32164312273E+02 -0.31359161560E+03  0.32673509710E+03  0.79179841996E+02 0.  0.
         25    2    1    2    0    0  0.64516734235E+02  0.33164511869E+02 -0.12540167157E+02  0.14514806104E+03  0.12509360490E+03 0.  0.
        -24    2    1    2    0    0 -0.31168091918E+02 -0.10001995970E+01  0.43538769700E+03  0.44396765528E+03  0.81070228108E+02 0.  0.
        -13    1    3    3    0    0 -0.56893208923E+02 -0.31399132966E+02 -0.26329018208E+03  0.27119082350E+03  0.00000000000E+00 0.  1.
         14    1    3    3    0    0  0.23544566606E+02 -0.76517930695E+00 -0.50301433519E+02  0.55544273603E+02  0.00000000000E+00 0. -1.
         13    1    5    5    0    0 -0.32927717648E+02 -0.32288765913E+02  0.15171875360E+03  0.15857294595E+03  0.00000000000E+00 0. -1.
        -14    1    5    5    0    0  0.17596257307E+01  0.31288566316E+02  0.28366894340E+03  0.28539470933E+03  0.00000000000E+00 0.  1.
          5    1    4    4  501    0  0.85206482532E+02 -0.12937184843E+02  0.14797149845E+02  0.87543951594E+02  0.41800000000E+01 0.  1.
         -5    1    4    4    0  501 -0.20689748296E+02  0.46101696713E+02 -0.27337317002E+02  0.57604109447E+02  0.41800000000E+01 0.  1.
</event>
<event>
11    1  0.6930157E-009  0.2239596E+03  0.7561462E-02  0.1038765E+00
         22   -1    0    0    0    0  0.00000000000E+00  0.00000000000E+00  0.11893114742E+04  0.11893114742E+04  0.00000000000E+00 0.  1.
         22   -1    0    0    0    0 -0.00000000000E+00 -0.00000000000E+00 -0.10677547480E+04  0.10677547480E+04  0.00000000000E+00 0.  1.
         24    2    1    2    0    0 -0.38527278497E+02 -0.31142430208E+02 -0.99362474633E+03  0.99828708816E+03  0.82660581411E+02 0.  0.
         25    2    1    2    0    0  0.10339826501E+03 -0.14525939491E+03  0.13169892099E+03  0.25452512760E+03  0.12508773629E+03 0.  0.
        -24    2    1    2    0    0 -0.64870986510E+02  0.17640182512E+03  0.98348255149E+03  0.10042540064E+04  0.77216134815E+02 0.  0.
        -11    1    3    3    0    0 -0.37748343132E+02 -0.27488977723E+02 -0.99345059152E+03  0.99454746448E+03  0.00000000000E+00 0.  1.
         12    1    3    3    0    0 -0.77893536477E+00 -0.36534524852E+01 -0.17415480602E+00  0.37396236790E+01  0.00000000000E+00 0. -1.
         11    1    5    5    0    0 -0.15933550056E+02 -0.38635216844E+01  0.76716903350E+02  0.78449270722E+02  0.00000000000E+00 0. -1.
        -12    1    5    5    0    0 -0.48937436454E+02  0.18026534680E+03  0.90676564814E+03  0.92580473567E+03  0.00000000000E+00 0.  1.
          5    1    4    4  501    0  0.88527801499E+01 -0.54410082563E+02  0.10784244747E+03  0.12118702355E+03  0.41800000000E+01 0.  1.
         -5    1    4    4    0  501  0.94545484857E+02 -0.90849312349E+02  0.23856473520E+02  0.13333810404E+03  0.41800000000E+01 0.  1.
</event>
<event>
11    1  0.6930157E-009  0.1554812E+03  0.7561462E-02  0.1091406E+00
         22   -1    0    0    0    0  0.00000000000E+00  0.00000000000E+00  0.11371069313E+04  0.11371069313E+04  0.00000000000E+00 0.  1.
         22   -1    0    0    0    0 -0.00000000000E+00 -0.00000000000E+00 -0.43272593793E+03  0.43272593793E+03  0.00000000000E+00 0.  1.
        -24    2    1    2    0    0 -0.75415363039E+02 -0.29894369696E+00 -0.21727070697E+03  0.24303589180E+03  0.78564102807E+02 0.  0.
         25    2    1    2    0    0 -0.16313538869E+01 -0.52508350324E+02 -0.17601228279E+03  0.22223092474E+03  0.12508585870E+03 0.  0.
         24    2    1    2    0    0  0.77046716926E+02  0.52807294021E+02  0.10976639831E+04  0.11045660527E+04  0.80468242241E+02 0.  0.
        -11    1    5    5    0    0  0.73712775227E+02  0.68912450812E+02  0.10300344307E+04  0.10349654234E+04  0.00000000000E+00 0.  1.
         12    1    5    5    0    0  0.33339416990E+01 -0.16105156791E+02  0.67629552407E+02  0.69600629317E+02  0.00000000000E+00 0. -1.
         11    1    3    3    0    0 -0.85252721258E+02 -0.16414206282E+02 -0.15154456757E+03  0.17465167795E+03  0.00000000000E+00 0. -1.
        -12    1    3    3    0    0  0.98373582193E+01  0.16115262585E+02 -0.65726139398E+02  0.68384213858E+02  0.00000000000E+00 0.  1.
          5    1    4    4  501    0 -0.56641608172E+02 -0.52156637972E+02 -0.12623885589E+03  0.14792669738E+03  0.41800000000E+01 0. -1.
         -5    1    4    4    0  501  0.55010254285E+02 -0.35171235200E+00 -0.49773426898E+02  0.74304227358E+02  0.41800000000E+01 0. -1.
</event>
<event>
11    1  0.6930157E-009  0.2271972E+03  0.7561462E-02  0.1036800E+00
         22   -1    0    0    0    0  0.00000000000E+00  0.00000000000E+00  0.38124710329E+03  0.38124710329E+03  0.00000000000E+00 0.  1.
         22   -1    0    0    0    0 -0.00000000000E+00 -0.00000000000E+00 -0.27081128043E+03  0.27081128043E+03  0.00000000000E+00 0. -1.
         24    2    1    2    0    0 -0.41365757563E+02  0.23484443410E+03 -0.44519601284E+02  0.25542846212E+03  0.79991688540E+02 0.  0.
         25    2    1    2    0    0 -0.66485822246E+02 -0.13201005681E+03  0.64084540653E+02  0.20396420611E+03  0.12509016495E+03 0.  0.
        -24    2    1    2    0    0  0.10785157981E+03 -0.10283437730E+03  0.90870883486E+02  0.19266571549E+03  0.81582400296E+02 0.  0.
        -13    1    3    3    0    0  0.17477958925E+02  0.82222734673E+02 -0.36549185793E+02  0.91661879358E+02  0.00000000000E+00 0.  1.
         14    1    3    3    0    0 -0.58843716488E+02  0.15262169943E+03 -0.79704154909E+01  0.16376658276E+03  0.00000000000E+00 0. -1.
         11    1    5    5    0    0  0.10662288840E+03 -0.59297185941E+02  0.46705595134E+02  0.13063693661E+03  0.00000000000E+00 0. -1.
        -12    1    5    5    0    0  0.12286914121E+01 -0.43537191355E+02  0.44165288352E+02  0.62028778876E+02  0.00000000000E+00 0.  1.
          5    1    4    4  501    0  0.51046132931E+01 -0.12040915366E+03  0.33606257513E+02  0.12518496038E+03  0.41800000000E+01 0. -1.
         -5    1    4    4    0  501 -0.71590435539E+02 -0.11600903147E+02  0.30478283141E+02  0.78779245730E+02  0.41800000000E+01 0. -1.
</event>
<event>
11    1  0.6930157E-009  0.1393706E+03  0.7561462E-02  0.1108263E+00
         22   -1    0    0    0    0  0.00000000000E+00  0.00000000000E+00  0.11125361327E+04  0.11125361327E+04  0.00000000000E+00 0.  1.
         22   -1    0    0    0    0 -0.00000000000E+00 -0.00000000000E+00 -0.90762212171E+03  0.90762212171E+03  0.00000000000E+00 0. -1.
        -24    2    1    2    0    0  0.61067782372E+02 -0.64298389853E+01 -0.85971668922E+03  0.86652896973E+03  0.89381501386E+02 0.  0.
         25    2    1    2    0    0 -0.67949777962E+02 -0.34427059321E+02  0.83821499720E+02  0.16873801338E+03  0.12507629114E+03 0.  0.
         24    2    1    2    0    0  0.68819955895E+01  0.40856898306E+02  0.98080920046E+03  0.98489127127E+03  0.79419648210E+02 0.  0.
        -13    1    5    5    0    0 -0.14291262124E+02  0.29763611982E+02  0.90038168193E+03  0.90098684004E+03  0.00000000000E+00 0.  1.
         14    1    5    5    0    0  0.21173257713E+02  0.11093286324E+02  0.80427518529E+02  0.83904431232E+02  0.00000000000E+00 0. -1.
         13    1    3    3    0    0  0.48207338687E+02 -0.27088342493E+02 -0.80184234170E+03  0.80374676780E+03  0.00000000000E+00 0. -1.
        -14    1    3    3    0    0  0.12860443686E+02  0.20658503508E+02 -0.57874347519E+02  0.62782201935E+02  0.00000000000E+00 0.  1.
          5    1    4    4  501    0 -0.68501209880E+02 -0.95398354032E+01  0.11150186234E+03  0.13127666175E+03  0.41800000000E+01 0.  1.
         -5    1    4    4    0  501  0.55143191795E+00 -0.24887223918E+02 -0.27680362618E+02  0.37461351632E+02  0.41800000000E+01 0.  1.
</event>
<event>
11    1  0.6930157E-009  0.2772096E+03  0.7561462E-02  0.1010326E+00
         22   -1    0    0    0    0  0.00000000000E+00  0.00000000000E+00  0.75822324485E+03  0.75822324485E+03  0.00000000000E+00 0.  1.
         22   -1    0    0    0    0 -0.00000000000E+00 -0.00000000000E+00 -0.56410816007E+03  0.56410816007E+03  0.00000000000E+00 0.  1.
        -24    2    1    2    0    0 -0.16331082083E+02 -0.48424078111E+02 -0.39023184440E+03  0.40172750908E+03  0.80576073315E+02 0.  0.
         25    2    1    2    0    0 -0.52948463823E+02 -0.19777396872E+03 -0.38095522762E+02  0.24293721998E+03  0.12509652863E+03 0.  0.
         24    2    1    2    0    0  0.69279545906E+02  0.24619804683E+03  0.62244245194E+03  0.67766667585E+03  0.79902339375E+02 0.  0.
        -13    1    5    5    0    0  0.50898502485E+02  0.24121895815E+03  0.54930676201E+03  0.60209232026E+03  0.00000000000E+00 0.  1.
         14    1    5    5    0    0  0.18381043422E+02  0.49790886775E+01  0.73135689926E+02  0.75574355586E+02  0.00000000000E+00 0. -1.
         13    1    3    3    0    0  0.17629025543E+02  0.13255750529E+02 -0.14200050793E+03  0.14370331143E+03  0.00000000000E+00 0. -1.
        -14    1    3    3    0    0 -0.33960107625E+02 -0.61679828639E+02 -0.24823133647E+03  0.25802419765E+03  0.00000000000E+00 0.  1.
          5    1    4    4  501    0 -0.12309641879E+02 -0.35972992689E+02  0.42870662698E+02  0.57453891133E+02  0.41800000000E+01 0.  1.
         -5    1    4    4    0  501 -0.40638821944E+02 -0.16180097603E+03 -0.80966185460E+02  0.18548332885E+03  0.41800000000E+01 0.  1.
</event>
<event>
11    1  0.6930157E-009  0.1393726E+03  0.7561462E-02  0.1108261E+00
         22   -1    0    0    0    0  0.00000000000E+00  0.00000000000E+00  0.37087423891E+03  0.37087423891E+03  0.00000000000E+00 0.  1.
         22   -1    0    0    0    0 -0.00000000000E+00 -0.00000000000E+00 -0.14010990896E+04  0.14010990896E+04  0.00000000000E+00 0. -1.
        -24    2    1    2    0    0  0.30000735313E+01 -0.14908860874E+02 -0.13468821441E+04  0.13491537026E+04  0.76765412264E+02 0.  0.
         25    2    1    2    0    0  0.53958862590E+02 -0.12415416179E+02  0.66234401358E+02  0.15198772803E+03  0.12509025596E+03 0.  0.
         24    2    1    2    0    0 -0.56958936122E+02  0.27324277053E+02  0.25042289206E+03  0.27083189790E+03  0.81531316253E+02 0.  0.
        -13    1    5    5    0    0  0.18161637385E+02 -0.13054710455E+01  0.84756495952E+02  0.86690327795E+02  0.00000000000E+00 0.  1.
         14    1    5    5    0    0 -0.75120573506E+02  0.28629748098E+02  0.16566639611E+03  0.18414157010E+03  0.00000000000E+00 0. -1.
         11    1    3    3    0    0  0.27834858183E+02 -0.50041020360E+01 -0.11624132515E+04  0.11627572350E+04  0.00000000000E+00 0. -1.
        -12    1    3    3    0    0 -0.24834784651E+02 -0.99047588378E+01 -0.18446889266E+03  0.18639646760E+03  0.00000000000E+00 0.  1.
          5    1    4    4  501    0  0.31827789653E+01 -0.57262625216E+02  0.50800830515E+00  0.57505380627E+02  0.41800000000E+01 0. -1.
         -5    1    4    4    0  501  0.50776083625E+02  0.44847209037E+02  0.65726393053E+02  0.94482347401E+02  0.41800000000E+01 0. -1.
</event>
<event>
11    1  0.6930157E-009  0.1421723E+03  0.7561462E-02  0.1105157E+00
         22   -1    0    0    0    0  0.00000000000E+00  0.00000000000E+00  0.16094755642E+04  0.16094755642E+04  0.00000000000E+00 0. -1.
         22   -1    0    0    0    0 -0.00000000000E+00 -0.00000000000E+00 -0.58346979442E+03  0.58346979442E+03  0.00000000000E+00 0.  1.
        -24    2    1    2    0    0  0.20479952774E+02  0.25228801743E+02 -0.52036234073E+03  0.52757361209E+03  0.80628962640E+02 0.  0.
         25    2    1    2    0    0  0.60158513247E+01 -0.86845711355E+02  0.43165103834E+02  0.15840059710E+03  0.12509658239E+03 0.  0.
         24    2    1    2    0    0 -0.26495804099E+02  0.61616909612E+02  0.15032030066E+04  0.15069711494E+04  0.82729044177E+02 0.  0.
        -13    1    5    5    0    0  0.21144252232E+02  0.47549702695E+02  0.54417214001E+03  0.54665470966E+03  0.00000000000E+00 0.  1.
         14    1    5    5    0    0 -0.47640056332E+02  0.14067206917E+02  0.95903086663E+03  0.96031643974E+03  0.00000000000E+00 0. -1.
         11    1    3    3    0    0  0.15248037275E+01  0.27969091762E+02 -0.54128932402E+02  0.60946997001E+02  0.00000000000E+00 0. -1.
        -12    1    3    3    0    0  0.18955149047E+02 -0.27402900196E+01 -0.46623340833E+03  0.46662661509E+03  0.00000000000E+00 0.  1.
          5    1    4    4  501    0  0.32579518446E+02 -0.22816403758E+02  0.72668235168E+02  0.82946718470E+02  0.41800000000E+01 0.  1.
         -5    1    4    4    0  501 -0.26563667121E+02 -0.64029307597E+02 -0.29503131334E+02  0.75453878633E+02  0.41800000000E+01 0.  1.
</event>
<event>
11    1  0.6930157E-009  0.2606171E+03  0.7561462E-02  0.1018391E+00
         22   -1    0    0    0    0  0.00000000000E+00  0.00000000000E+00  0.29572974546E+04  0.29572974546E+04  0.00000000000E+00 0. -1.
         22   -1    0    0    0    0 -0.00000000000E+00 -0.00000000000E+00 -0.28057591199E+03  0.28057591199E+03  0.00000000000E+00 0. -1.
        -24    2    1    2    0    0  0.18559665872E+02 -0.11079650052E+02 -0.17256232234E+03  0.19118056982E+03  0.79404252674E+02 0.  0.
         25    2    1    2    0    0  0.88277284682E+02 -0.19217839279E+03  0.68207741936E+02  0.25500030657E+03  0.12508975436E+03 0.  0.
         24    2    1    2    0    0 -0.10683695055E+03  0.20325804285E+03  0.27810761230E+04  0.27916924902E+04  0.80215907074E+02 0.  0.
        -11    1    5    5    0    0 -0.57831517661E+02  0.46453582465E+02  0.62997253951E+03  0.63432469627E+03  0.00000000000E+00 0.  1.
         12    1    5    5    0    0 -0.49005432893E+02  0.15680446038E+03  0.21511035835E+04  0.21573677939E+04  0.00000000000E+00 0. -1.
         13    1    3    3    0    0  0.39637106381E+02 -0.28658603856E+02 -0.72753567290E+02  0.87666968298E+02  0.00000000000E+00 0. -1.
        -14    1    3    3    0    0 -0.21077440509E+02  0.17578953803E+02 -0.99808755054E+02  0.10351360153E+03  0.00000000000E+00 0.  1.
          5    1    4    4  501    0  0.11385481742E+03 -0.17116751989E+03  0.36227780101E+02  0.20878497016E+03  0.41800000000E+01 0.  1.
         -5    1    4    4    0  501 -0.25577532735E+02 -0.21010872907E+02  0.31979961834E+02  0.46215336416E+02  0.41800000000E+01 0.  1.
</event>
<event>
11    1  0.6930157E-009  0.2165466E+03  0.7561462E-02  0.1043403E+00
         22   -1    0    0    0    0  0.00000000000E+00  0.00000000000E+00  0.29190733390E+03  0.29190733390E+03  0.00000000000E+00 0. -1.
         22   -1    0    0    0    0 -0.00000000000E+00 -0.00000000000E+00 -0.14161036767E+04  0.14161036767E+04  0.00000000000E+00 0.  1.
         24    2    1    2    0    0 -0.12969231193E+02  0.14947416723E+03 -0.61222862541E+03  0.63529878125E+03  0.79182852081E+02 0.  0.
         25    2    1    2    0    0  0.18346810621E+03 -0.18685753494E+03 -0.72746360870E+03  0.78321589691E+03  0.12509018676E+03 0.  0.
        -24    2    1    2    0    0 -0.17049887502E+03  0.37383367701E+02  0.21549589133E+03  0.28949633243E+03  0.83079869676E+02 0.  0.
        -11    1    3    3    0    0 -0.38848105037E+02  0.55094402262E+02 -0.32306968969E+03  0.33002816974E+03  0.00000000000E+00 0.  1.
         12    1    3    3    0    0  0.25878873844E+02  0.94379764972E+02 -0.28915893572E+03  0.30527061151E+03  0.00000000000E+00 0. -1.
         11    1    5    5    0    0 -0.33615039779E+02  0.78301424406E+01  0.10675747605E+03  0.11219822067E+03  0.00000000000E+00 0. -1.
        -12    1    5    5    0    0 -0.13688383524E+03  0.29553225261E+02  0.10873841528E+03  0.17729811175E+03  0.00000000000E+00 0.  1.
          5    1    4    4  501    0  0.14168777545E+03 -0.16598802560E+03 -0.68843106608E+03  0.72220651859E+03  0.41800000000E+01 0.  1.
         -5    1    4    4    0  501  0.41780330768E+02 -0.20869509339E+02 -0.39032542626E+02  0.61009378320E+02  0.41800000000E+01 0.  1.
</event>
<event>
11    1  0.6930157E-009  0.1271252E+03  0.7561462E-02  0.1122853E+00
         22   -1    0    0    0    0  0.00000000000E+00  0.00000000000E+00  0.12048055062E+04  0.12048055062E+04  0.00000000000E+00 0. -1.
         22   -1    0    0    0    0 -0.00000000000E+00 -0.00000000000E+00 -0.28390326728E+03  0.28390326728E+03  0.00000000000E+00 0.  1.
        -24    2    1    2    0    0  0.13588009382E+02 -0.20197312952E+02 -0.25231959283E+03  0.26478546432E+03  0.76508821326E+02 0.  0.
         25    2    1    2    0    0 -0.72697949436E+01 -0.32358417948E+01  0.14262342986E+03  0.18986844259E+03  0.12508102237E+03 0.  0.
         24    2    1    2    0    0 -0.63182144387E+01  0.23433154746E+02  0.10305984018E+04  0.10340548665E+04  0.80915811260E+02 0.  0.
        -11    1    5    5    0    0 -0.13150715313E+02  0.37098318409E+02  0.23234784351E+03  0.23565811449E+03  0.00000000000E+00 0.  1.
         12    1    5    5    0    0  0.68325008745E+01 -0.13665163663E+02  0.79825055834E+03  0.79839675204E+03  0.00000000000E+00 0. -1.
         11    1    3    3    0    0  0.25109351625E+02 -0.96802069840E+01 -0.24378266618E+02  0.36310960185E+02  0.00000000000E+00 0. -1.
        -12    1    3    3    0    0 -0.11521342243E+02 -0.10517105968E+02 -0.22794132621E+03  0.22847450414E+03  0.00000000000E+00 0.  1.
          5    1    4    4  501    0 -0.65071863219E+02 -0.12272381419E+02  0.68810850886E+02  0.95589561816E+02  0.41800000000E+01 0. -1.
         -5    1    4    4    0  501  0.57802068275E+02  0.90365396238E+01  0.73812578970E+02  0.94278880771E+02  0.41800000000E+01 0. -1.
</event>
<event>
11    1  0.6930157E-009  0.1439706E+03  0.7561462E-02  0.1103204E+00
         22   -1    0    0    0    0  0.00000000000E+00  0.00000000000E+00  0.79363651357E+03  0.79363651357E+03  0.00000000000E+00 0.  1.
         22   -1    0    0    0    0 -0.00000000000E+00 -0.00000000000E+00 -0.64519305826E+03  0.64519305826E+03  0.00000000000E+00 0.  1.
         24    2    1    2    0    0 -0.67165814248E+02  0.34524714634E+02 -0.49853958783E+03  0.51050767718E+03  0.79832106939E+02 0.  0.
         25    2    1    2    0    0  0.52619168253E+02 -0.49891727552E+00 -0.10481967863E+03  0.17147559596E+03  0.12509072386E+03 0.  0.
        -24    2    1    2    0    0  0.14546645995E+02 -0.34025797359E+02  0.75180272177E+03  0.75684629870E+03  0.78991313430E+02 0.  0.
        -11    1    3    3    0    0 -0.18779634532E+02  0.53808974982E+02 -0.29127526230E+03  0.29679851565E+03  0.00000000000E+00 0.  1.
         12    1    3    3    0    0 -0.48386179716E+02 -0.19284260348E+02 -0.20726432553E+03  0.21370916153E+03  0.00000000000E+00 0. -1.
         11    1    5    5    0    0  0.37758656110E+02 -0.45352686449E+02  0.43366709197E+03  0.43766394521E+03  0.00000000000E+00 0. -1.
        -12    1    5    5    0    0 -0.23212010116E+02  0.11326889090E+02  0.31813562980E+03  0.31918235349E+03  0.00000000000E+00 0.  1.
          5    1    4    4  501    0  0.83307271457E+02  0.28163505091E+02 -0.92080887434E+02  0.12739563072E+03  0.41800000000E+01 0.  1.
         -5    1    4    4    0  501 -0.30688103204E+02 -0.28662422366E+02 -0.12738791196E+02  0.44079965237E+02  0.41800000000E+01 0.  1.
</event>
<event>
11    1  0.6930157E-009  0.3084414E+03  0.7561462E-02  0.9966806E-01
         22   -1    0    0    0    0  0.00000000000E+00  0.00000000000E+00  0.26484228649E+04  0.26484228649E+04  0.00000000000E+00 0. -1.
         22   -1    0    0    0    0 -0.00000000000E+00 -0.00000000000E+00 -0.64504095515E+03  0.64504095515E+03  0.00000000000E+00 0.  1.
         24    2    1    2    0    0  0.28065305174E+03 -0.65617466203E+02 -0.51857215421E+03  0.59873562692E+03  0.80594568697E+02 0.  0.
         25    2    1    2    0    0 -0.22824398644E+03  0.10173368078E+03  0.14412362230E+03  0.31442564196E+03  0.12508719625E+03 0.  0.
        -24    2    1    2    0    0 -0.52409065297E+02 -0.36116214579E+02  0.23778304417E+04  0.23803025512E+04  0.87815344427E+02 0.  0.
        -13    1    3    3    0    0  0.15646064172E+03 -0.75388480312E+02 -0.32610766632E+03  0.36947200896E+03  0.00000000000E+00 0.  1.
         14    1    3    3    0    0  0.12419241002E+03  0.97710141088E+01 -0.19246448788E+03  0.22926361796E+03  0.00000000000E+00 0. -1.
         11    1    5    5    0    0 -0.64902974700E+02 -0.53157153680E+02  0.20974069900E+04  0.20990841243E+04  0.00000000000E+00 0. -1.
        -12    1    5    5    0    0  0.12493909403E+02  0.17040939102E+02  0.28042345172E+03  0.28121842694E+03  0.00000000000E+00 0.  1.
          5    1    4    4  501    0 -0.16640488016E+03  0.12161365660E+03  0.74716728920E+02  0.21927272423E+03  0.41800000000E+01 0.  1.
         -5    1    4    4    0  501 -0.61839106278E+02 -0.19879975813E+02  0.69406893376E+02  0.95152917726E+02  0.41800000000E+01 0.  1.
</event>
<event>
11    1  0.6930157E-009  0.1632616E+03  0.7561462E-02  0.1084049E+00
         22   -1    0    0    0    0  0.00000000000E+00  0.00000000000E+00  0.61550066540E+03  0.61550066540E+03  0.00000000000E+00 0. -1.
         22   -1    0    0    0    0 -0.00000000000E+00 -0.00000000000E+00 -0.16892423870E+03  0.16892423870E+03  0.00000000000E+00 0. -1.
         24    2    1    2    0    0  0.90177271344E+02 -0.12782773891E+02 -0.43381559896E+02  0.14430040247E+03  0.10317609626E+03 0.  0.
         25    2    1    2    0    0 -0.13645337069E+03  0.28228525341E+02  0.54791067104E+02  0.19510498605E+03  0.12509005769E+03 0.  0.
        -24    2    1    2    0    0  0.46276099348E+02 -0.15445751450E+02  0.43516691950E+03  0.44501951558E+03  0.79322587036E+02 0.  0.
        -11    1    3    3    0    0 -0.23190678256E+01  0.25121031695E+02  0.14190715931E+02  0.28945133057E+02  0.00000000000E+00 0.  1.
         12    1    3    3    0    0  0.92496339170E+02 -0.37903805587E+02 -0.57572275828E+02  0.11535526941E+03  0.00000000000E+00 0. -1.
         13    1    5    5    0    0  0.60454431274E+02 -0.17518708491E+02  0.41775340333E+03  0.42246840048E+03  0.00000000000E+00 0. -1.
        -14    1    5    5    0    0 -0.14178331926E+02  0.20729570404E+01  0.17413516168E+02  0.22551115104E+02  0.00000000000E+00 0.  1.
          5    1    4    4  501    0 -0.61684831240E+02 -0.30603332063E+02 -0.22386136721E+02  0.72527193905E+02  0.41800000000E+01 0.  1.
         -5    1    4    4    0  501 -0.74768539451E+02  0.58831857404E+02  0.77177203824E+02  0.12257779215E+03  0.41800000000E+01 0.  1.
</event>
<event>
11    1  0.6930157E-009  0.1301897E+03  0.7561462E-02  0.1119036E+00
         22   -1    0    0    0    0  0.00000000000E+00  0.00000000000E+00  0.11011265981E+04  0.11011265981E+04  0.00000000000E+00 0. -1.
         22   -1    0    0    0    0 -0.00000000000E+00 -0.00000000000E+00 -0.32806561089E+02  0.32806561089E+02  0.00000000000E+00 0. -1.
         24    2    1    2    0    0  0.13362544937E+02 -0.37185497523E+01  0.62526477809E+02  0.10226345026E+03  0.79723695423E+02 0.  0.
         25    2    1    2    0    0 -0.20659459410E+01 -0.32429114144E+02  0.42267370282E+03  0.44199135463E+03  0.12508949970E+03 0.  0.
        -24    2    1    2    0    0 -0.11296598996E+02  0.36147663896E+02  0.58311985642E+03  0.58967835434E+03  0.79104537625E+02 0.  0.
        -11    1    3    3    0    0  0.34716513499E+02  0.26125214777E+02  0.40887394049E+02  0.59661898635E+02  0.00000000000E+00 0.  1.
         12    1    3    3    0    0 -0.21353968562E+02 -0.29843764530E+02  0.21639083761E+02  0.42601551622E+02  0.00000000000E+00 0. -1.
         13    1    5    5    0    0 -0.33074667962E+02  0.49438896183E+02  0.46801509096E+03  0.47177988881E+03  0.00000000000E+00 0. -1.
        -14    1    5    5    0    0  0.21778068966E+02 -0.13291232287E+02  0.11510476546E+03  0.11789846553E+03  0.00000000000E+00 0.  1.
          5    1    4    4  501    0 -0.22282400602E+01  0.19537732763E+02  0.35959403976E+03  0.36015556901E+03  0.41800000000E+01 0. -1.
         -5    1    4    4    0  501  0.16229411920E+00 -0.51966846907E+02  0.63079663062E+02  0.81835785625E+02  0.41800000000E+01 0. -1.
</event>
<event>
11    1  0.6930157E-009  0.1406463E+03  0.7561462E-02  0.1106839E+00
         22   -1    0    0    0    0  0.00000000000E+00  0.00000000000E+00  0.41068183504E+03  0.41068183504E+03  0.00000000000E+00 0. -1.
         22   -1    0    0    0    0 -0.00000000000E+00 -0.00000000000E+00 -0.24465567960E+04  0.24465567960E+04  0.00000000000E+00 0. -1.
         24    2    1    2    0    0 -0.27505600546E+02  0.22745342367E+02 -0.22699432066E+04  0.22715283009E+04  0.76972410468E+02 0.  0.
         25    2    1    2    0    0  0.30281678780E+02 -0.86011993588E+02 -0.13327207074E+03  0.20426422876E+03  0.12508951674E+03 0.  0.
        -24    2    1    2    0    0 -0.27760782343E+01  0.63266651220E+02  0.36734031636E+03  0.38144610139E+03  0.80943464675E+02 0.  0.
        -13    1    3    3    0    0  0.20477268457E+02 -0.50895764264E+01 -0.11672447303E+04  0.11674354298E+04  0.00000000000E+00 0.  1.
         14    1    3    3    0    0 -0.47982869002E+02  0.27834918794E+02 -0.11026984762E+04  0.11040928711E+04  0.00000000000E+00 0. -1.
         13    1    5    5    0    0 -0.34139563228E+02  0.61834336665E+02  0.23211681960E+03  0.24262566416E+03  0.00000000000E+00 0. -1.
        -14    1    5    5    0    0  0.31363484994E+02  0.14323145552E+01  0.13522349676E+03  0.13882043723E+03  0.00000000000E+00 0.  1.
          5    1    4    4  501    0  0.23392328716E+02  0.26662666389E+02 -0.59339407811E+02  0.69258476313E+02  0.41800000000E+01 0. -1.
         -5    1    4    4    0  501  0.68893500642E+01 -0.11267465998E+03 -0.73932662933E+02  0.13500575245E+03  0.41800000000E+01 0. -1.
</event>
<event>
11    1  0.6930157E-009  0.1355767E+03  0.7561462E-02  0.1112601E+00
         22   -1    0    0    0    0  0.00000000000E+00  0.00000000000E+00  0.16776892548E+04  0.16776892548E+04  0.00000000000E+00 0. -1.
         22   -1    0    0    0    0 -0.00000000000E+00 -0.00000000000E+00 -0.22589338615E+03  0.22589338615E+03  0.00000000000E+00 0.  1.
         24    2    1    2    0    0 -0.31457157610E+02 -0.11801530154E+01 -0.19648107615E+03  0.21470958081E+03  0.80650141219E+02 0.  0.
         25    2    1    2    0    0 -0.16824630544E+02  0.26362792260E+02  0.20388227811E+03  0.24123333691E+03  0.12508986570E+03 0.  0.
        -24    2    1    2    0    0  0.48281788154E+02 -0.25182639245E+02  0.14443946667E+04  0.14476397232E+04  0.80121899255E+02 0.  0.
        -11    1    3    3    0    0 -0.49077526706E+01 -0.29389888098E+02 -0.15545312279E+03  0.15828305324E+03  0.00000000000E+00 0.  1.
         12    1    3    3    0    0 -0.26549404940E+02  0.28209735082E+02 -0.41027953365E+02  0.56426527568E+02  0.00000000000E+00 0. -1.
         11    1    5    5    0    0  0.67727324751E+02 -0.21079750567E+02  0.12932942718E+04  0.12952379781E+04  0.00000000000E+00 0. -1.
        -12    1    5    5    0    0 -0.19445536597E+02 -0.41028886780E+01  0.15110039485E+03  0.15240174511E+03  0.00000000000E+00 0.  1.
          5    1    4    4  501    0  0.27747431073E+02  0.48224894917E+02  0.17492687268E+03  0.18360948670E+03  0.41800000000E+01 0. -1.
         -5    1    4    4    0  501 -0.44572061617E+02 -0.21862102657E+02  0.28955405430E+02  0.57623850210E+02  0.41800000000E+01 0. -1.
</event>
<event>
11    1  0.6930157E-009  0.1836353E+03  0.7561462E-02  0.1066740E+00
         22   -1    0    0    0    0  0.00000000000E+00  0.00000000000E+00  0.22894509358E+03  0.22894509358E+03  0.00000000000E+00 0.  1.
         22   -1    0    0    0    0 -0.00000000000E+00 -0.00000000000E+00 -0.56939161055E+03  0.56939161055E+03  0.00000000000E+00 0.  1.
         24    2    1    2    0    0  0.62954436139E+02  0.30230586506E+02 -0.30066921291E+03  0.31922727907E+03  0.81405962467E+02 0.  0.
         25    2    1    2    0    0 -0.27120951724E+02 -0.15787194613E+03 -0.18002729961E+03  0.27150731294E+03  0.12508914812E+03 0.  0.
        -24    2    1    2    0    0 -0.35833484415E+02  0.12764135963E+03  0.14024999555E+03  0.20760211212E+03  0.76499806600E+02 0.  0.
        -13    1    3    3    0    0  0.13334213705E+02  0.51539429871E+02 -0.15222716429E+03  0.16126755295E+03  0.00000000000E+00 0.  1.
         14    1    3    3    0    0  0.49620222433E+02 -0.21308843365E+02 -0.14844204861E+03  0.15795972612E+03  0.00000000000E+00 0. -1.
         11    1    5    5    0    0 -0.20188627200E+02  0.41715578917E+02  0.50129839332E+01  0.46614377616E+02  0.00000000000E+00 0. -1.
        -12    1    5    5    0    0 -0.15644857215E+02  0.85925780710E+02  0.13523701162E+03  0.16098773450E+03  0.00000000000E+00 0.  1.
          5    1    4    4  501    0 -0.68926515285E+02 -0.67432065293E+02 -0.53323200240E+02  0.11026687636E+03  0.41800000000E+01 0.  1.
         -5    1    4    4    0  501  0.41805563561E+02 -0.90439880841E+02 -0.12670409937E+03  0.16124043658E+03  0.41800000000E+01 0.  1.
</event>
<event>
11    1  0.6930157E-009  0.1440297E+03  0.7561462E-02  0.1103140E+00
         22   -1    0    0    0    0  0.00000000000E+00  0.00000000000E+00  0.11943835239E+04  0.11943835239E+04  0.00000000000E+00 0. -1.
         22   -1    0    0    0    0 -0.00000000000E+00 -0.00000000000E+00 -0.22961434508E+04  0.22961434508E+04  0.00000000000E+00 0.  1.
        -24    2    1    2    0    0  0.17269443658E+01  0.41352555376E+02 -0.22725213159E+04  0.22742784997E+04  0.79224660436E+02 0.  0.
         25    2    1    2    0    0 -0.15680397949E+02 -0.10555358719E+03  0.32575470551E+03  0.36489891773E+03  0.12509059657E+03 0.  0.
         24    2    1    2    0    0  0.13953453584E+02  0.64201031817E+02  0.84500668348E+03  0.85134955726E+03  0.80270182295E+02 0.  0.
        -11    1    5    5    0    0  0.90532186897E+01  0.27454398958E+02  0.73912632619E+02  0.79364866606E+02  0.00000000000E+00 0.  1.
         12    1    5    5    0    0  0.49002348940E+01  0.36746632859E+02  0.77109405086E+03  0.77198469065E+03  0.00000000000E+00 0. -1.
         11    1    3    3    0    0 -0.22584181044E+02  0.43634930459E+02 -0.77380991551E+03  0.77536819494E+03  0.00000000000E+00 0. -1.
        -12    1    3    3    0    0  0.24311125410E+02 -0.22823750824E+01 -0.14987114004E+04  0.14989103047E+04  0.00000000000E+00 0.  1.
          5    1    4    4  501    0  0.28147510657E+02  0.34154814586E+01  0.15487395107E+03  0.15750352691E+03  0.41800000000E+01 0.  1.
         -5    1    4    4    0  501 -0.43827908607E+02 -0.10896906865E+03  0.17088075444E+03  0.20739539082E+03  0.41800000000E+01 0.  1.
</event>
<event>
11    1  0.6930157E-009  0.1453585E+03  0.7561462E-02  0.1101718E+00
         22   -1    0    0    0    0  0.00000000000E+00  0.00000000000E+00  0.25105274440E+04  0.25105274440E+04  0.00000000000E+00 0. -1.
         22   -1    0    0    0    0 -0.00000000000E+00 -0.00000000000E+00 -0.67447513854E+03  0.67447513854E+03  0.00000000000E+00 0.  1.
         24    2    1    2    0    0 -0.50212559034E+02  0.71815288510E+01 -0.36926656560E+03  0.38167987724E+03  0.82151425893E+02 0.  0.
         25    2    1    2    0    0 -0.10992616334E+02 -0.49062516046E+02 -0.28274813758E+03  0.31324448741E+03  0.12509049322E+03 0.  0.
        -24    2    1    2    0    0  0.61205175367E+02  0.41880987195E+02  0.24880670087E+04  0.24900782179E+04  0.67171430439E+02 0.  0.
        -13    1    3    3    0    0 -0.39570846231E+02 -0.23937548084E+02 -0.31384808767E+03  0.31723726170E+03  0.00000000000E+00 0.  1.
         14    1    3    3    0    0 -0.10641712803E+02  0.31119076935E+02 -0.55418477936E+02  0.64442615539E+02  0.00000000000E+00 0. -1.
         11    1    5    5    0    0  0.12909651385E+02  0.49506850929E+02  0.12608346793E+04  0.12618722898E+04  0.00000000000E+00 0. -1.
        -12    1    5    5    0    0  0.48295523982E+02 -0.76258637335E+01  0.12272323294E+04  0.12282059281E+04  0.00000000000E+00 0.  1.
          5    1    4    4  501    0  0.47213250137E+02 -0.55360113204E+02 -0.12193034343E+03  0.14205039307E+03  0.41800000000E+01 0. -1.
         -5    1    4    4    0  501 -0.58205866471E+02  0.62975971581E+01 -0.16081779416E+03  0.17119409435E+03  0.41800000000E+01 0. -1.
</event>
<event>
11    1  0.6930157E-009  0.1281412E+03  0.7561462E-02  0.1121574E+00
         22   -1    0    0    0    0  0.00000000000E+00  0.00000000000E+00  0.13819183287E+03  0.13819183287E+03  0.00000000000E+00 0. -1.
         22   -1    0    0    0    0 -0.00000000000E+00 -0.00000000000E+00 -0.15347986719E+04  0.15347986719E+04  0.00000000000E+00 0.  1.
         24    2    1    2    0    0  0.27519600511E+02 -0.94368686801E+01 -0.13366279452E+04  0.13394720724E+04  0.82248319038E+02 0.  0.
         25    2    1    2    0    0 -0.67677885819E+01  0.47875040969E+01 -0.15991445079E+03  0.20319755633E+03  0.12509153516E+03 0.  0.
        -24    2    1    2    0    0 -0.20751811929E+02  0.46493645832E+01  0.99935556968E+02  0.13032087601E+03  0.80895988087E+02 0.  0.
        -13    1    3    3    0    0  0.22967308923E+02  0.26701068636E+02 -0.10428808304E+04  0.10434753810E+04  0.00000000000E+00 0.  1.
         14    1    3    3    0    0  0.45522915881E+01 -0.36137937316E+02 -0.29374711474E+03  0.29599669135E+03  0.00000000000E+00 0. -1.
         11    1    5    5    0    0 -0.76142443493E+01 -0.33439551744E+02  0.76190678479E+02  0.83553574579E+02  0.00000000000E+00 0. -1.
        -12    1    5    5    0    0 -0.13137567580E+02  0.38088916327E+02  0.23744878489E+02  0.46767301433E+02  0.00000000000E+00 0.  1.
          5    1    4    4  501    0  0.87245011410E+01  0.56957036879E+02 -0.12683881245E+03  0.13937638865E+03  0.41800000000E+01 0.  1.
         -5    1    4    4    0  501 -0.15492289723E+02 -0.52169532783E+02 -0.33075638340E+02  0.63821167673E+02  0.41800000000E+01 0.  1.
</event>
<event>
11    1  0.6930157E-009  0.1388814E+03  0.7561462E-02  0.1108814E+00
         22   -1    0    0    0    0  0.00000000000E+00  0.00000000000E+00  0.11747372091E+04  0.11747372091E+04  0.00000000000E+00 0.  1.
         22   -1    0    0    0    0 -0.00000000000E+00 -0.00000000000E+00 -0.80734843884E+03  0.80734843884E+03  0.00000000000E+00 0. -1.
        -24    2    1    2    0    0 -0.25262143587E+02  0.12589848707E+02 -0.78871891489E+03  0.79320699224E+03  0.79392226663E+02 0.  0.
         25    2    1    2    0    0  0.80543433304E+02 -0.65491432595E+01  0.40774310815E+03  0.43408698232E+03  0.12508768945E+03 0.  0.
         24    2    1    2    0    0 -0.55281289717E+02 -0.60407054472E+01  0.74836457700E+03  0.75479167338E+03  0.81045783246E+02 0.  0.
        -11    1    5    5    0    0 -0.46599272706E+02 -0.12594881793E+02  0.18110207868E+03  0.18742488139E+03  0.00000000000E+00 0.  1.
         12    1    5    5    0    0 -0.86820170111E+01  0.65541763462E+01  0.56726249832E+03  0.56736679199E+03  0.00000000000E+00 0. -1.
         11    1    3    3    0    0 -0.62265255409E+01 -0.21835805233E+01 -0.72582932601E+03  0.72585931704E+03  0.00000000000E+00 0. -1.
        -12    1    3    3    0    0 -0.19035618047E+02  0.14773429230E+02 -0.62889588879E+02  0.67347675201E+02  0.00000000000E+00 0.  1.
          5    1    4    4  501    0 -0.22760601294E+02 -0.15882121804E+01  0.14284634830E+02  0.27241339567E+02  0.41800000000E+01 0. -1.
         -5    1    4    4    0  501  0.10330403460E+03 -0.49609310791E+01  0.39345847332E+03  0.40684564276E+03  0.41800000000E+01 0. -1.
</event>
<event>
11    1  0.6930157E-009  0.1275658E+03  0.7561462E-02  0.1122297E+00
         22   -1    0    0    0    0  0.00000000000E+00  0.00000000000E+00  0.96555527268E+03  0.96555527268E+03  0.00000000000E+00 0. -1.
         22   -1    0    0    0    0 -0.00000000000E+00 -0.00000000000E+00 -0.44381432651E+03  0.44381432651E+03  0.00000000000E+00 0.  1.
        -24    2    1    2    0    0  0.19802888878E+02  0.14964422463E+02 -0.41501125826E+03  0.42343462577E+03  0.80289784375E+02 0.  0.
         25    2    1    2    0    0 -0.28072360691E+02 -0.16789397352E+02  0.16289946931E+03  0.20797738250E+03  0.12509361788E+03 0.  0.
         24    2    1    2    0    0  0.82694718130E+01  0.18249748891E+01  0.77385273512E+03  0.77795759091E+03  0.79361469942E+02 0.  0.
        -11    1    5    5    0    0 -0.51124158711E+01 -0.34826587204E+02  0.22681457412E+03  0.22952969090E+03  0.00000000000E+00 0.  1.
         12    1    5    5    0    0  0.13381887684E+02  0.36651562093E+02  0.54703816100E+03  0.54842790001E+03  0.00000000000E+00 0. -1.
         11    1    3    3    0    0  0.50213268601E+02  0.11742020301E+02 -0.30139899022E+03  0.30577867599E+03  0.00000000000E+00 0. -1.
        -12    1    3    3    0    0 -0.30410379724E+02  0.32224021628E+01 -0.11361226804E+03  0.11765594978E+03  0.00000000000E+00 0.  1.
          5    1    4    4  501    0  0.31702959053E-01  0.12496828814E+02 -0.18126210157E+02  0.22409900271E+02  0.41800000000E+01 0.  1.
         -5    1    4    4    0  501 -0.28104063650E+02 -0.29286226167E+02  0.18102567946E+03  0.18556748223E+03  0.41800000000E+01 0.  1.
</event>
<event>
11    1  0.6930157E-009  0.3645325E+03  0.7561462E-02  0.9760622E-01
         22   -1    0    0    0    0  0.00000000000E+00  0.00000000000E+00  0.12449071423E+03  0.12449071423E+03  0.00000000000E+00 0.  1.
         22   -1    0    0    0    0 -0.00000000000E+00 -0.00000000000E+00 -0.27707516568E+04  0.27707516568E+04  0.00000000000E+00 0. -1.
        -24    2    1    2    0    0  0.27616533580E+03  0.79892007039E+02 -0.11310354461E+04  0.11696900314E+04  0.79268933140E+02 0.  0.
         25    2    1    2    0    0 -0.41705826466E+03 -0.14442300965E+03 -0.14805841155E+04  0.15500232766E+04  0.12508890128E+03 0.  0.
         24    2    1    2    0    0  0.14089292886E+03  0.64531002609E+02 -0.34641380987E+02  0.17552906299E+03  0.74802132164E+02 0.  0.
        -11    1    5    5    0    0  0.10213169154E+03  0.78490323744E+02 -0.37714833890E+02  0.13421632551E+03  0.00000000000E+00 0.  1.
         12    1    5    5    0    0  0.38761237320E+02 -0.13959321135E+02  0.30734529037E+01  0.41312737477E+02  0.00000000000E+00 0. -1.
         11    1    3    3    0    0  0.29312574340E+02 -0.15963288060E+02 -0.12149574145E+03  0.12599709826E+03  0.00000000000E+00 0. -1.
        -12    1    3    3    0    0  0.24685276146E+03  0.95855295099E+02 -0.10095397046E+04  0.10436929331E+04  0.00000000000E+00 0.  1.
          5    1    4    4  501    0 -0.15315651843E+03 -0.30331586960E+02 -0.34683518886E+03  0.38038013215E+03  0.41800000000E+01 0. -1.
         -5    1    4    4    0  501 -0.26390174623E+03 -0.11409142269E+03 -0.11337489266E+04  0.11696431445E+04  0.41800000000E+01 0. -1.
</event>
<event>
11    1  0.6930157E-009  0.1616710E+03  0.7561462E-02  0.1085516E+00
         22   -1    0    0    0    0  0.00000000000E+00  0.00000000000E+00  0.16388689776E+03  0.16388689776E+03  0.00000000000E+00 0.  1.
         22   -1    0    0    0    0 -0.00000000000E+00 -0.00000000000E+00 -0.20171009452E+04  0.20171009452E+04  0.00000000000E+00 0. -1.
        -24    2    1    2    0    0  0.52015633243E+01  0.40761807123E+02 -0.17128650611E+04  0.17152201575E+04  0.79905506599E+02 0.  0.
         25    2    1    2    0    0 -0.10697105354E+03 -0.40676649600E+02 -0.24389843747E+03  0.29703818894E+03  0.12509133372E+03 0.  0.
         24    2    1    2    0    0  0.10176949022E+03 -0.85157522378E-01  0.10354945116E+03  0.16872949647E+03  0.85965794089E+02 0.  0.
        -11    1    5    5    0    0  0.10528976983E+03  0.16394917867E+02  0.60583336867E+02  0.12257679091E+03  0.00000000000E+00 0.  1.
         12    1    5    5    0    0 -0.35202796151E+01 -0.16480075390E+02  0.42966114297E+02  0.46152705568E+02  0.00000000000E+00 0. -1.
         11    1    3    3    0    0  0.19369988011E+02  0.19065843418E+02 -0.15553850244E+04  0.15556224725E+04  0.00000000000E+00 0. -1.
        -12    1    3    3    0    0 -0.14168424687E+02  0.21695963704E+02 -0.15748003675E+03  0.15959768506E+03  0.00000000000E+00 0.  1.
          5    1    4    4  501    0 -0.13117907331E+03 -0.12845012373E+02 -0.17997936992E+03  0.22312102011E+03  0.41800000000E+01 0. -1.
         -5    1    4    4    0  501  0.24208019769E+02 -0.27831637228E+02 -0.63919067543E+02  0.73917168828E+02  0.41800000000E+01 0. -1.
</event>
<event>
11    1  0.6930157E-009  0.1439601E+03  0.7561462E-02  0.1103215E+00
         22   -1    0    0    0    0  0.00000000000E+00  0.00000000000E+00  0.10514104485E+04  0.10514104485E+04  0.00000000000E+00 0.  1.
         22   -1    0    0    0    0 -0.00000000000E+00 -0.00000000000E+00 -0.19040322043E+04  0.19040322043E+04  0.00000000000E+00 0. -1.
         24    2    1    2    0    0 -0.10883336153E+00 -0.25993950949E+02 -0.18128078290E+04  0.18148116470E+04  0.81199704053E+02 0.  0.
         25    2    1    2    0    0 -0.54889933999E+01  0.96179529844E+02 -0.15867654922E+02  0.15868097131E+03  0.12508891707E+03 0.  0.
        -24    2    1    2    0    0  0.55978267614E+01 -0.70185578895E+02  0.97605372812E+03  0.98195003442E+03  0.81164270351E+02 0.  0.
        -11    1    3    3    0    0 -0.15705485189E+02  0.26001290093E+02 -0.55100592709E+03  0.55184260532E+03  0.00000000000E+00 0.  1.
         12    1    3    3    0    0  0.15596651827E+02 -0.51995241041E+02 -0.12618019019E+04  0.12629690417E+04  0.00000000000E+00 0. -1.
         13    1    5    5    0    0  0.20999562691E+02  0.70831106494E+01  0.10348776024E+03  0.10583415615E+03  0.00000000000E+00 0. -1.
        -14    1    5    5    0    0 -0.15401735930E+02 -0.77268689545E+02  0.87256596788E+03  0.87611587827E+03  0.00000000000E+00 0.  1.
          5    1    4    4  501    0  0.86845131605E+01  0.62907182975E+02  0.51656936491E+02  0.81967346708E+02  0.41800000000E+01 0. -1.
         -5    1    4    4    0  501 -0.14173506560E+02  0.33272346869E+02 -0.67524591413E+02  0.76713624604E+02  0.41800000000E+01 0. -1.
</event>
<event>
11    1  0.6930157E-009  0.2783051E+03  0.7561462E-02  0.1009815E+00
         22   -1    0    0    0    0  0.00000000000E+00  0.00000000000E+00  0.97041580249E+03  0.97041580249E+03  0.00000000000E+00 0.  1.
         22   -1    0    0    0    0 -0.00000000000E+00 -0.00000000000E+00 -0.79449409094E+03  0.79449409094E+03  0.00000000000E+00 0.  1.
        -24    2    1    2    0    0  0.38916780956E+01  0.96444106456E+02 -0.67831937211E+03  0.68967361824E+03  0.78841095215E+02 0.  0.
         25    2    1    2    0    0  0.23164845742E+03 -0.15770203421E+03  0.18462456069E+03  0.35814032368E+03  0.12508926261E+03 0.  0.
         24    2    1    2    0    0 -0.23554013552E+03  0.61257927752E+02  0.66961652297E+03  0.71709595151E+03  0.81293460265E+02 0.  0.
        -13    1    5    5    0    0 -0.10317146564E+03 -0.51072493425E+01  0.34843797552E+03  0.36342737666E+03  0.00000000000E+00 0.  1.
         14    1    5    5    0    0 -0.13236866987E+03  0.66365177094E+02  0.32117854745E+03  0.35366857485E+03  0.00000000000E+00 0. -1.
         13    1    3    3    0    0 -0.57070848033E+01  0.56482224885E+01 -0.35909857467E+01  0.87959316086E+01  0.00000000000E+00 0. -1.
        -14    1    3    3    0    0  0.95987628988E+01  0.90795883967E+02 -0.67472838636E+03  0.68087768663E+03  0.00000000000E+00 0.  1.
          5    1    4    4  501    0  0.16041472400E+03 -0.40092783832E+02  0.72168320830E+02  0.18046067140E+03  0.41800000000E+01 0.  1.
         -5    1    4    4    0  501  0.71233733419E+02 -0.11760925038E+03  0.11245623986E+03  0.17767965228E+03  0.41800000000E+01 0.  1.
</event>
<event>
11    1  0.6930157E-009  0.1401961E+03  0.7561462E-02  0.1107340E+00
         22   -1    0    0    0    0  0.00000000000E+00  0.00000000000E+00  0.11914613391E+04  0.11914613391E+04  0.00000000000E+00 0. -1.
         22   -1    0    0    0    0 -0.00000000000E+00 -0.00000000000E+00 -0.15681558948E+03  0.15681558948E+03  0.00000000000E+00 0. -1.
         24    2    1    2    0    0 -0.90858880788E+01  0.63253770088E+02 -0.11576239051E+03  0.15548559360E+03  0.81800036491E+02 0.  0.
         25    2    1    2    0    0 -0.36243054556E+02 -0.59585351304E+02  0.25387253595E+03  0.29148670161E+03  0.12509700080E+03 0.  0.
        -24    2    1    2    0    0  0.45328942635E+02 -0.36684187846E+01  0.89653560420E+03  0.90130463338E+03  0.80658429366E+02 0.  0.
        -11    1    3    3    0    0 -0.10142930861E+01 -0.11855797089E+02  0.51091007809E+01  0.12949580143E+02  0.00000000000E+00 0.  1.
         12    1    3    3    0    0 -0.80715949927E+01  0.75109567177E+02 -0.12087149129E+03  0.14253601346E+03  0.00000000000E+00 0. -1.
         11    1    5    5    0    0  0.56134735869E+02 -0.24713957798E+02  0.77905669842E+03  0.78146735545E+03  0.00000000000E+00 0. -1.
        -12    1    5    5    0    0 -0.10805793234E+02  0.21045539013E+02  0.11747890577E+03  0.11983727793E+03  0.00000000000E+00 0.  1.
          5    1    4    4  501    0 -0.72887490388E+02 -0.64114805536E+02  0.13088483487E+03  0.16300799656E+03  0.41800000000E+01 0.  1.
         -5    1    4    4    0  501  0.36644435832E+02  0.45294542323E+01  0.12298770108E+03  0.12847870504E+03  0.41800000000E+01 0.  1.
</event>
<event>
11    1  0.6930157E-009  0.1328285E+03  0.7561462E-02  0.1115842E+00
         22   -1    0    0    0    0  0.00000000000E+00  0.00000000000E+00  0.38329009094E+03  0.38329009094E+03  0.00000000000E+00 0. -1.
         22   -1    0    0    0    0 -0.00000000000E+00 -0.00000000000E+00 -0.21250468385E+03  0.21250468385E+03  0.00000000000E+00 0.  1.
        -24    2    1    2    0    0 -0.34793177044E+02  0.27293115710E+02 -0.16259449262E+03  0.18715873294E+03  0.81461297248E+02 0.  0.
         25    2    1    2    0    0  0.53874301866E+02 -0.13376385166E+02  0.14518013193E+03  0.19951518886E+03  0.12509065432E+03 0.  0.
         24    2    1    2    0    0 -0.19081124822E+02 -0.13916730543E+02  0.18819976778E+03  0.20912085300E+03  0.88060285321E+02 0.  0.
        -13    1    5    5    0    0 -0.20056898878E+02  0.31457904873E+02  0.42677643253E+02  0.56685626090E+02  0.00000000000E+00 0.  1.
         14    1    5    5    0    0  0.97577405627E+00 -0.45374635417E+02  0.14552212453E+03  0.15243522690E+03  0.00000000000E+00 0. -1.
         11    1    3    3    0    0 -0.45292053528E+02  0.22485532893E+02 -0.41226267078E+02  0.65242427909E+02  0.00000000000E+00 0. -1.
        -12    1    3    3    0    0  0.10498876484E+02  0.48075828170E+01 -0.12136822554E+03  0.12191630503E+03  0.00000000000E+00 0.  1.
          5    1    4    4  501    0  0.94423175555E+02 -0.46032109362E+01  0.92474140192E+02  0.13230972994E+03  0.41800000000E+01 0. -1.
         -5    1    4    4    0  501 -0.40548873689E+02 -0.87731742302E+01  0.52705991733E+02  0.67205458916E+02  0.41800000000E+01 0. -1.
</event>
<event>
11    1  0.6930157E-009  0.1492369E+03  0.7561462E-02  0.1097661E+00
         22   -1    0    0    0    0  0.00000000000E+00  0.00000000000E+00  0.11956155329E+04  0.11956155329E+04  0.00000000000E+00 0.  1.
         22   -1    0    0    0    0 -0.00000000000E+00 -0.00000000000E+00 -0.10935863482E+03  0.10935863482E+03  0.00000000000E+00 0.  1.
        -24    2    1    2    0    0 -0.36597428107E+02 -0.56415737619E+02 -0.26629161862E+02  0.10695360304E+03  0.78789934296E+02 0.  0.
         25    2    1    2    0    0  0.78448143832E+02  0.12015865942E+03  0.19114709075E+03  0.26976935295E+03  0.12508428672E+03 0.  0.
         24    2    1    2    0    0 -0.41850715725E+02 -0.63742921796E+02  0.92173896920E+03  0.92825121175E+03  0.78948985323E+02 0.  0.
        -11    1    5    5    0    0 -0.64417815108E+02 -0.49874561367E+02  0.76047940168E+03  0.76483073105E+03  0.00000000000E+00 0.  1.
         12    1    5    5    0    0  0.22567099384E+02 -0.13868360429E+02  0.16125956752E+03  0.16342048070E+03  0.00000000000E+00 0. -1.
         13    1    3    3    0    0  0.14781730245E+02 -0.48453408155E+02 -0.20313182727E+02  0.54578912626E+02  0.00000000000E+00 0. -1.
        -14    1    3    3    0    0 -0.51379158352E+02 -0.79623294638E+01 -0.63159791349E+01  0.52374690413E+02  0.00000000000E+00 0.  1.
          5    1    4    4  501    0  0.72162142258E+01  0.11389873173E+03  0.87925742617E+02  0.14412981458E+03  0.41800000000E+01 0. -1.
         -5    1    4    4    0  501  0.71231929606E+02  0.62599276880E+01  0.10322134814E+03  0.12563953837E+03  0.41800000000E+01 0. -1.
</event>
<event>
11    1  0.6930157E-009  0.1541629E+03  0.7561462E-02  0.1092699E+00
         22   -1    0    0    0    0  0.00000000000E+00  0.00000000000E+00  0.10460687430E+04  0.10460687430E+04  0.00000000000E+00 0.  1.
         22   -1    0    0    0    0 -0.00000000000E+00 -0.00000000000E+00 -0.12420264681E+03  0.12420264681E+03  0.00000000000E+00 0. -1.
        -24    2    1    2    0    0 -0.25707544994E+02  0.71086738008E+01 -0.88012136228E+02  0.12219495120E+03  0.80461536548E+02 0.  0.
         25    2    1    2    0    0  0.59092457141E+02 -0.83720176660E+02  0.53104426291E+03  0.55511858717E+03  0.12509056792E+03 0.  0.
         24    2    1    2    0    0 -0.33384912147E+02  0.76611502859E+02  0.47883396951E+03  0.49295785143E+03  0.82107235980E+02 0.  0.
        -11    1    5    5    0    0 -0.60232618164E+02  0.50300086512E+02  0.29073056668E+03  0.30113506836E+03  0.00000000000E+00 0.  1.
         12    1    5    5    0    0  0.26847706017E+02  0.26311416347E+02  0.18810340282E+03  0.19182278307E+03  0.00000000000E+00 0. -1.
         11    1    3    3    0    0 -0.40460531422E+02  0.11884747628E+02 -0.95925621205E+02  0.10478562226E+03  0.00000000000E+00 0. -1.
        -12    1    3    3    0    0  0.14752986428E+02 -0.47760738269E+01  0.79134849776E+01  0.17409328943E+02  0.00000000000E+00 0.  1.
          5    1    4    4  501    0 -0.21758147729E+02 -0.17060765534E+02  0.22550336598E+02  0.35923206899E+02  0.41800000000E+01 0.  1.
         -5    1    4    4    0  501  0.80850604870E+02 -0.66659411126E+02  0.50849392632E+03  0.51919538028E+03  0.41800000000E+01 0.  1.
</event>
<event>
11    1  0.6930157E-009  0.1440251E+03  0.7561462E-02  0.1103145E+00
         22   -1    0    0    0    0  0.00000000000E+00  0.00000000000E+00  0.29144691390E+03  0.29144691390E+03  0.00000000000E+00 0.  1.
         22   -1    0    0    0    0 -0.00000000000E+00 -0.00000000000E+00 -0.10632635473E+04  0.10632635473E+04  0.00000000000E+00 0.  1.
        -24    2    1    2    0    0  0.11025036358E+02 -0.71505347752E+02 -0.10121761169E+04  0.10179346143E+04  0.80348124524E+02 0.  0.
         25    2    1    2    0    0  0.16318343295E+02  0.33158757559E+02  0.86565206411E+02  0.15654913318E+03  0.12509318370E+03 0.  0.
         24    2    1    2    0    0 -0.27343379653E+02  0.38346590193E+02  0.15379427706E+03  0.18022671379E+03  0.81307240247E+02 0.  0.
        -13    1    5    5    0    0  0.11795836068E+02  0.32194262935E+02  0.12902143966E+03  0.13349960377E+03  0.00000000000E+00 0.  1.
         14    1    5    5    0    0 -0.39139215721E+02  0.61523272582E+01  0.24772837399E+02  0.46727110019E+02  0.00000000000E+00 0. -1.
         13    1    3    3    0    0  0.17463567947E+02  0.10438278751E+02 -0.99139452893E+02  0.10120555809E+03  0.00000000000E+00 0. -1.
        -14    1    3    3    0    0 -0.64385315892E+01 -0.81943626502E+02 -0.91303666401E+03  0.91672905618E+03  0.00000000000E+00 0.  1.
          5    1    4    4  501    0 -0.12647918914E+02  0.59166260750E+02  0.98451620466E+02  0.11563221972E+03  0.41800000000E+01 0.  1.
         -5    1    4    4    0  501  0.28966262210E+02 -0.26007503191E+02 -0.11886414055E+02  0.40916913468E+02  0.41800000000E+01 0.  1.
</event>
<event>
11    1  0.6930157E-009  0.1287229E+03  0.7561462E-02  0.1120848E+00
         22   -1    0    0    0    0  0.00000000000E+00  0.00000000000E+00  0.53361812314E+03  0.53361812314E+03  0.00000000000E+00 0.  1.
         22   -1    0    0    0    0 -0.00000000000E+00 -0.00000000000E+00 -0.13287822101E+03  0.13287822101E+03  0.00000000000E+00 0. -1.
        -24    2    1    2    0    0  0.30933643383E+02 -0.10784989217E+02 -0.69419046572E+02  0.11165657496E+03  0.81086252963E+02 0.  0.
         25    2    1    2    0    0 -0.24069854495E+02 -0.21215237255E+02  0.72898957451E+02  0.14829460377E+03  0.12509031666E+03 0.  0.
         24    2    1    2    0    0 -0.68637888889E+01  0.32000226472E+02  0.39725999125E+03  0.40654516542E+03  0.79952140625E+02 0.  0.
        -11    1    5    5    0    0  0.16635939636E+02 -0.14540603465E+01  0.30704585876E+03  0.30749963929E+03  0.00000000000E+00 0.  1.
         12    1    5    5    0    0 -0.23499728525E+02  0.33454286819E+02  0.90214132485E+02  0.99045526135E+02  0.00000000000E+00 0. -1.
         11    1    3    3    0    0  0.49684469113E+02 -0.16120434543E+02 -0.74982933615E+02  0.91383013818E+02  0.00000000000E+00 0. -1.
        -12    1    3    3    0    0 -0.18750825730E+02  0.53354453262E+01  0.55638870433E+01  0.20273561142E+02  0.00000000000E+00 0.  1.
          5    1    4    4  501    0 -0.46298045442E+02  0.24572829662E+02  0.81016256939E+02  0.96583845739E+02  0.41800000000E+01 0.  1.
         -5    1    4    4    0  501  0.22228190947E+02 -0.45788066917E+02 -0.81172994885E+01  0.51710758028E+02  0.41800000000E+01 0.  1.
</event>
<event>
11    1  0.6930157E-009  0.1796543E+03  0.7561462E-02  0.1069923E+00
         22   -1    0    0    0    0  0.00000000000E+00  0.00000000000E+00  0.13215062590E+04  0.13215062590E+04  0.00000000000E+00 0. -1.
         22   -1    0    0    0    0 -0.00000000000E+00 -0.00000000000E+00 -0.33371928413E+03  0.33371928413E+03  0.00000000000E+00 0. -1.
        -24    2    1    2    0    0 -0.65226084136E+02 -0.82186605784E+01 -0.27939542071E+03  0.29779133417E+03  0.79346639234E+02 0.  0.
         25    2    1    2    0    0  0.16235723832E+03  0.82274798979E+02  0.26685246601E+03  0.34639086945E+03  0.12508948973E+03 0.  0.
         24    2    1    2    0    0 -0.97131154183E+02 -0.74056138400E+02  0.10003299296E+04  0.10110433395E+04  0.81424158683E+02 0.  0.
        -11    1    5    5    0    0 -0.46478897755E+02 -0.53037843502E+01  0.16952649242E+03  0.17586258754E+03  0.00000000000E+00 0.  1.
         12    1    5    5    0    0 -0.50652256428E+02 -0.68752354050E+02  0.83080343717E+03  0.83518075198E+03  0.00000000000E+00 0. -1.
         11    1    3    3    0    0 -0.64441173310E+02  0.26897989011E+01 -0.27950914823E+03  0.28685408098E+03  0.00000000000E+00 0. -1.
        -12    1    3    3    0    0 -0.78491082659E+00 -0.10908459479E+02  0.11372751594E+00  0.10937253182E+02  0.00000000000E+00 0.  1.
          5    1    4    4  501    0  0.91451279715E+02  0.10776865679E+03  0.20380109678E+03  0.24805196914E+03  0.41800000000E+01 0.  1.
         -5    1    4    4    0  501  0.70905958605E+02 -0.25493857811E+02  0.63051369234E+02  0.98338900309E+02  0.41800000000E+01 0.  1.
</event>
<event>
11    1  0.6930157E-009  0.1436875E+03  0.7561462E-02  0.1103509E+00
         22   -1    0    0    0    0  0.00000000000E+00  0.00000000000E+00  0.26509242678E+03  0.26509242678E+03  0.00000000000E+00 0. -1.
         22   -1    0    0    0    0 -0.00000000000E+00 -0.00000000000E+00 -0.33241567126E+03  0.33241567126E+03  0.00000000000E+00 0.  1.
        -24    2    1    2    0    0 -0.68070989876E+02  0.37488838787E+02 -0.25329834079E+03  0.27897298245E+03  0.87331568140E+02 0.  0.
         25    2    1    2    0    0  0.31756556636E+02  0.74133671256E+00  0.25708553396E+02  0.13159835819E+03  0.12509264443E+03 0.  0.
         24    2    1    2    0    0  0.36314433240E+02 -0.38230175500E+02  0.16026654292E+03  0.18693675740E+03  0.80496596865E+02 0.  0.
        -11    1    5    5    0    0  0.25411480711E+02 -0.11019301973E+02  0.40484430917E+01  0.27992110663E+02  0.00000000000E+00 0.  1.
         12    1    5    5    0    0  0.10902952528E+02 -0.27210873527E+02  0.15621809983E+03  0.15894464673E+03  0.00000000000E+00 0. -1.
         11    1    3    3    0    0 -0.19781626771E+02  0.51885683207E+02 -0.19066249443E+03  0.19858404685E+03  0.00000000000E+00 0. -1.
        -12    1    3    3    0    0 -0.48289363105E+02 -0.14396844419E+02 -0.62635846362E+02  0.80388935606E+02  0.00000000000E+00 0.  1.
          5    1    4    4  501    0 -0.19038574563E+01 -0.50194080506E+02  0.44860259775E+02  0.67475815653E+02  0.41800000000E+01 0.  1.
         -5    1    4    4    0  501  0.33660414093E+02  0.50935417218E+02 -0.19151706378E+02  0.64122542536E+02  0.41800000000E+01 0.  1.
</event>
<event>
11    1  0.6930157E-009  0.2575216E+03  0.7561462E-02  0.1019967E+00
         22   -1    0    0    0    0  0.00000000000E+00  0.00000000000E+00  0.10156499560E+04  0.10156499560E+04  0.00000000000E+00 0. -1.
         22   -1    0    0    0    0 -0.00000000000E+00 -0.00000000000E+00 -0.53327215146E+03  0.53327215146E+03  0.00000000000E+00 0.  1.
         24    2    1    2    0    0  0.18896320165E+03 -0.13096656862E+03 -0.45844140261E+03  0.51841244218E+03  0.75654523398E+02 0.  0.
         25    2    1    2    0    0 -0.10768828781E+03  0.14955718729E+03  0.27656751775E+03  0.35510646717E+03  0.12508753555E+03 0.  0.
        -24    2    1    2    0    0 -0.81274913838E+02 -0.18590618665E+02  0.66425168943E+03  0.67540319813E+03  0.89375334499E+02 0.  0.
        -11    1    3    3    0    0  0.16918765504E+03 -0.11909712280E+03 -0.34205458277E+03  0.39976233549E+03  0.00000000000E+00 0.  1.
         12    1    3    3    0    0  0.19775546612E+02 -0.11869445818E+02 -0.11638681984E+03  0.11865010670E+03  0.00000000000E+00 0. -1.
         13    1    5    5    0    0 -0.47806181578E+02  0.45204870788E+01  0.57855485073E+03  0.58054421115E+03  0.00000000000E+00 0. -1.
        -14    1    5    5    0    0 -0.33468732259E+02 -0.23111105744E+02  0.85696838701E+02  0.94858986981E+02  0.00000000000E+00 0.  1.
          5    1    4    4  501    0 -0.76956052529E+01  0.11524655432E+03  0.16387972961E+03  0.20053685148E+03  0.41800000000E+01 0. -1.
         -5    1    4    4    0  501 -0.99992682557E+02  0.34310632966E+02  0.11268778814E+03  0.15456961569E+03  0.41800000000E+01 0. -1.
</event>
<event>
11    1  0.6930157E-009  0.1852450E+03  0.7561462E-02  0.1065477E+00
         22   -1    0    0    0    0  0.00000000000E+00  0.00000000000E+00  0.13468462922E+04  0.13468462922E+04  0.00000000000E+00 0.  1.
         22   -1    0    0    0    0 -0.00000000000E+00 -0.00000000000E+00 -0.98751963011E+02  0.98751963011E+02  0.00000000000E+00 0. -1.
         24    2    1    2    0    0 -0.18535518054E+02  0.11838121724E+02 -0.44368630438E+02  0.93144533695E+02  0.78889937475E+02 0.  0.
         25    2    1    2    0    0  0.10891762559E+02  0.12735931346E+03  0.31856769646E+03  0.36533692144E+03  0.12508662487E+03 0.  0.
        -24    2    1    2    0    0  0.76437554955E+01 -0.13919743519E+03  0.97389526319E+03  0.98711680010E+03  0.80580645396E+02 0.  0.
        -11    1    3    3    0    0  0.48263553357E+01  0.20981731968E+02  0.16619511711E+02  0.27198068897E+02  0.00000000000E+00 0.  1.
         12    1    3    3    0    0 -0.23361873390E+02 -0.91436102438E+01 -0.60988142149E+02  0.65946464799E+02  0.00000000000E+00 0. -1.
         13    1    5    5    0    0 -0.24336782629E+01 -0.28342227399E+02  0.59270364321E+02  0.65743294187E+02  0.00000000000E+00 0. -1.
        -14    1    5    5    0    0  0.10077433758E+02 -0.11085520779E+03  0.91462489887E+03  0.92137350592E+03  0.00000000000E+00 0.  1.
          5    1    4    4  501    0 -0.50804568228E+02  0.63814297438E+02  0.20896469046E+03  0.22435927208E+03  0.41800000000E+01 0.  1.
         -5    1    4    4    0  501  0.61696330787E+02  0.63545016024E+02  0.10960300600E+03  0.14097764936E+03  0.41800000000E+01 0.  1.
</event>
<event>
11    1  0.6930157E-009  0.4572881E+03  0.7561462E-02  0.9494377E-01
         22   -1    0    0    0    0  0.00000000000E+00  0.00000000000E+00  0.89075217875E+03  0.89075217875E+03  0.00000000000E+00 0. -1.
         22   -1    0    0    0    0 -0.00000000000E+00 -0.00000000000E+00 -0.22892838135E+04  0.22892838135E+04  0.00000000000E+00 0. -1.
        -24    2    1    2    0    0  0.34448346427E+03  0.27415847533E+03 -0.19947894011E+04  0.20445799164E+04  0.85384737484E+02 0.  0.
         25    2    1    2    0    0 -0.38105145947E+03 -0.22134688498E+03 -0.68185696356E+02  0.46313526722E+03  0.12510127217E+03 0.  0.
         24    2    1    2    0    0  0.36567995202E+02 -0.52811590352E+02  0.66444346267E+03  0.67232080859E+03  0.80024197814E+02 0.  0.
        -13    1    5    5    0    0  0.31747690595E+02 -0.17304599522E+02  0.93404536339E+02  0.10015873617E+03  0.00000000000E+00 0.  1.
         14    1    5    5    0    0  0.48203046063E+01 -0.35506990830E+02  0.57103892633E+03  0.57216207242E+03  0.00000000000E+00 0. -1.
         13    1    3    3    0    0  0.14538902527E+03  0.16973364892E+03 -0.10216811612E+04  0.10458393162E+04  0.00000000000E+00 0. -1.
        -14    1    3    3    0    0  0.19909443899E+03  0.10442482641E+03 -0.97310823986E+03  0.99874060020E+03  0.00000000000E+00 0.  1.
          5    1    4    4  501    0 -0.31638981180E+02 -0.67563046629E+02  0.29727475264E+01  0.74780345197E+02  0.41800000000E+01 0. -1.
         -5    1    4    4    0  501 -0.34941247829E+03 -0.15378383835E+03 -0.71158443883E+02  0.38835492202E+03  0.41800000000E+01 0. -1.
</event>
<event>
11    1  0.6930157E-009  0.1345643E+03  0.7561462E-02  0.1113785E+00
         22   -1    0    0    0    0  0.00000000000E+00  0.00000000000E+00  0.50941284010E+03  0.50941284010E+03  0.00000000000E+00 0. -1.
         22   -1    0    0    0    0 -0.00000000000E+00 -0.00000000000E+00 -0.14079476685E+03  0.14079476685E+03  0.00000000000E+00 0. -1.
         24    2    1    2    0    0 -0.39904136294E+02 -0.23954377685E+02 -0.81008169429E+02  0.13050730407E+03  0.91124533459E+02 0.  0.
         25    2    1    2    0    0  0.47476672536E+02  0.60694867801E+02  0.15867298940E+03  0.21624405993E+03  0.12508586842E+03 0.  0.
        -24    2    1    2    0    0 -0.75725362420E+01 -0.36740490116E+02  0.29095325328E+03  0.30345624295E+03  0.77618869320E+02 0.  0.
        -13    1    3    3    0    0 -0.50242495512E+02 -0.27975496667E+02 -0.96718285093E+01  0.58313643650E+02  0.00000000000E+00 0.  1.
         14    1    3    3    0    0  0.10338359218E+02  0.40211189820E+01 -0.71336340919E+02  0.72193660421E+02  0.00000000000E+00 0. -1.
         11    1    5    5    0    0  0.91760618731E+01 -0.38510095679E+02  0.28124316314E+03  0.28401574674E+03  0.00000000000E+00 0. -1.
        -12    1    5    5    0    0 -0.16748598115E+02  0.17696055630E+01  0.97100901381E+01  0.19440496217E+02  0.00000000000E+00 0.  1.
          5    1    4    4  501    0  0.85353589451E+02  0.45393523986E+02  0.72911875641E+02  0.12115866152E+03  0.41800000000E+01 0. -1.
         -5    1    4    4    0  501 -0.37876916915E+02  0.15301343815E+02  0.85761113758E+02  0.95085398409E+02  0.41800000000E+01 0. -1.
</event>
<event>
11    1  0.6930157E-009  0.4744790E+03  0.7561462E-02  0.9452429E-01
         22   -1    0    0    0    0  0.00000000000E+00  0.00000000000E+00  0.13662049947E+04  0.13662049947E+04  0.00000000000E+00 0. -1.
         22   -1    0    0    0    0 -0.00000000000E+00 -0.00000000000E+00 -0.21459185310E+03  0.21459185310E+03  0.00000000000E+00 0. -1.
        -24    2    1    2    0    0 -0.12978764359E+03  0.30389792469E+03  0.53062350183E+01  0.34017208046E+03  0.80561201153E+02 0.  0.
         25    2    1    2    0    0  0.24453637622E+02  0.41909932779E+01  0.20426028961E+03  0.24080184920E+03  0.12509084638E+03 0.  0.
         24    2    1    2    0    0  0.10533400597E+03 -0.30808891797E+03  0.94204661695E+03  0.99982291812E+03  0.78613007201E+02 0.  0.
        -11    1    5    5    0    0  0.23066997489E+02 -0.49610100367E+02  0.26244461973E+03  0.26808660328E+03  0.00000000000E+00 0.  1.
         12    1    5    5    0    0  0.82267008476E+02 -0.25847881761E+03  0.67960199722E+03  0.73173631484E+03  0.00000000000E+00 0. -1.
         11    1    3    3    0    0 -0.73672694530E+02  0.14040884841E+03 -0.35679737275E+02  0.16252801076E+03  0.00000000000E+00 0. -1.
        -12    1    3    3    0    0 -0.56114949057E+02  0.16348907629E+03  0.40985972293E+02  0.17764406970E+03  0.00000000000E+00 0.  1.
          5    1    4    4  501    0  0.51298937534E+02 -0.37652353926E+02  0.16631294374E+03  0.17812003931E+03  0.41800000000E+01 0. -1.
         -5    1    4    4    0  501 -0.26845299912E+02  0.41843347203E+02  0.37947345870E+02  0.62681809891E+02  0.41800000000E+01 0. -1.
</event>
<event>
11    1  0.6930157E-009  0.1562684E+03  0.7561462E-02  0.1090640E+00
         22   -1    0    0    0    0  0.00000000000E+00  0.00000000000E+00  0.10203202480E+04  0.10203202480E+04  0.00000000000E+00 0.  1.
         22   -1    0    0    0    0 -0.00000000000E+00 -0.00000000000E+00 -0.43149764722E+03  0.43149764722E+03  0.00000000000E+00 0.  1.
         24    2    1    2    0    0 -0.20064533961E+01  0.20514029912E+02 -0.40591591517E+03  0.41578011365E+03  0.87638584184E+02 0.  0.
         25    2    1    2    0    0 -0.56497915850E+02  0.59865015971E+02  0.39034493991E+03  0.41808522107E+03  0.12510094055E+03 0.  0.
        -24    2    1    2    0    0  0.58504369246E+02 -0.80379045883E+02  0.60439357606E+03  0.61795256052E+03  0.81793765275E+02 0.  0.
        -11    1    3    3    0    0  0.28003520120E+02 -0.17225321338E+02 -0.26078584989E+03  0.26285008719E+03  0.00000000000E+00 0.  1.
         12    1    3    3    0    0 -0.30009973516E+02  0.37739351251E+02 -0.14513006528E+03  0.15293002646E+03  0.00000000000E+00 0. -1.
         13    1    5    5    0    0  0.10249623522E+02 -0.79492554756E+01  0.79946109282E+01  0.15236772915E+02  0.00000000000E+00 0. -1.
        -14    1    5    5    0    0  0.48254745724E+02 -0.72429790408E+02  0.59639896513E+03  0.60271578761E+03  0.00000000000E+00 0.  1.
          5    1    4    4  501    0 -0.30032839771E+02  0.96493858414E+02  0.22623609980E+03  0.24781703216E+03  0.41800000000E+01 0. -1.
         -5    1    4    4    0  501 -0.26465076079E+02 -0.36628842443E+02  0.16410884011E+03  0.17026818891E+03  0.41800000000E+01 0. -1.
</event>
<event>
11    1  0.6930157E-009  0.1491833E+03  0.7561462E-02  0.1097716E+00
         22   -1    0    0    0    0  0.00000000000E+00  0.00000000000E+00  0.15401052628E+04  0.15401052628E+04  0.00000000000E+00 0.  1.
         22   -1    0    0    0    0 -0.00000000000E+00 -0.00000000000E+00 -0.42282114455E+03  0.42282114455E+03  0.00000000000E+00 0.  1.
         24    2    1    2    0    0 -0.31873964185E+02 -0.42070316321E+02 -0.38157296832E+03  0.39389448621E+03  0.82274388531E+02 0.  0.
         25    2    1    2    0    0  0.10483816893E+03  0.71059734877E+02  0.20752867463E+03  0.27341658859E+03  0.12509177645E+03 0.  0.
        -24    2    1    2    0    0 -0.72964204740E+02 -0.28989418556E+02  0.12913284119E+04  0.12956153325E+04  0.70184477653E+02 0.  0.
        -13    1    3    3    0    0  0.58500183546E+01 -0.47590846814E+02 -0.11480443024E+03  0.12441530701E+03  0.00000000000E+00 0.  1.
         14    1    3    3    0    0 -0.37723982540E+02  0.55205304933E+01 -0.26676853808E+03  0.26947917920E+03  0.00000000000E+00 0. -1.
         11    1    5    5    0    0 -0.18115525158E+02  0.21884223773E+02  0.25153934644E+03  0.25313856741E+03  0.00000000000E+00 0. -1.
        -12    1    5    5    0    0 -0.54848679582E+02 -0.50873642329E+02  0.10397890654E+04  0.10424767651E+04  0.00000000000E+00 0.  1.
          5    1    4    4  501    0  0.37964220778E+02  0.65262269408E+02  0.18913653182E+03  0.20369228246E+03  0.41800000000E+01 0. -1.
         -5    1    4    4    0  501  0.66873948147E+02  0.57974654696E+01  0.18392142815E+02  0.69724306121E+02  0.41800000000E+01 0. -1.
</event>
<event>
11    1  0.6930157E-009  0.1736642E+03  0.7561462E-02  0.1074886E+00
         22   -1    0    0    0    0  0.00000000000E+00  0.00000000000E+00  0.59946961648E+03  0.59946961648E+03  0.00000000000E+00 0. -1.
         22   -1    0    0    0    0 -0.00000000000E+00 -0.00000000000E+00 -0.23652506547E+03  0.23652506547E+03  0.00000000000E+00 0. -1.
        -24    2    1    2    0    0  0.64134530785E+02  0.10803614484E+03 -0.16335375775E+03  0.22146763510E+03  0.81107438570E+02 0.  0.
         25    2    1    2    0    0  0.66579240712E+01 -0.10407939897E+03  0.14539149417E+03  0.21831882922E+03  0.12509026889E+03 0.  0.
         24    2    1    2    0    0 -0.70792454856E+02 -0.39567458729E+01  0.38090681460E+03  0.39620821763E+03  0.82847587835E+02 0.  0.
        -11    1    5    5    0    0 -0.14012778416E+02  0.23666020395E+02  0.34637085276E+02  0.44228567201E+02  0.00000000000E+00 0.  1.
         12    1    5    5    0    0 -0.56779676440E+02 -0.27622766268E+02  0.34626972932E+03  0.35197965043E+03  0.00000000000E+00 0. -1.
         13    1    3    3    0    0  0.24010944072E+02  0.40271761278E+02 -0.12573343956E+03  0.13419105042E+03  0.00000000000E+00 0. -1.
        -14    1    3    3    0    0  0.40123586713E+02  0.67764383565E+02 -0.37620318199E+02  0.87276584672E+02  0.00000000000E+00 0.  1.
          5    1    4    4  501    0  0.39296400035E+02 -0.11889226212E+03  0.12447307179E+03  0.17660859279E+03  0.41800000000E+01 0.  1.
         -5    1    4    4    0  501 -0.32638475963E+02  0.14812863146E+02  0.20918422379E+02  0.41710236425E+02  0.41800000000E+01 0.  1.
</event>
<event>
11    1  0.6930157E-009  0.1261423E+03  0.7561462E-02  0.1124102E+00
         22   -1    0    0    0    0  0.00000000000E+00  0.00000000000E+00  0.22516694364E+02  0.22516694364E+02  0.00000000000E+00 0. -1.
         22   -1    0    0    0    0 -0.00000000000E+00 -0.00000000000E+00 -0.18246177378E+04  0.18246177378E+04  0.00000000000E+00 0.  1.
        -24    2    1    2    0    0 -0.71163344904E+01  0.61661722465E+01 -0.10214327067E+04  0.10244619280E+04  0.78158837256E+02 0.  0.
         25    2    1    2    0    0 -0.83910037855E+01  0.20881707635E+01 -0.68223418094E+03  0.69366093382E+03  0.12508894463E+03 0.  0.
         24    2    1    2    0    0  0.15507338276E+02 -0.82543430100E+01 -0.98434155886E+02  0.12901157037E+03  0.81523558093E+02 0.  0.
        -13    1    5    5    0    0 -0.32650811115E+02  0.66875187002E+00 -0.52713844951E+02  0.62010258386E+02  0.00000000000E+00 0.  1.
         14    1    5    5    0    0  0.48158149391E+02 -0.89230948800E+01 -0.45720310935E+02  0.67001311979E+02  0.00000000000E+00 0. -1.
         11    1    3    3    0    0 -0.36652628961E+02 -0.84742094302E+01 -0.76421100819E+03  0.76513638815E+03  0.00000000000E+00 0. -1.
        -12    1    3    3    0    0  0.29536294471E+02  0.14640381677E+02 -0.25722169846E+03  0.25932553987E+03  0.00000000000E+00 0.  1.
          5    1    4    4  501    0  0.32287289175E+02 -0.49517279481E+02 -0.29999408694E+03  0.30579135797E+03  0.41800000000E+01 0.  1.
         -5    1    4    4    0  501 -0.40678292961E+02  0.51605450244E+02 -0.38224009399E+03  0.38786957585E+03  0.41800000000E+01 0.  1.
</event>
<event>
11    1  0.6930157E-009  0.1558708E+03  0.7561462E-02  0.1091027E+00
         22   -1    0    0    0    0  0.00000000000E+00  0.00000000000E+00  0.38579581153E+04  0.38579581153E+04  0.00000000000E+00 0. -1.
         22   -1    0    0    0    0 -0.00000000000E+00 -0.00000000000E+00 -0.46136293361E+03  0.46136293361E+03  0.00000000000E+00 0. -1.
        -24    2    1    2    0    0 -0.23671383494E+02  0.11919826360E+02 -0.42806204441E+03  0.43631743222E+03  0.80208298433E+02 0.  0.
         25    2    1    2    0    0  0.10410691597E+03 -0.56704715853E+02  0.23568054742E+03  0.29196979741E+03  0.12508943768E+03 0.  0.
         24    2    1    2    0    0 -0.80435532479E+02  0.44784889492E+02  0.35889766786E+04  0.35910338192E+04  0.79339333845E+02 0.  0.
        -11    1    5    5    0    0  0.42019206314E+01 -0.10492956559E+02  0.10288571674E+04  0.10289192530E+04  0.00000000000E+00 0.  1.
         12    1    5    5    0    0 -0.84637453110E+02  0.55277846051E+02  0.25601195112E+04  0.25621145662E+04  0.00000000000E+00 0. -1.
         13    1    3    3    0    0 -0.29306507755E+02  0.31575586250E+02 -0.39569095505E+03  0.39802917098E+03  0.00000000000E+00 0. -1.
        -14    1    3    3    0    0  0.56351242605E+01 -0.19655759890E+02 -0.32371089358E+02  0.38288261236E+02  0.00000000000E+00 0.  1.
          5    1    4    4  501    0  0.72987639452E+02 -0.94300607707E+02  0.13613116337E+03  0.18102200465E+03  0.41800000000E+01 0. -1.
         -5    1    4    4    0  501  0.31119276521E+02  0.37595891854E+02  0.99549384049E+02  0.11094779277E+03  0.41800000000E+01 0. -1.
</event>
<event>
11    1  0.6930157E-009  0.1438773E+03  0.7561462E-02  0.1103304E+00
         22   -1    0    0    0    0  0.00000000000E+00  0.00000000000E+00  0.39080497823E+03  0.39080497823E+03  0.00000000000E+00 0. -1.
         22   -1    0    0    0    0 -0.00000000000E+00 -0.00000000000E+00 -0.63228439372E+03  0.63228439372E+03  0.00000000000E+00 0.  1.
        -24    2    1    2    0    0  0.52033142361E+02 -0.11070829165E+02 -0.51047382409E+03  0.51808313403E+03  0.70686614847E+02 0.  0.
         25    2    1    2    0    0 -0.11112925345E+03  0.43155967166E+02 -0.40731464684E+02  0.17753373528E+03  0.12508807486E+03 0.  0.
         24    2    1    2    0    0  0.59096111094E+02 -0.32085138002E+02  0.30972587329E+03  0.32747250264E+03  0.82379105197E+02 0.  0.
        -13    1    5    5    0    0  0.39965272152E+02  0.72064496308E+01  0.51551492449E+02  0.65625545851E+02  0.00000000000E+00 0.  1.
         14    1    5    5    0    0  0.19130838941E+02 -0.39291587632E+02  0.25817438084E+03  0.26184695679E+03  0.00000000000E+00 0. -1.
         11    1    3    3    0    0  0.11403310542E+02 -0.98315456584E+01 -0.16108439262E+02  0.22049412618E+02  0.00000000000E+00 0. -1.
        -12    1    3    3    0    0  0.40629831819E+02 -0.12392835064E+01 -0.49436538483E+03  0.49603372141E+03  0.00000000000E+00 0.  1.
          5    1    4    4  501    0  0.12822706998E+02  0.45722008838E+02 -0.20306195753E+02  0.51814456409E+02  0.41800000000E+01 0.  1.
         -5    1    4    4    0  501 -0.12395196045E+03 -0.25660416718E+01 -0.20425268931E+02  0.12571927887E+03  0.41800000000E+01 0.  1.
</event>
<event>
11    1  0.6930157E-009  0.1376313E+03  0.7561462E-02  0.1110233E+00
         22   -1    0    0    0    0  0.00000000000E+00  0.00000000000E+00  0.23132650969E+03  0.23132650969E+03  0.00000000000E+00 0. -1.
         22   -1    0    0    0    0 -0.00000000000E+00 -0.00000000000E+00 -0.43027293508E+03  0.43027293508E+03  0.00000000000E+00 0. -1.
         24    2    1    2    0    0 -0.51289212178E+01  0.55483749011E+02 -0.33965293309E+03  0.35356408233E+03  0.80862185985E+02 0.  0.
         25    2    1    2    0    0 -0.20272678631E+02 -0.77919516050E+02  0.75937981670E+01  0.14895692043E+03  0.12509222955E+03 0.  0.
        -24    2    1    2    0    0  0.25401599849E+02  0.22435767039E+02  0.13311270953E+03  0.15907844201E+03  0.80239344192E+02 0.  0.
        -13    1    3    3    0    0 -0.29636535129E+02 -0.29608220638E+01 -0.62173304843E+02  0.68939179839E+02  0.00000000000E+00 0.  1.
         14    1    3    3    0    0  0.24507613912E+02  0.58444571075E+02 -0.27747962824E+03  0.28462490249E+03  0.00000000000E+00 0. -1.
         13    1    5    5    0    0  0.44973931051E+02  0.32749987328E+02  0.12249843722E+03  0.13454026633E+03  0.00000000000E+00 0. -1.
        -14    1    5    5    0    0 -0.19572331202E+02 -0.10314220289E+02  0.10614272314E+02  0.24538175678E+02  0.00000000000E+00 0.  1.
          5    1    4    4  501    0 -0.43139176229E+02 -0.61470035839E+02 -0.46072965001E+02  0.88202858999E+02  0.41800000000E+01 0.  1.
         -5    1    4    4    0  501  0.22866497597E+02 -0.16449480211E+02  0.53666763167E+02  0.60754061432E+02  0.41800000000E+01 0.  1.
</event>
<event>
11    1  0.6930157E-009  0.1752408E+03  0.7561462E-02  0.1073559E+00
         22   -1    0    0    0    0  0.00000000000E+00  0.00000000000E+00  0.12511171053E+04  0.12511171053E+04  0.00000000000E+00 0.  1.
         22   -1    0    0    0    0 -0.00000000000E+00 -0.00000000000E+00 -0.87448012705E+03  0.87448012705E+03  0.00000000000E+00 0.  1.
        -24    2    1    2    0    0  0.35805916585E+02  0.62069341795E+00 -0.76001662350E+03  0.76535670140E+03  0.82844211988E+02 0.  0.
         25    2    1    2    0    0  0.26203611175E+02 -0.10751875214E+03 -0.40477740637E+02  0.17185983087E+03  0.12510172933E+03 0.  0.
         24    2    1    2    0    0 -0.62009527760E+02  0.10689805872E+03  0.11771313424E+04  0.11883807001E+04  0.10648058315E+03 0.  0.
        -13    1    5    5    0    0  0.36366782579E+01  0.96611093200E+02  0.69636650525E+03  0.70304568727E+03  0.00000000000E+00 0.  1.
         14    1    5    5    0    0 -0.65646206018E+02  0.10286965518E+02  0.48076483718E+03  0.48533501284E+03  0.00000000000E+00 0. -1.
         13    1    3    3    0    0  0.15660447450E+02  0.33113239080E+01 -0.22787778036E+02  0.27847752300E+02  0.00000000000E+00 0. -1.
        -14    1    3    3    0    0  0.20145469135E+02 -0.26906304901E+01 -0.73722884546E+03  0.73750894910E+03  0.00000000000E+00 0.  1.
          5    1    4    4  501    0  0.62355815235E+02 -0.11034096199E+03 -0.15782597427E+02  0.12778864726E+03  0.41800000000E+01 0. -1.
         -5    1    4    4    0  501 -0.36152204060E+02  0.28222098544E+01 -0.24695143210E+02  0.44071183612E+02  0.41800000000E+01 0. -1.
</event>
<event>
11    1  0.1024303E-008  0.1736762E+03  0.7561462E-02  0.1074876E+00
         22   -1    0    0    0    0  0.00000000000E+00  0.00000000000E+00  0.21445639347E+03  0.21445639347E+03  0.00000000000E+00 0. -1.
         22   -1    0    0    0    0 -0.00000000000E+00 -0.00000000000E+00 -0.18210354919E+04  0.18210354919E+04  0.00000000000E+00 0.  1.
        -24    2    1    2    0    0 -0.14584378766E+02  0.70513227113E+02 -0.11370902983E+04  0.11421888304E+04  0.80225672011E+02 0.  0.
         25    2    1    2    0    0 -0.42642006212E+02 -0.17414206503E+03 -0.63716064895E+03  0.67362119572E+03  0.12509205906E+03 0.  0.
         24    2    1    2    0    0  0.57226384978E+02  0.10362883791E+03  0.16767184882E+03  0.21968185928E+03  0.78310122116E+02 0.  0.
        -13    1    5    5    0    0  0.44621329562E+02  0.39803632691E+02  0.28890514325E+02  0.66408237781E+02  0.00000000000E+00 0.  1.
         14    1    5    5    0    0  0.12605055417E+02  0.63825205224E+02  0.13878133449E+03  0.15327362150E+03  0.00000000000E+00 0. -1.
         11    1    3    3    0    0 -0.32736859898E+02  0.52815830531E+01 -0.20720735060E+03  0.20984394978E+03  0.00000000000E+00 0. -1.
        -12    1    3    3    0    0  0.18152481132E+02  0.65231644060E+02 -0.92988294773E+03  0.93234488063E+03  0.00000000000E+00 0.  1.
          5    1    4    4  501    0  0.34002628579E+02 -0.11444481744E+02 -0.72547468989E+02  0.81041733505E+02  0.41800000000E+01 0. -1.
         -5    1    4    4    0  501 -0.76644634792E+02 -0.16269758328E+03 -0.56461317996E+03  0.59257946221E+03  0.41800000000E+01 0. -1.
</event>
<event>
11    1  0.6930157E-009  0.1649217E+03  0.7561462E-02  0.1082537E+00
         22   -1    0    0    0    0  0.00000000000E+00  0.00000000000E+00  0.47507157446E+03  0.47507157446E+03  0.00000000000E+00 0.  1.
         22   -1    0    0    0    0 -0.00000000000E+00 -0.00000000000E+00 -0.22286796260E+04  0.22286796260E+04  0.00000000000E+00 0. -1.
        -24    2    1    2    0    0  0.11451867132E+02  0.24333800411E+02 -0.21172444986E+04  0.21189363081E+04  0.80271611772E+02 0.  0.
         25    2    1    2    0    0  0.90397559811E+02  0.15741432188E+02 -0.38803755207E+02  0.15991425626E+03  0.12508927384E+03 0.  0.
         24    2    1    2    0    0 -0.10184942694E+03 -0.40075232599E+02  0.40244020227E+03  0.42490063614E+03  0.81259486506E+02 0.  0.
        -11    1    5    5    0    0 -0.61006704316E+02 -0.33261481230E+02  0.11402662097E+03  0.13352982586E+03  0.00000000000E+00 0.  1.
         12    1    5    5    0    0 -0.40842722627E+02 -0.68137513691E+01  0.28841358131E+03  0.29137081028E+03  0.00000000000E+00 0. -1.
         11    1    3    3    0    0 -0.51407275825E+01  0.37621235477E+02 -0.19469465445E+04  0.19473167774E+04  0.00000000000E+00 0. -1.
        -12    1    3    3    0    0  0.16592594715E+02 -0.13287435066E+02 -0.17029795414E+03  0.17161953069E+03  0.00000000000E+00 0.  1.
          5    1    4    4  501    0  0.44623255857E+02 -0.37959500188E+02 -0.62112156765E+02  0.85484215126E+02  0.41800000000E+01 0.  1.
         -5    1    4    4    0  501  0.45774303954E+02  0.53700932375E+02  0.23308401558E+02  0.74430041137E+02  0.41800000000E+01 0.  1.
</event>
<event>
11    1  0.6930157E-009  0.2955501E+03  0.7561462E-02  0.1002092E+00
         22   -1    0    0    0    0  0.00000000000E+00  0.00000000000E+00  0.31833730371E+03  0.31833730371E+03  0.00000000000E+00 0. -1.
         22   -1    0    0    0    0 -0.00000000000E+00 -0.00000000000E+00 -0.16781880307E+04  0.16781880307E+04  0.00000000000E+00 0. -1.
        -24    2    1    2    0    0  0.27490855010E+03  0.45175109054E+02 -0.11827828373E+04  0.12181696576E+04  0.85712151386E+02 0.  0.
         25    2    1    2    0    0 -0.24417751890E+03 -0.10971807771E+02 -0.42914240186E+03  0.50946565864E+03  0.12509602296E+03 0.  0.
         24    2    1    2    0    0 -0.30731031200E+02 -0.34203301283E+02  0.25207451221E+03  0.26889001821E+03  0.81523126102E+02 0.  0.
        -11    1    5    5    0    0  0.22188342404E+02 -0.18019442743E+02  0.36689843690E+02  0.46509864388E+02  0.00000000000E+00 0.  1.
         12    1    5    5    0    0 -0.52919373605E+02 -0.16183858540E+02  0.21538466852E+03  0.22238015382E+03  0.00000000000E+00 0. -1.
         11    1    3    3    0    0  0.23376604652E+03  0.17531820614E+02 -0.85071090690E+03  0.88241882140E+03  0.00000000000E+00 0. -1.
        -12    1    3    3    0    0  0.41142503584E+02  0.27643288440E+02 -0.33207193044E+03  0.33575083616E+03  0.00000000000E+00 0.  1.
          5    1    4    4  501    0 -0.18896293269E+03 -0.25504739223E+02 -0.21317451242E+03  0.28603903020E+03  0.41800000000E+01 0. -1.
         -5    1    4    4    0  501 -0.55214586213E+02  0.14532931452E+02 -0.21596788944E+03  0.22342662844E+03  0.41800000000E+01 0. -1.
</event>
<event>
11    1  0.6930157E-009  0.7963495E+03  0.7561462E-02  0.8901242E-01
         22   -1    0    0    0    0  0.00000000000E+00  0.00000000000E+00  0.13623655218E+04  0.13623655218E+04  0.00000000000E+00 0. -1.
         22   -1    0    0    0    0 -0.00000000000E+00 -0.00000000000E+00 -0.16280632342E+04  0.16280632342E+04  0.00000000000E+00 0.  1.
         24    2    1    2    0    0  0.17034117730E+03  0.76260318979E+03 -0.79079120477E+03  0.11145408898E+04  0.79189163849E+02 0.  0.
         25    2    1    2    0    0 -0.77529361529E+02 -0.79384378081E+03 -0.42837249683E+03  0.91397390737E+03  0.12508619861E+03 0.  0.
        -24    2    1    2    0    0 -0.92811815776E+02  0.31240591024E+02  0.95346598926E+03  0.96191395887E+03  0.81185367674E+02 0.  0.
        -11    1    3    3    0    0  0.16928923991E+03  0.66963201700E+03 -0.67172576801E+03  0.96347360750E+03  0.00000000000E+00 0.  1.
         12    1    3    3    0    0  0.10519373951E+01  0.92971172788E+02 -0.11906543677E+03  0.15106728228E+03  0.00000000000E+00 0. -1.
         13    1    5    5    0    0  0.13836113530E+02  0.22983164398E+01  0.18667994026E+03  0.18720609069E+03  0.00000000000E+00 0. -1.
        -14    1    5    5    0    0 -0.10664792931E+03  0.28942274584E+02  0.76678604900E+03  0.77470786819E+03  0.00000000000E+00 0.  1.
          5    1    4    4  501    0 -0.10891087497E+03 -0.61352627397E+03 -0.35130669395E+03  0.71533903371E+03  0.41800000000E+01 0.  1.
         -5    1    4    4    0  501  0.31381513446E+02 -0.18031750684E+03 -0.77065802879E+02  0.19863487366E+03  0.41800000000E+01 0.  1.
</event>
<event>
11    1  0.6930157E-009  0.1302668E+03  0.7561462E-02  0.1118942E+00
         22   -1    0    0    0    0  0.00000000000E+00  0.00000000000E+00  0.13572964309E+04  0.13572964309E+04  0.00000000000E+00 0.  1.
         22   -1    0    0    0    0 -0.00000000000E+00 -0.00000000000E+00 -0.11555620767E+04  0.11555620767E+04  0.00000000000E+00 0. -1.
        -24    2    1    2    0    0  0.28595634630E+02 -0.94524373712E+01 -0.10790068529E+04  0.10823079450E+04  0.78915399523E+02 0.  0.
         25    2    1    2    0    0  0.20193656068E+01  0.29714720637E+02 -0.17200628034E+02  0.12973221338E+03  0.12509013999E+03 0.  0.
         24    2    1    2    0    0 -0.30615000237E+02 -0.20262283265E+02  0.12979418351E+04  0.13008183492E+04  0.78278554128E+02 0.  0.
        -13    1    5    5    0    0 -0.36959986790E+02 -0.14356015052E+02  0.12824765735E+04  0.12830893568E+04  0.00000000000E+00 0.  1.
         14    1    5    5    0    0  0.63449865530E+01 -0.59062682137E+01  0.15465261588E+02  0.17728992485E+02  0.00000000000E+00 0. -1.
         11    1    3    3    0    0  0.30552579513E+02  0.21587369230E+02 -0.25653924811E+03  0.25925250326E+03  0.00000000000E+00 0. -1.
        -12    1    3    3    0    0 -0.19569448822E+01 -0.31039806601E+02 -0.82246760481E+03  0.82305544174E+03  0.00000000000E+00 0.  1.
          5    1    4    4  501    0 -0.27781884214E+02  0.73543447825E+01 -0.63696278083E+02  0.70004340717E+02  0.41800000000E+01 0.  1.
         -5    1    4    4    0  501  0.29801249821E+02  0.22360375854E+02  0.46495650049E+02  0.59727872662E+02  0.41800000000E+01 0.  1.
</event>
<event>
11    1  0.6930157E-009  0.1429464E+03  0.7561462E-02  0.1104312E+00
         22   -1    0    0    0    0  0.00000000000E+00  0.00000000000E+00  0.38603861927E+03  0.38603861927E+03  0.00000000000E+00 0.  1.
         22   -1    0    0    0    0 -0.00000000000E+00 -0.00000000000E+00 -0.35659799440E+03  0.35659799440E+03  0.00000000000E+00 0.  1.
        -24    2    1    2    0    0 -0.64907069826E+02 -0.29247230581E+02 -0.27203968621E+03  0.29231446746E+03  0.79836262461E+02 0.  0.
         25    2    1    2    0    0  0.69424208660E+02 -0.30750075683E+02  0.14226850223E+02  0.14701830421E+03  0.12508673232E+03 0.  0.
         24    2    1    2    0    0 -0.45171388348E+01  0.59997306264E+02  0.28725346086E+03  0.30330384199E+03  0.76541416810E+02 0.  0.
        -13    1    5    5    0    0 -0.54226099456E+01  0.54226488190E+02  0.85024326756E+02  0.10099036023E+03  0.00000000000E+00 0.  1.
         14    1    5    5    0    0  0.90547111082E+00  0.57708180743E+01  0.20222913411E+03  0.20231348176E+03  0.00000000000E+00 0. -1.
         13    1    3    3    0    0  0.27230248300E+01  0.20703494453E+02 -0.79920939815E+02  0.82603911335E+02  0.00000000000E+00 0. -1.
        -14    1    3    3    0    0 -0.67630094656E+02 -0.49950725035E+02 -0.19211874640E+03  0.20971055613E+03  0.00000000000E+00 0.  1.
          5    1    4    4  501    0  0.62265053936E+02 -0.39709135605E+02 -0.44977316145E+02  0.86568953787E+02  0.41800000000E+01 0.  1.
         -5    1    4    4    0  501  0.71591547245E+01  0.89590599227E+01  0.59204166368E+02  0.60449350422E+02  0.41800000000E+01 0.  1.
</event>
<event>
11    1  0.6930157E-009  0.1681561E+03  0.7561462E-02  0.1079648E+00
         22   -1    0    0    0    0  0.00000000000E+00  0.00000000000E+00  0.25549216583E+03  0.25549216583E+03  0.00000000000E+00 0. -1.
         22   -1    0    0    0    0 -0.00000000000E+00 -0.00000000000E+00 -0.35745131222E+03  0.35745131222E+03  0.00000000000E+00 0.  1.
        -24    2    1    2    0    0  0.72163225519E+02 -0.15489615287E+02 -0.21111835746E+03  0.23753955516E+03  0.80041365020E+02 0.  0.
         25    2    1    2    0    0 -0.70082430166E+02  0.12366189340E+03 -0.18032942521E+02  0.19020142300E+03  0.12509030097E+03 0.  0.
         24    2    1    2    0    0 -0.20807953533E+01 -0.10817227811E+03  0.12719215358E+03  0.18520249989E+03  0.80103374280E+02 0.  0.
        -11    1    5    5    0    0 -0.13290408602E+02 -0.96669700493E+00 -0.53531982327E+01  0.14360577817E+02  0.00000000000E+00 0.  1.
         12    1    5    5    0    0  0.11209613249E+02 -0.10720558111E+03  0.13254535181E+03  0.17084192207E+03  0.00000000000E+00 0. -1.
         11    1    3    3    0    0 -0.66559333292E+01 -0.23572493406E+02 -0.86200538988E+02  0.89613039318E+02  0.00000000000E+00 0. -1.
        -12    1    3    3    0    0  0.78819158848E+02  0.80828781188E+01 -0.12491781847E+03  0.14792651585E+03  0.00000000000E+00 0.  1.
          5    1    4    4  501    0  0.33620307484E+02  0.14711782831E+02  0.71931012743E+01  0.37629439742E+02  0.41800000000E+01 0. -1.
         -5    1    4    4    0  501 -0.10370273765E+03  0.10895011057E+03 -0.25226043795E+02  0.15257198326E+03  0.41800000000E+01 0. -1.
</event>
<event>
11    1  0.6930157E-009  0.1272953E+03  0.7561462E-02  0.1122638E+00
         22   -1    0    0    0    0  0.00000000000E+00  0.00000000000E+00  0.44632716728E+03  0.44632716728E+03  0.00000000000E+00 0. -1.
         22   -1    0    0    0    0 -0.00000000000E+00 -0.00000000000E+00 -0.94921544605E+03  0.94921544605E+03  0.00000000000E+00 0.  1.
         24    2    1    2    0    0 -0.85970230337E+01 -0.11338032690E+02 -0.87165377757E+03  0.87530918040E+03  0.78634556875E+02 0.  0.
         25    2    1    2    0    0  0.25418628264E+02 -0.53663414611E+01 -0.11268808311E+02  0.12825668920E+03  0.12509151850E+03 0.  0.
        -24    2    1    2    0    0 -0.16821605230E+02  0.16704374151E+02  0.38003430712E+03  0.39197674374E+03  0.93046711524E+02 0.  0.
        -11    1    3    3    0    0 -0.40514564538E+01  0.33007493330E+02 -0.27751393511E+03  0.27949936153E+03  0.00000000000E+00 0.  1.
         12    1    3    3    0    0 -0.45455665799E+01 -0.44345526019E+02 -0.59413984246E+03  0.59580981886E+03  0.00000000000E+00 0. -1.
         11    1    5    5    0    0  0.35509244916E+02  0.24308830660E+02  0.17970455774E+03  0.18478515578E+03  0.00000000000E+00 0. -1.
        -12    1    5    5    0    0 -0.52330850147E+02 -0.76044565094E+01  0.20032974937E+03  0.20719158796E+03  0.00000000000E+00 0.  1.
          5    1    4    4  501    0  0.28172669586E+02 -0.63336973473E+02 -0.32678008208E+01  0.69522819582E+02  0.41800000000E+01 0. -1.
         -5    1    4    4    0  501 -0.27540413222E+01  0.57970632012E+02 -0.80010074905E+01  0.58733869619E+02  0.41800000000E+01 0. -1.
</event>
<event>
11    1  0.6930157E-009  0.1366374E+03  0.7561462E-02  0.1111373E+00
         22   -1    0    0    0    0  0.00000000000E+00  0.00000000000E+00  0.34271258402E+03  0.34271258402E+03  0.00000000000E+00 0.  1.
         22   -1    0    0    0    0 -0.00000000000E+00 -0.00000000000E+00 -0.75402596529E+03  0.75402596529E+03  0.00000000000E+00 0. -1.
        -24    2    1    2    0    0  0.20882691929E+02  0.25557972195E+02 -0.65560040995E+03  0.66172689679E+03  0.83554124067E+02 0.  0.
         25    2    1    2    0    0 -0.52694897129E+02  0.20162578029E+02 -0.32875050160E+02  0.14110830588E+03  0.12508998093E+03 0.  0.
         24    2    1    2    0    0  0.31812205200E+02 -0.45720550225E+02  0.27716207884E+03  0.29390334665E+03  0.80361521320E+02 0.  0.
        -13    1    5    5    0    0  0.22866722580E+02 -0.17630848809E+02  0.25597849346E+03  0.25760186906E+03  0.00000000000E+00 0.  1.
         14    1    5    5    0    0  0.89454826200E+01 -0.28089701416E+02  0.21183585381E+02  0.36301477580E+02  0.00000000000E+00 0. -1.
         11    1    3    3    0    0  0.88313925596E+01  0.54264005739E+02 -0.50210824058E+03  0.50510915758E+03  0.00000000000E+00 0. -1.
        -12    1    3    3    0    0  0.12051299370E+02 -0.28706033543E+02 -0.15349216936E+03  0.15661773921E+03  0.00000000000E+00 0.  1.
          5    1    4    4  501    0  0.24966368354E+02  0.46405935970E+02 -0.25515392139E+02  0.58697002292E+02  0.41800000000E+01 0.  1.
         -5    1    4    4    0  501 -0.77661265483E+02 -0.26243357940E+02 -0.73596580207E+01  0.82411303585E+02  0.41800000000E+01 0.  1.
</event>
<event>
11    1  0.6930157E-009  0.2323524E+03  0.7561462E-02  0.1033744E+00
         22   -1    0    0    0    0  0.00000000000E+00  0.00000000000E+00  0.11230442729E+04  0.11230442729E+04  0.00000000000E+00 0.  1.
         22   -1    0    0    0    0 -0.00000000000E+00 -0.00000000000E+00 -0.18898823981E+03  0.18898823981E+03  0.00000000000E+00 0. -1.
        -24    2    1    2    0    0 -0.19032324833E+03 -0.23866099324E+02 -0.17422421437E+02  0.20850770997E+03  0.79871113657E+02 0.  0.
         25    2    1    2    0    0  0.19486109347E+03  0.72209270555E+02  0.12738051875E+03  0.27396941632E+03  0.12509364498E+03 0.  0.
         24    2    1    2    0    0 -0.45378451424E+01 -0.48343171231E+02  0.82409793574E+03  0.82955538639E+03  0.81652171751E+02 0.  0.
        -13    1    5    5    0    0  0.97330584505E+01 -0.66278105107E+02  0.71161421549E+03  0.71476031740E+03  0.00000000000E+00 0.  1.
         14    1    5    5    0    0 -0.14270903593E+02  0.17934933877E+02  0.11248372025E+03  0.11479506898E+03  0.00000000000E+00 0. -1.
         13    1    3    3    0    0 -0.19765327272E+03 -0.27560418317E+02 -0.17006160755E+02  0.20028879744E+03  0.00000000000E+00 0. -1.
        -14    1    3    3    0    0  0.73300243873E+01  0.36943189931E+01 -0.41626068264E+00  0.82189125374E+01  0.00000000000E+00 0.  1.
          5    1    4    4  501    0  0.69273737317E+02  0.39004742067E+02  0.11972159021E+03  0.14377396200E+03  0.41800000000E+01 0. -1.
         -5    1    4    4    0  501  0.12558735616E+03  0.33204528488E+02  0.76589285405E+01  0.13019545432E+03  0.41800000000E+01 0. -1.
</event>
<event>
11    1  0.6930157E-009  0.1832633E+03  0.7561462E-02  0.1067033E+00
         22   -1    0    0    0    0  0.00000000000E+00  0.00000000000E+00  0.15408086845E+04  0.15408086845E+04  0.00000000000E+00 0.  1.
         22   -1    0    0    0    0 -0.00000000000E+00 -0.00000000000E+00 -0.10503710855E+04  0.10503710855E+04  0.00000000000E+00 0. -1.
        -24    2    1    2    0    0 -0.18155828529E+02 -0.37747828283E+01 -0.96407398084E+03  0.96762185570E+03  0.80681670782E+02 0.  0.
         25    2    1    2    0    0  0.14735246457E+03  0.35367330157E+02  0.39953927618E+02  0.20051741904E+03  0.12508925674E+03 0.  0.
         24    2    1    2    0    0 -0.12919663604E+03 -0.31592547329E+02  0.14145576522E+04  0.14230404952E+04  0.79881410233E+02 0.  0.
        -13    1    5    5    0    0 -0.13100103216E+03 -0.21237148368E+02  0.13900891409E+04  0.13964097202E+04  0.00000000000E+00 0.  1.
         14    1    5    5    0    0  0.18043961225E+01 -0.10355398961E+02  0.24468511329E+02  0.26630775048E+02  0.00000000000E+00 0. -1.
         13    1    3    3    0    0 -0.19351232661E+02 -0.33867056113E+02 -0.78996927492E+03  0.79093166772E+03  0.00000000000E+00 0. -1.
        -14    1    3    3    0    0  0.11954041317E+01  0.30092273285E+02 -0.17410470592E+03  0.17669018798E+03  0.00000000000E+00 0.  1.
          5    1    4    4  501    0  0.72717966967E+02  0.23426084902E+02  0.83445845897E+02  0.11321380557E+03  0.41800000000E+01 0. -1.
         -5    1    4    4    0  501  0.74634497600E+02  0.11941245255E+02 -0.43491918279E+02  0.87303613475E+02  0.41800000000E+01 0. -1.
</event>
<event>
11    1  0.6930157E-009  0.1469702E+03  0.7561462E-02  0.1100015E+00
         22   -1    0    0    0    0  0.00000000000E+00  0.00000000000E+00  0.33650283154E+03  0.33650283154E+03  0.00000000000E+00 0.  1.
         22   -1    0    0    0    0 -0.00000000000E+00 -0.00000000000E+00 -0.96353529763E+03  0.96353529763E+03  0.00000000000E+00 0. -1.
         24    2    1    2    0    0  0.36129624331E+02  0.83685008158E+02 -0.69900579650E+03  0.70927347924E+03  0.78429805934E+02 0.  0.
         25    2    1    2    0    0 -0.16613499807E+02 -0.27508478418E+02 -0.23487460558E+03  0.26804600788E+03  0.12509938942E+03 0.  0.
        -24    2    1    2    0    0 -0.19516124524E+02 -0.56176529739E+02  0.30684793598E+03  0.32271864206E+03  0.80342918192E+02 0.  0.
        -13    1    3    3    0    0  0.24333375278E+02 -0.35302075369E+01 -0.28265852218E+03  0.28372595172E+03  0.00000000000E+00 0.  1.
         14    1    3    3    0    0  0.11796249053E+02  0.87215215695E+02 -0.41634727432E+03  0.42554752752E+03  0.00000000000E+00 0. -1.
         11    1    5    5    0    0  0.26037405723E+02 -0.24371829242E+01  0.50537584308E+02  0.56902845140E+02  0.00000000000E+00 0. -1.
        -12    1    5    5    0    0 -0.45553530248E+02 -0.53739346815E+02  0.25631035168E+03  0.26581579692E+03  0.00000000000E+00 0.  1.
          5    1    4    4  501    0 -0.69736726129E+02 -0.25435451071E+02 -0.15632580351E+03  0.17310517724E+03  0.41800000000E+01 0.  1.
         -5    1    4    4    0  501  0.53123226322E+02 -0.20730273476E+01 -0.78548802064E+02  0.94940830642E+02  0.41800000000E+01 0.  1.
</event>
<event>
11    1  0.6930157E-009  0.1287357E+03  0.7561462E-02  0.1120832E+00
         22   -1    0    0    0    0  0.00000000000E+00  0.00000000000E+00  0.15568139772E+04  0.15568139772E+04  0.00000000000E+00 0. -1.
         22   -1    0    0    0    0 -0.00000000000E+00 -0.00000000000E+00 -0.34335982371E+02  0.34335982371E+02  0.00000000000E+00 0.  1.
         24    2    1    2    0    0 -0.24654344423E+02 -0.22315148469E+01  0.72254022656E+02  0.11166734848E+03  0.81462485654E+02 0.  0.
         25    2    1    2    0    0  0.46649409163E+02  0.32007646570E+02  0.34757901595E+03  0.37372177714E+03  0.12512448828E+03 0.  0.
        -24    2    1    2    0    0 -0.21995064740E+02 -0.29776131723E+02  0.11026449562E+04  0.11057608339E+04  0.74234234134E+02 0.  0.
        -13    1    3    3    0    0 -0.14274779582E+02 -0.40392513920E+02  0.23407202934E+02  0.48818251322E+02  0.00000000000E+00 0.  1.
         14    1    3    3    0    0 -0.10379564841E+02  0.38160999073E+02  0.48846819722E+02  0.62849097157E+02  0.00000000000E+00 0. -1.
         11    1    5    5    0    0 -0.44651331020E+02 -0.37602940572E+02  0.83905357460E+03  0.84108181739E+03  0.00000000000E+00 0. -1.
        -12    1    5    5    0    0  0.22656266279E+02  0.78268088491E+01  0.26359138160E+03  0.26467901653E+03  0.00000000000E+00 0.  1.
          5    1    4    4  501    0 -0.34916453827E+02  0.22794510206E+02  0.20419796780E+03  0.20845390593E+03  0.41800000000E+01 0. -1.
         -5    1    4    4    0  501  0.81565862990E+02  0.92131363638E+01  0.14338104815E+03  0.16526787122E+03  0.41800000000E+01 0. -1.
</event>
<event>
11    1  0.6930157E-009  0.2153284E+03  0.7561462E-02  0.1044184E+00
         22   -1    0    0    0    0  0.00000000000E+00  0.00000000000E+00  0.55277831316E+03  0.55277831316E+03  0.00000000000E+00 0.  1.
         22   -1    0    0    0    0 -0.00000000000E+00 -0.00000000000E+00 -0.17401147883E+04  0.17401147883E+04  0.00000000000E+00 0.  1.
        -24    2    1    2    0    0 -0.17395377521E+03  0.52502666409E+02 -0.13326334794E+04  0.13473637377E+04  0.80377892161E+02 0.  0.
         25    2    1    2    0    0  0.15129614805E+03 -0.29686743252E+02 -0.37168766303E+03  0.42138965376E+03  0.12508274984E+03 0.  0.
         24    2    1    2    0    0  0.22657627157E+02 -0.22815923157E+02  0.51698466728E+03  0.52413970994E+03  0.80095910743E+02 0.  0.
        -11    1    5    5    0    0  0.14649617014E+02 -0.33009809453E+02  0.50559668315E+03  0.50688486347E+03  0.00000000000E+00 0.  1.
         12    1    5    5    0    0  0.80080101433E+01  0.10193886296E+02  0.11387984121E+02  0.17254846467E+02  0.00000000000E+00 0. -1.
         13    1    3    3    0    0 -0.21237646318E+02 -0.20188899908E+02 -0.17387673130E+03  0.17632852006E+03  0.00000000000E+00 0. -1.
        -14    1    3    3    0    0 -0.15271612889E+03  0.72691566317E+02 -0.11587567481E+04  0.11710352177E+04  0.00000000000E+00 0.  1.
          5    1    4    4  501    0  0.11275111584E+03  0.26037073233E+02 -0.30494786585E+03  0.32619230002E+03  0.41800000000E+01 0. -1.
         -5    1    4    4    0  501  0.38545032208E+02 -0.55723816484E+02 -0.66739797179E+02  0.95197353739E+02  0.41800000000E+01 0. -1.
</event>
<event>
11    1  0.6930157E-009  0.1771496E+03  0.7561462E-02  0.1071972E+00
         22   -1    0    0    0    0  0.00000000000E+00  0.00000000000E+00  0.23606473054E+03  0.23606473054E+03  0.00000000000E+00 0.  1.
         22   -1    0    0    0    0 -0.00000000000E+00 -0.00000000000E+00 -0.45551851075E+03  0.45551851075E+03  0.00000000000E+00 0.  1.
         24    2    1    2    0    0  0.24937352862E+02  0.50223852845E+02 -0.24258256153E+03  0.26325594781E+03  0.85516594502E+02 0.  0.
         25    2    1    2    0    0  0.26767259901E+02 -0.15837541878E+03 -0.11053604794E+03  0.23165728059E+03  0.12509044040E+03 0.  0.
        -24    2    1    2    0    0 -0.51704612763E+02  0.10815156594E+03  0.13366482926E+03  0.19667001289E+03  0.80266301737E+02 0.  0.
        -11    1    3    3    0    0  0.40950782026E+02  0.40138269368E+02 -0.23653816915E+03  0.24338930273E+03  0.00000000000E+00 0.  1.
         12    1    3    3    0    0 -0.16013429164E+02  0.10085583477E+02 -0.60443923839E+01  0.19866645085E+02  0.00000000000E+00 0. -1.
         11    1    5    5    0    0  0.11916775938E+02  0.22965335716E+02 -0.34833033312E-02  0.25873078778E+02  0.00000000000E+00 0. -1.
        -12    1    5    5    0    0 -0.63621388701E+02  0.85186230220E+02  0.13366831256E+03  0.17079693411E+03  0.00000000000E+00 0.  1.
          5    1    4    4  501    0  0.48313765995E+02 -0.16671709556E+03 -0.11430783261E+03  0.20787631643E+03  0.41800000000E+01 0.  1.
         -5    1    4    4    0  501 -0.21546506094E+02  0.83416767818E+01  0.37717846757E+01  0.23780964153E+02  0.41800000000E+01 0.  1.
</event>
<event>
11    1  0.6930157E-009  0.1304630E+03  0.7561462E-02  0.1118701E+00
         22   -1    0    0    0    0  0.00000000000E+00  0.00000000000E+00  0.16358298290E+04  0.16358298290E+04  0.00000000000E+00 0.  1.
         22   -1    0    0    0    0 -0.00000000000E+00 -0.00000000000E+00 -0.14063511623E+03  0.14063511623E+03  0.00000000000E+00 0. -1.
         24    2    1    2    0    0 -0.10680053776E+02 -0.30056542556E+02 -0.11600531161E+03  0.14143732819E+03  0.74362801091E+02 0.  0.
         25    2    1    2    0    0 -0.24538229764E+02  0.10607049401E+02  0.38775157511E+03  0.40830471099E+03  0.12508724477E+03 0.  0.
        -24    2    1    2    0    0  0.35218283540E+02  0.19449493154E+02  0.12234484493E+04  0.12267229061E+04  0.80027307370E+02 0.  0.
        -11    1    3    3    0    0  0.79926231157E+01  0.22507927025E+02 -0.24120088933E+02  0.33945065818E+02  0.00000000000E+00 0.  1.
         12    1    3    3    0    0 -0.18672676892E+02 -0.52564469581E+02 -0.91885222675E+02  0.10749226238E+03  0.00000000000E+00 0. -1.
         11    1    5    5    0    0  0.53652014925E+02 -0.87425593253E+01  0.64076829072E+03  0.64306995999E+03  0.00000000000E+00 0. -1.
        -12    1    5    5    0    0 -0.18433731385E+02  0.28192052480E+02  0.58268015855E+03  0.58365294606E+03  0.00000000000E+00 0.  1.
          5    1    4    4  501    0  0.33636323361E+02  0.47509291865E+02  0.15924419121E+03  0.16960165063E+03  0.41800000000E+01 0.  1.
         -5    1    4    4    0  501 -0.58174553125E+02 -0.36902242464E+02  0.22850738390E+03  0.23870306036E+03  0.41800000000E+01 0.  1.
</event>
<event>
11    1  0.6930157E-009  0.2100128E+03  0.7561462E-02  0.1047661E+00
         22   -1    0    0    0    0  0.00000000000E+00  0.00000000000E+00  0.11975731999E+03  0.11975731999E+03  0.00000000000E+00 0. -1.
         22   -1    0    0    0    0 -0.00000000000E+00 -0.00000000000E+00 -0.18876376236E+04  0.18876376236E+04  0.00000000000E+00 0. -1.
        -24    2    1    2    0    0  0.17939113100E+03  0.38290696795E+02 -0.15126986200E+04  0.15259535256E+04  0.81422921294E+02 0.  0.
         25    2    1    2    0    0 -0.11741290378E+03 -0.22606678383E+02 -0.31658774327E+03  0.36079326543E+03  0.12508848593E+03 0.  0.
         24    2    1    2    0    0 -0.61978227224E+02 -0.15684018412E+02  0.61406059669E+02  0.12064815251E+03  0.81841208796E+02 0.  0.
        -13    1    5    5    0    0  0.73704230989E+01 -0.16565189677E+02 -0.10330728003E+02  0.20867500731E+02  0.00000000000E+00 0.  1.
         14    1    5    5    0    0 -0.69348650323E+02  0.88117126455E+00  0.71736787673E+02  0.99780651782E+02  0.00000000000E+00 0. -1.
         13    1    3    3    0    0  0.94814212886E+02 -0.18843478371E+02 -0.84243960284E+03  0.84796774471E+03  0.00000000000E+00 0. -1.
        -14    1    3    3    0    0  0.84576918114E+02  0.57134175166E+02 -0.67025901715E+03  0.67798578092E+03  0.00000000000E+00 0.  1.
          5    1    4    4  501    0 -0.61978870349E+02 -0.10572511259E+02 -0.29218149869E+03  0.29889907819E+03  0.41800000000E+01 0. -1.
         -5    1    4    4    0  501 -0.55434033427E+02 -0.12034167124E+02 -0.24406244577E+02  0.61894187244E+02  0.41800000000E+01 0. -1.
</event>
<event>
11    1  0.6930157E-009  0.2405630E+03  0.7561462E-02  0.1029050E+00
         22   -1    0    0    0    0  0.00000000000E+00  0.00000000000E+00  0.13420327727E+04  0.13420327727E+04  0.00000000000E+00 0.  1.
         22   -1    0    0    0    0 -0.00000000000E+00 -0.00000000000E+00 -0.23502822423E+03  0.23502822423E+03  0.00000000000E+00 0. -1.
         24    2    1    2    0    0  0.17960087092E+03 -0.88654020743E+02 -0.12735261467E+03  0.25008896074E+03  0.78802230882E+02 0.  0.
         25    2    1    2    0    0 -0.20459203763E+03  0.13065276042E+03  0.38186850049E+03  0.46946649307E+03  0.12508873164E+03 0.  0.
        -24    2    1    2    0    0  0.24991166706E+02 -0.41998739681E+02  0.85248866261E+03  0.85750554307E+03  0.78678993253E+02 0.  0.
        -11    1    3    3    0    0  0.88359403469E+02 -0.69477372788E+00 -0.47943810274E+02  0.10053096953E+03  0.00000000000E+00 0.  1.
         12    1    3    3    0    0  0.91241467453E+02 -0.87959247015E+02 -0.79408804396E+02  0.14955799121E+03  0.00000000000E+00 0. -1.
         13    1    5    5    0    0  0.22130547841E+02 -0.23964673731E+02  0.10861012741E+03  0.11340293872E+03  0.00000000000E+00 0. -1.
        -14    1    5    5    0    0  0.28606188651E+01 -0.18034065950E+02  0.74387853520E+03  0.74410260435E+03  0.00000000000E+00 0.  1.
          5    1    4    4  501    0 -0.15672881279E+03  0.65634634848E+02  0.16039965518E+03  0.23370354690E+03  0.41800000000E+01 0. -1.
         -5    1    4    4    0  501 -0.47863224836E+02  0.65018125577E+02  0.22146884531E+03  0.23576294618E+03  0.41800000000E+01 0. -1.
</event>
<event>
11    1  0.6930157E-009  0.1481899E+03  0.7561462E-02  0.1098743E+00
         22   -1    0    0    0    0  0.00000000000E+00  0.00000000000E+00  0.77245540570E+03  0.77245540570E+03  0.00000000000E+00 0.  1.
         22   -1    0    0    0    0 -0.00000000000E+00 -0.00000000000E+00 -0.30417832394E+03  0.30417832394E+03  0.00000000000E+00 0.  1.
        -24    2    1    2    0    0  0.51389380199E+02  0.60691184797E+02 -0.26184334057E+03  0.28499735879E+03  0.79606979659E+02 0.  0.
         25    2    1    2    0    0 -0.48679335158E+02 -0.61470730869E+02  0.16604341007E+03  0.22218239166E+03  0.12508506189E+03 0.  0.
         24    2    1    2    0    0 -0.27100450410E+01  0.77954607194E+00  0.56407701225E+03  0.56945397919E+03  0.78019270885E+02 0.  0.
        -13    1    5    5    0    0 -0.64251721225E+01 -0.15200269805E+02  0.54038057589E+03  0.54063249795E+03  0.00000000000E+00 0.  1.
         14    1    5    5    0    0  0.37151270814E+01  0.15979815877E+02  0.23696436356E+02  0.28821481237E+02  0.00000000000E+00 0. -1.
         13    1    3    3    0    0 -0.12145672539E+02  0.32623851970E+02 -0.42599954231E+02  0.55014445188E+02  0.00000000000E+00 0. -1.
        -14    1    3    3    0    0  0.63535052738E+02  0.28067332827E+02 -0.21924338634E+03  0.22998291361E+03  0.00000000000E+00 0.  1.
          5    1    4    4  501    0  0.11346194599E+02 -0.38745241617E+02  0.15068374559E+03  0.15605445673E+03  0.41800000000E+01 0.  1.
         -5    1    4    4    0  501 -0.60025529757E+02 -0.22725489251E+02  0.15359664479E+02  0.66127934923E+02  0.41800000000E+01 0.  1.
</event>
<event>
11    1  0.6930157E-009  0.1523713E+03  0.7561462E-02  0.1094480E+00
         22   -1    0    0    0    0  0.00000000000E+00  0.00000000000E+00  0.52896052992E+03  0.52896052992E+03  0.00000000000E+00 0. -1.
         22   -1    0    0    0    0 -0.00000000000E+00 -0.00000000000E+00 -0.21531626845E+03  0.21531626845E+03  0.00000000000E+00 0. -1.
         24    2    1    2    0    0  0.34518846614E+02  0.25689996459E+02 -0.16143593050E+03  0.18444780715E+03  0.78153101127E+02 0.  0.
         25    2    1    2    0    0 -0.60717506592E+02 -0.98742719444E+02  0.19919857791E+03  0.26222839617E+03  0.12508764154E+03 0.  0.
        -24    2    1    2    0    0  0.26198659978E+02  0.73052722985E+02  0.27588161407E+03  0.29760059506E+03  0.80202113940E+02 0.  0.
        -13    1    3    3    0    0  0.18176801806E+02  0.53746337816E+02 -0.10133733021E+03  0.11613922441E+03  0.00000000000E+00 0.  1.
         14    1    3    3    0    0  0.16342044808E+02 -0.28056341357E+02 -0.60098600293E+02  0.68308582741E+02  0.00000000000E+00 0. -1.
         11    1    5    5    0    0  0.59184404841E+01  0.61416301142E+02  0.26449035330E+03  0.27159185734E+03  0.00000000000E+00 0. -1.
        -12    1    5    5    0    0  0.20280219494E+02  0.11636421843E+02  0.11391260765E+02  0.26008737721E+02  0.00000000000E+00 0.  1.
          5    1    4    4  501    0 -0.85995509150E+02 -0.45849178088E+02  0.17140203956E+03  0.19721436634E+03  0.41800000000E+01 0.  1.
         -5    1    4    4    0  501  0.25278002558E+02 -0.52893541356E+02  0.27796538347E+02  0.65014029829E+02  0.41800000000E+01 0.  1.
</event>
<event>
11    1  0.6930157E-009  0.1472170E+03  0.7561462E-02  0.1099757E+00
         22   -1    0    0    0    0  0.00000000000E+00  0.00000000000E+00  0.12925266159E+03  0.12925266159E+03  0.00000000000E+00 0.  1.
         22   -1    0    0    0    0 -0.00000000000E+00 -0.00000000000E+00 -0.19985074215E+04  0.19985074215E+04  0.00000000000E+00 0. -1.
         24    2    1    2    0    0  0.42946929974E+02 -0.64256405632E+02 -0.18393826162E+04  0.18431257856E+04  0.88379456369E+02 0.  0.
         25    2    1    2    0    0 -0.64184797973E+02  0.59491695086E+02 -0.94005649129E+02  0.17928677000E+03  0.12509090197E+03 0.  0.
        -24    2    1    2    0    0  0.21237867999E+02  0.47647105459E+01  0.64133505386E+02  0.10534752753E+03  0.80692289216E+02 0.  0.
        -11    1    3    3    0    0 -0.47291651127E-01  0.44577673927E+01 -0.96120115600E+03  0.96121149401E+03  0.00000000000E+00 0.  1.
         12    1    3    3    0    0  0.42994221625E+02 -0.68714173025E+02 -0.87818146018E+03  0.88191429157E+03  0.00000000000E+00 0. -1.
         11    1    5    5    0    0  0.89997235449E+01 -0.18441339296E+02 -0.12717693296E+02  0.24141618456E+02  0.00000000000E+00 0. -1.
        -12    1    5    5    0    0  0.12238144454E+02  0.23206049842E+02  0.76851198682E+02  0.81205909070E+02  0.00000000000E+00 0.  1.
          5    1    4    4  501    0 -0.21502272135E+02 -0.18807876257E+02 -0.84750120696E+02  0.89532894928E+02  0.41800000000E+01 0.  1.
         -5    1    4    4    0  501 -0.42682525838E+02  0.78299571343E+02 -0.92555284336E+01  0.89753875075E+02  0.41800000000E+01 0.  1.
</event>
<event>
11    1  0.6930157E-009  0.1397829E+03  0.7561462E-02  0.1107801E+00
         22   -1    0    0    0    0  0.00000000000E+00  0.00000000000E+00  0.24086738590E+03  0.24086738590E+03  0.00000000000E+00 0.  1.
         22   -1    0    0    0    0 -0.00000000000E+00 -0.00000000000E+00 -0.26378759651E+03  0.26378759651E+03  0.00000000000E+00 0.  1.
         24    2    1    2    0    0 -0.21803116253E+02  0.45502996940E+02 -0.17885729680E+03  0.20280192321E+03  0.81195990255E+02 0.  0.
         25    2    1    2    0    0  0.74906557125E+02 -0.51810106935E+02  0.62685892360E+02  0.16694903971E+03  0.12508869365E+03 0.  0.
        -24    2    1    2    0    0 -0.53103440872E+02  0.63071099948E+01  0.93251193828E+02  0.13490401948E+03  0.81508001164E+02 0.  0.
        -11    1    3    3    0    0 -0.59583102849E+01  0.64016891506E+01 -0.15314501352E+03  0.15339451832E+03  0.00000000000E+00 0.  1.
         12    1    3    3    0    0 -0.15844805968E+02  0.39101307790E+02 -0.25712283279E+02  0.49407404895E+02  0.00000000000E+00 0. -1.
         13    1    5    5    0    0  0.11445435977E+02 -0.83478043508E+01 -0.61801134899E+01  0.15455667081E+02  0.00000000000E+00 0. -1.
        -14    1    5    5    0    0 -0.64548876849E+02  0.14654914346E+02  0.99431307318E+02  0.11944835240E+03  0.00000000000E+00 0.  1.
          5    1    4    4  501    0 -0.70824283471E+01 -0.67857953502E+02  0.43833493908E+02  0.81201663979E+02  0.41800000000E+01 0. -1.
         -5    1    4    4    0  501  0.81988985472E+02  0.16047846567E+02  0.18852398452E+02  0.85747375735E+02  0.41800000000E+01 0. -1.
</event>
<event>
11    1  0.6930157E-009  0.2221423E+03  0.7561462E-02  0.1039884E+00
         22   -1    0    0    0    0  0.00000000000E+00  0.00000000000E+00  0.80789799792E+03  0.80789799792E+03  0.00000000000E+00 0. -1.
         22   -1    0    0    0    0 -0.00000000000E+00 -0.00000000000E+00 -0.12948170609E+04  0.12948170609E+04  0.00000000000E+00 0.  1.
         24    2    1    2    0    0  0.56259667677E+02 -0.27916997981E+02 -0.12286816891E+04  0.12330572906E+04  0.82626144882E+02 0.  0.
         25    2    1    2    0    0 -0.21322116860E+03 -0.35057382097E+02  0.32062483687E+03  0.40638516573E+03  0.12512525778E+03 0.  0.
        -24    2    1    2    0    0  0.15696150092E+03  0.62974380077E+02  0.42113778924E+03  0.46327260249E+03  0.93068691710E+02 0.  0.
        -13    1    3    3    0    0  0.57560774167E+02 -0.17723721366E+02 -0.12117878666E+04  0.12132836464E+04  0.00000000000E+00 0.  1.
         14    1    3    3    0    0 -0.13011064901E+01 -0.10193276614E+02 -0.16893822520E+02  0.19773644216E+02  0.00000000000E+00 0. -1.
         11    1    5    5    0    0  0.10042172658E+03  0.14372703647E+02  0.33152901721E+03  0.34670244740E+03  0.00000000000E+00 0. -1.
        -12    1    5    5    0    0  0.56539774338E+02  0.48601676430E+02  0.89608772035E+02  0.11657015510E+03  0.00000000000E+00 0.  1.
          5    1    4    4  501    0 -0.58248964404E+02  0.14222474168E+02  0.17888105265E+02  0.62711062306E+02  0.41800000000E+01 0. -1.
         -5    1    4    4    0  501 -0.15497220420E+03 -0.49279856265E+02  0.30273673160E+03  0.34367410343E+03  0.41800000000E+01 0. -1.
</event>
<event>
11    1  0.6930157E-009  0.1580597E+03  0.7561462E-02  0.1088917E+00
         22   -1    0    0    0    0  0.00000000000E+00  0.00000000000E+00  0.30693188024E+03  0.30693188024E+03  0.00000000000E+00 0. -1.
         22   -1    0    0    0    0 -0.00000000000E+00 -0.00000000000E+00 -0.63980691497E+03  0.63980691497E+03  0.00000000000E+00 0.  1.
        -24    2    1    2    0    0 -0.11440308749E+03 -0.56620268043E+01 -0.36789420287E+03  0.39345333320E+03  0.79619444427E+02 0.  0.
         25    2    1    2    0    0  0.59559590175E+02  0.49531715691E+02 -0.22697726635E+03  0.27049263384E+03  0.12508736899E+03 0.  0.
         24    2    1    2    0    0  0.54843497312E+02 -0.43869688887E+02  0.26199643448E+03  0.28279282817E+03  0.79983080581E+02 0.  0.
        -13    1    5    5    0    0  0.37973523746E+02 -0.20417027963E+02  0.39640638742E+02  0.58568112284E+02  0.00000000000E+00 0.  1.
         14    1    5    5    0    0  0.16869973566E+02 -0.23452660924E+02  0.22235579574E+03  0.22422471588E+03  0.00000000000E+00 0. -1.
         11    1    3    3    0    0 -0.59646521866E+02 -0.53664328115E+01 -0.77505112938E+02  0.97946662543E+02  0.00000000000E+00 0. -1.
        -12    1    3    3    0    0 -0.54756565622E+02 -0.29559399275E+00 -0.29038908993E+03  0.29550667066E+03  0.00000000000E+00 0.  1.
          5    1    4    4  501    0  0.56012771133E+02  0.88732073747E+02 -0.18547527882E+03  0.21314164984E+03  0.41800000000E+01 0.  1.
         -5    1    4    4    0  501  0.35468190417E+01 -0.39200358056E+02 -0.41501987526E+02  0.57350983999E+02  0.41800000000E+01 0.  1.
</event>
<event>
11    1  0.6930157E-009  0.1890922E+03  0.7561462E-02  0.1062517E+00
         22   -1    0    0    0    0  0.00000000000E+00  0.00000000000E+00  0.26634564343E+04  0.26634564343E+04  0.00000000000E+00 0. -1.
         22   -1    0    0    0    0 -0.00000000000E+00 -0.00000000000E+00 -0.24685232932E+03  0.24685232932E+03  0.00000000000E+00 0.  1.
        -24    2    1    2    0    0 -0.12527543846E+03  0.66764679378E+02 -0.19095621622E+03  0.25106318421E+03  0.80106105009E+02 0.  0.
         25    2    1    2    0    0  0.14185385244E+03 -0.30455858400E+02  0.34401415530E+03  0.39375561686E+03  0.12509065512E+03 0.  0.
         24    2    1    2    0    0 -0.16578413982E+02 -0.36308820978E+02  0.22635461659E+04  0.22654899625E+04  0.84913785369E+02 0.  0.
        -13    1    5    5    0    0  0.80179891449E+01 -0.44228726552E+02  0.57780504482E+03  0.57955080728E+03  0.00000000000E+00 0.  1.
         14    1    5    5    0    0 -0.24596403127E+02  0.79199055740E+01  0.16857411211E+04  0.16859391552E+04  0.00000000000E+00 0. -1.
         11    1    3    3    0    0 -0.90380426877E+02  0.44607225297E+01 -0.12102174107E+03  0.15111181760E+03  0.00000000000E+00 0. -1.
        -12    1    3    3    0    0 -0.34895011584E+02  0.62303956849E+02 -0.69934475152E+02  0.99951366610E+02  0.00000000000E+00 0.  1.
          5    1    4    4  501    0  0.97332812023E+02  0.88194919135E+01  0.90210288127E+02  0.13306700650E+03  0.41800000000E+01 0. -1.
         -5    1    4    4    0  501  0.44521040420E+02 -0.39275350314E+02  0.25380386717E+03  0.26068861036E+03  0.41800000000E+01 0. -1.
</event>
<event>
11    1  0.6930157E-009  0.1738568E+03  0.7561462E-02  0.1074723E+00
         22   -1    0    0    0    0  0.00000000000E+00  0.00000000000E+00  0.12454749253E+04  0.12454749253E+04  0.00000000000E+00 0.  1.
         22   -1    0    0    0    0 -0.00000000000E+00 -0.00000000000E+00 -0.10891040660E+03  0.10891040660E+03  0.00000000000E+00 0.  1.
        -24    2    1    2    0    0  0.85825437602E+02 -0.73312471571E+02  0.28674014054E+02  0.14188448268E+03  0.81044945035E+02 0.  0.
         25    2    1    2    0    0 -0.88652882340E+02  0.10596363874E+03  0.12622082915E+03  0.22509287470E+03  0.12508988067E+03 0.  0.
         24    2    1    2    0    0  0.28274447382E+01 -0.32651167174E+02  0.98166967546E+03  0.98740797448E+03  0.10111905453E+03 0.  0.
        -13    1    5    5    0    0  0.20482874710E+01  0.23927119657E+01  0.87737076728E+03  0.87737642083E+03  0.00000000000E+00 0.  1.
         14    1    5    5    0    0  0.77915726721E+00 -0.35043879139E+02  0.10429890818E+03  0.11003155365E+03  0.00000000000E+00 0. -1.
         11    1    3    3    0    0  0.99905055586E+02 -0.58718038135E+02  0.13728505522E+02  0.11669318745E+03  0.00000000000E+00 0. -1.
        -12    1    3    3    0    0 -0.14079617984E+02 -0.14594433436E+02  0.14945508532E+02  0.25191295227E+02  0.00000000000E+00 0.  1.
          5    1    4    4  501    0  0.24272216139E+02  0.11794962921E+02  0.55552983434E+02  0.61902083932E+02  0.41800000000E+01 0.  1.
         -5    1    4    4    0  501 -0.11292509848E+03  0.94168675824E+02  0.70667845716E+02  0.16319079077E+03  0.41800000000E+01 0.  1.
</event>
<event>
11    1  0.6930157E-009  0.1315734E+03  0.7561462E-02  0.1117351E+00
         22   -1    0    0    0    0  0.00000000000E+00  0.00000000000E+00  0.28863930210E+03  0.28863930210E+03  0.00000000000E+00 0. -1.
         22   -1    0    0    0    0 -0.00000000000E+00 -0.00000000000E+00 -0.52063216537E+03  0.52063216537E+03  0.00000000000E+00 0. -1.
        -24    2    1    2    0    0 -0.20107987242E+02 -0.35337888220E+02 -0.35292574187E+03  0.36471111512E+03  0.82489518890E+02 0.  0.
         25    2    1    2    0    0 -0.19349951043E+02  0.54374694758E+02 -0.12316200955E+03  0.18479088583E+03  0.12509101828E+03 0.  0.
         24    2    1    2    0    0  0.39457938284E+02 -0.19036806538E+02  0.24409488814E+03  0.25976946652E+03  0.77320970120E+02 0.  0.
        -13    1    5    5    0    0 -0.83395906604E+01 -0.29194941648E+02  0.41844049776E+02  0.51699302625E+02  0.00000000000E+00 0.  1.
         14    1    5    5    0    0  0.47797528945E+02  0.10158135110E+02  0.20225083837E+03  0.20807016389E+03  0.00000000000E+00 0. -1.
         13    1    3    3    0    0 -0.13877201305E+02 -0.62504353538E+02 -0.25219118171E+03  0.26019178131E+03  0.00000000000E+00 0. -1.
        -14    1    3    3    0    0 -0.62307859366E+01  0.27166465318E+02 -0.10073456015E+03  0.10451933381E+03  0.00000000000E+00 0.  1.
          5    1    4    4  501    0  0.11035881229E+02 -0.34165158976E+02 -0.65376472343E+02  0.74703442347E+02  0.41800000000E+01 0.  1.
         -5    1    4    4    0  501 -0.30385832272E+02  0.88539853735E+02 -0.57785537207E+02  0.11008744348E+03  0.41800000000E+01 0.  1.
</event>
<event>
11    1  0.7081610E-009  0.1903345E+03  0.7561462E-02  0.1061577E+00
         22   -1    0    0    0    0  0.00000000000E+00  0.00000000000E+00  0.37791159764E+03  0.37791159764E+03  0.00000000000E+00 0.  1.
         22   -1    0    0    0    0 -0.00000000000E+00 -0.00000000000E+00 -0.48851682782E+03  0.48851682782E+03  0.00000000000E+00 0. -1.
         24    2    1    2    0    0 -0.64947033906E+02  0.11885489571E+02 -0.31872718894E+03  0.33550078288E+03  0.81328791166E+02 0.  0.
         25    2    1    2    0    0  0.13746547709E+03  0.10774469175E+03 -0.55554511338E+02  0.22189855288E+03  0.12508792128E+03 0.  0.
        -24    2    1    2    0    0 -0.72518443181E+02 -0.11963018133E+03  0.26367647009E+03  0.30902908969E+03  0.80021200389E+02 0.  0.
        -11    1    3    3    0    0  0.15049167030E+02 -0.13976761698E+02 -0.69842737135E+02  0.72799967214E+02  0.00000000000E+00 0.  1.
         12    1    3    3    0    0 -0.79996200936E+02  0.25862251269E+02 -0.24888445180E+03  0.26270081567E+03  0.00000000000E+00 0. -1.
         11    1    5    5    0    0 -0.21448521247E+02 -0.56215854301E+02  0.43404701320E+02  0.74190494237E+02  0.00000000000E+00 0. -1.
        -12    1    5    5    0    0 -0.51069921934E+02 -0.63414327025E+02  0.22027176877E+03  0.23483859546E+03  0.00000000000E+00 0.  1.
          5    1    4    4  501    0 -0.28070295669E+00 -0.15615326005E+02 -0.31469641180E+02  0.35379767048E+02  0.41800000000E+01 0.  1.
         -5    1    4    4    0  501  0.13774618004E+03  0.12336001776E+03 -0.24084870158E+02  0.18651878583E+03  0.41800000000E+01 0.  1.
</event>
<event>
11    1  0.6930157E-009  0.1714696E+03  0.7561462E-02  0.1076760E+00
         22   -1    0    0    0    0  0.00000000000E+00  0.00000000000E+00  0.42791961925E+03  0.42791961925E+03  0.00000000000E+00 0. -1.
         22   -1    0    0    0    0 -0.00000000000E+00 -0.00000000000E+00 -0.60898276627E+03  0.60898276627E+03  0.00000000000E+00 0.  1.
         24    2    1    2    0    0  0.11593903783E+03 -0.65595420701E+01 -0.53197662169E+03  0.55043022710E+03  0.80556941344E+02 0.  0.
         25    2    1    2    0    0 -0.14722615754E+03  0.91656164730E+02  0.24484379429E+03  0.32507101651E+03  0.12508512372E+03 0.  0.
        -24    2    1    2    0    0  0.31287119711E+02 -0.85096622660E+02  0.10606968039E+03  0.16140114190E+03  0.81112467981E+02 0.  0.
        -11    1    3    3    0    0  0.11298602660E+03  0.12122873302E+02 -0.50405585549E+03  0.51670602060E+03  0.00000000000E+00 0.  1.
         12    1    3    3    0    0  0.29530112301E+01 -0.18682415372E+02 -0.27920766197E+02  0.33724206506E+02  0.00000000000E+00 0. -1.
         11    1    5    5    0    0  0.41928656457E+02 -0.31568386912E+02  0.90551406742E+02  0.10466199190E+03  0.00000000000E+00 0. -1.
        -12    1    5    5    0    0 -0.10641536746E+02 -0.53528235748E+02  0.15518273645E+02  0.56739150007E+02  0.00000000000E+00 0.  1.
          5    1    4    4  501    0 -0.15327649744E+02 -0.25436027046E+02  0.10571962294E+02  0.31798853837E+02  0.41800000000E+01 0. -1.
         -5    1    4    4    0  501 -0.13189850780E+03  0.11709219178E+03  0.23427183200E+03  0.29327216268E+03  0.41800000000E+01 0. -1.
</event>
<event>
11    1  0.6930157E-009  0.1474926E+03  0.7561462E-02  0.1099469E+00
         22   -1    0    0    0    0  0.00000000000E+00  0.00000000000E+00  0.75841146803E+03  0.75841146803E+03  0.00000000000E+00 0.  1.
         22   -1    0    0    0    0 -0.00000000000E+00 -0.00000000000E+00 -0.78234333932E+03  0.78234333932E+03  0.00000000000E+00 0. -1.
        -24    2    1    2    0    0 -0.14870444795E+02  0.73430266410E+02 -0.55413191182E+03  0.56447380784E+03  0.77171043068E+02 0.  0.
         25    2    1    2    0    0  0.56346777094E+02 -0.59712735848E+01 -0.19716252565E+03  0.24027626760E+03  0.12509599455E+03 0.  0.
         24    2    1    2    0    0 -0.41476332299E+02 -0.67458992825E+02  0.72736256618E+03  0.73600473190E+03  0.79847735349E+02 0.  0.
        -11    1    5    5    0    0 -0.44392974225E+02 -0.82937758616E+02  0.55419869426E+03  0.56212596514E+03  0.00000000000E+00 0.  1.
         12    1    5    5    0    0  0.29166419263E+01  0.15478765791E+02  0.17316387193E+03  0.17387876676E+03  0.00000000000E+00 0. -1.
         11    1    3    3    0    0 -0.42860835628E+02  0.60697641260E+02 -0.33132104541E+03  0.33955101239E+03  0.00000000000E+00 0. -1.
        -12    1    3    3    0    0  0.27990390832E+02  0.12732625150E+02 -0.22281086641E+03  0.22492279545E+03  0.00000000000E+00 0.  1.
          5    1    4    4  501    0  0.52938599306E+02  0.24427579396E+02 -0.22065918094E+02  0.62478628930E+02  0.41800000000E+01 0.  1.
         -5    1    4    4    0  501  0.34081777880E+01 -0.30398852981E+02 -0.17509660756E+03  0.17779763867E+03  0.41800000000E+01 0.  1.
</event>
<event>
11    1  0.6930157E-009  0.1560397E+03  0.7561462E-02  0.1090862E+00
         22   -1    0    0    0    0  0.00000000000E+00  0.00000000000E+00  0.68139155955E+02  0.68139155955E+02  0.00000000000E+00 0. -1.
         22   -1    0    0    0    0 -0.00000000000E+00 -0.00000000000E+00 -0.27046947202E+04  0.27046947202E+04  0.00000000000E+00 0.  1.
        -24    2    1    2    0    0  0.25078677153E+02 -0.31774004619E+02 -0.23670548647E+04  0.23686865172E+04  0.78029204350E+02 0.  0.
         25    2    1    2    0    0  0.39158771766E+02 -0.50430900696E+02 -0.22479066512E+03  0.26505525266E+03  0.12508700447E+03 0.  0.
         24    2    1    2    0    0 -0.64237448919E+02  0.82204905315E+02 -0.44710034376E+02  0.13909210627E+03  0.80396085423E+02 0.  0.
        -11    1    5    5    0    0 -0.32850500755E+02  0.88368596449E+02 -0.49929972628E+02  0.10668254967E+03  0.00000000000E+00 0.  1.
         12    1    5    5    0    0 -0.31386948164E+02 -0.61636911344E+01  0.52199382511E+01  0.32409556597E+02  0.00000000000E+00 0. -1.
         13    1    3    3    0    0 -0.17917050543E+02  0.67944620714E+01 -0.12437952085E+04  0.12439428066E+04  0.00000000000E+00 0. -1.
        -14    1    3    3    0    0  0.42995727696E+02 -0.38568466691E+02 -0.11232596563E+04  0.11247437106E+04  0.00000000000E+00 0.  1.
          5    1    4    4  501    0 -0.45001079725E+02 -0.91874084016E+01 -0.63795921294E+02  0.78720376163E+02  0.41800000000E+01 0. -1.
         -5    1    4    4    0  501  0.84159851491E+02 -0.41243492294E+02 -0.16099474382E+03  0.18633487650E+03  0.41800000000E+01 0. -1.
</event>
<event>
11    1  0.6930157E-009  0.1478836E+03  0.7561462E-02  0.1099061E+00
         22   -1    0    0    0    0  0.00000000000E+00  0.00000000000E+00  0.21387341797E+04  0.21387341797E+04  0.00000000000E+00 0. -1.
         22   -1    0    0    0    0 -0.00000000000E+00 -0.00000000000E+00 -0.12555458432E+03  0.12555458432E+03  0.00000000000E+00 0.  1.
         24    2    1    2    0    0 -0.28316591389E+02 -0.51748519292E+02 -0.54844356607E+02  0.12064159746E+03  0.89815104466E+02 0.  0.
         25    2    1    2    0    0  0.96787385727E+02  0.12575371873E+02  0.13822073959E+03  0.21042472336E+03  0.12509058052E+03 0.  0.
        -24    2    1    2    0    0 -0.68470794338E+02  0.39173147419E+02  0.19298032124E+04  0.19332224432E+04  0.83581045506E+02 0.  0.
        -11    1    3    3    0    0 -0.43306070316E+02 -0.16194821031E+02 -0.65902812409E+02  0.80503842379E+02  0.00000000000E+00 0.  1.
         12    1    3    3    0    0  0.14989478927E+02 -0.35553698262E+02  0.11058455802E+02  0.40137755085E+02  0.00000000000E+00 0. -1.
         13    1    5    5    0    0 -0.74173940825E+02  0.46869472041E+02  0.18975337546E+04  0.18995612312E+04  0.00000000000E+00 0. -1.
        -14    1    5    5    0    0  0.57031464876E+01 -0.76963246218E+01  0.32269457734E+02  0.33661212025E+02  0.00000000000E+00 0.  1.
          5    1    4    4  501    0  0.57072406113E+02 -0.46223820855E+02  0.11333608981E+03  0.13511640465E+03  0.41800000000E+01 0. -1.
         -5    1    4    4    0  501  0.39714979614E+02  0.58799192728E+02  0.24884649783E+02  0.75308318704E+02  0.41800000000E+01 0. -1.
</event>
<event>
11    1  0.6930157E-009  0.1572587E+03  0.7561462E-02  0.1089684E+00
         22   -1    0    0    0    0  0.00000000000E+00  0.00000000000E+00  0.20850384687E+04  0.20850384687E+04  0.00000000000E+00 0. -1.
         22   -1    0    0    0    0 -0.00000000000E+00 -0.00000000000E+00 -0.67294126406E+03  0.67294126406E+03  0.00000000000E+00 0.  1.
        -24    2    1    2    0    0 -0.62922945016E+02  0.70931269294E+02 -0.64993170349E+03  0.66192568670E+03  0.82120968963E+02 0.  0.
         25    2    1    2    0    0  0.11569462410E+03 -0.85305817386E+02  0.57356880898E+03  0.60439678423E+03  0.12510781603E+03 0.  0.
         24    2    1    2    0    0 -0.52771679080E+02  0.14374548092E+02  0.14884600992E+04  0.14916572619E+04  0.80848266768E+02 0.  0.
        -11    1    5    5    0    0 -0.59590857091E+00  0.50224724028E+01  0.45573598573E+01  0.68080735110E+01  0.00000000000E+00 0.  1.
         12    1    5    5    0    0 -0.52175770509E+02  0.93520756896E+01  0.14839027393E+04  0.14848491884E+04  0.00000000000E+00 0. -1.
         13    1    3    3    0    0  0.18176768588E+02  0.13285878783E+02 -0.70341919700E+02  0.73857262056E+02  0.00000000000E+00 0. -1.
        -14    1    3    3    0    0 -0.81099713604E+02  0.57645390511E+02 -0.57958978379E+03  0.58806842464E+03  0.00000000000E+00 0.  1.
          5    1    4    4  501    0  0.44181783989E+02  0.27636450802E+02  0.10784122317E+03  0.11984575614E+03  0.41800000000E+01 0.  1.
         -5    1    4    4    0  501  0.71512840107E+02 -0.11294226819E+03  0.46572758581E+03  0.48455102809E+03  0.41800000000E+01 0.  1.
</event>
<event>
11    1  0.6930157E-009  0.1291797E+03  0.7561462E-02  0.1120281E+00
         22   -1    0    0    0    0  0.00000000000E+00  0.00000000000E+00  0.18817205712E+04  0.18817205712E+04  0.00000000000E+00 0.  1.
         22   -1    0    0    0    0 -0.00000000000E+00 -0.00000000000E+00 -0.10693429271E+03  0.10693429271E+03  0.00000000000E+00 0. -1.
        -24    2    1    2    0    0  0.89215079379E+01 -0.11227363413E+02 -0.69506644561E+02  0.10774709229E+03  0.81071667463E+02 0.  0.
         25    2    1    2    0    0 -0.15212556867E+02  0.41969451547E+02  0.24084259826E+03  0.27503975929E+03  0.12509538482E+03 0.  0.
         24    2    1    2    0    0  0.62910489288E+01 -0.30742088134E+02  0.16034503248E+04  0.16058680123E+04  0.82307203181E+02 0.  0.
        -13    1    5    5    0    0  0.25959812465E+02 -0.39111471639E+02  0.14672339109E+04  0.14679846622E+04  0.00000000000E+00 0.  1.
         14    1    5    5    0    0 -0.19668763536E+02  0.83693835058E+01  0.13621641385E+03  0.13788335013E+03  0.00000000000E+00 0. -1.
         11    1    3    3    0    0  0.19451707772E+02  0.31084797345E+02 -0.43827849466E+02  0.57144675605E+02  0.00000000000E+00 0. -1.
        -12    1    3    3    0    0 -0.10530199834E+02 -0.42312160758E+02 -0.25678795095E+02  0.50602416682E+02  0.00000000000E+00 0.  1.
          5    1    4    4  501    0 -0.32594575230E+01 -0.18400543104E+02 -0.64222568430E+01  0.20197074858E+02  0.41800000000E+01 0. -1.
         -5    1    4    4    0  501 -0.11953099344E+02  0.60369994651E+02  0.24726485511E+03  0.25484268443E+03  0.41800000000E+01 0. -1.
</event>
<event>
11    1  0.6930157E-009  0.1276496E+03  0.7561462E-02  0.1122191E+00
         22   -1    0    0    0    0  0.00000000000E+00  0.00000000000E+00  0.14979797536E+04  0.14979797536E+04  0.00000000000E+00 0. -1.
         22   -1    0    0    0    0 -0.00000000000E+00 -0.00000000000E+00 -0.96345780373E+02  0.96345780373E+02  0.00000000000E+00 0. -1.
        -24    2    1    2    0    0 -0.38956486888E+01  0.25552204435E+02 -0.45543394440E+02  0.96003442330E+02  0.80463463336E+02 0.  0.
         25    2    1    2    0    0  0.17677787665E+02 -0.19877640843E+02  0.14396677377E+03  0.19256278340E+03  0.12508544608E+03 0.  0.
         24    2    1    2    0    0 -0.13782138976E+02 -0.56745635919E+01  0.13032105939E+04  0.13057593083E+04  0.80170886136E+02 0.  0.
        -13    1    5    5    0    0 -0.42282618642E+02 -0.11141121005E+02  0.46627522856E+03  0.46832097240E+03  0.00000000000E+00 0.  1.
         14    1    5    5    0    0  0.28500479666E+02  0.54665574132E+01  0.83693536536E+03  0.83743833587E+03  0.00000000000E+00 0. -1.
         13    1    3    3    0    0  0.22394647191E+02  0.43249641771E+02 -0.41629391093E+02  0.64070726068E+02  0.00000000000E+00 0. -1.
        -14    1    3    3    0    0 -0.26290295880E+02 -0.17697437335E+02 -0.39140033463E+01  0.31932716262E+02  0.00000000000E+00 0.  1.
          5    1    4    4  501    0  0.56701661636E+02 -0.51540592009E+02  0.76754583366E+02  0.10853685791E+03  0.41800000000E+01 0. -1.
         -5    1    4    4    0  501 -0.39023873971E+02  0.31662951166E+02  0.67212190402E+02  0.84025925492E+02  0.41800000000E+01 0. -1.
</event>
<event>
11    1  0.6930157E-009  0.1426701E+03  0.7561462E-02  0.1104613E+00
         22   -1    0    0    0    0  0.00000000000E+00  0.00000000000E+00  0.14750444479E+03  0.14750444479E+03  0.00000000000E+00 0. -1.
         22   -1    0    0    0    0 -0.00000000000E+00 -0.00000000000E+00 -0.96980881506E+03  0.96980881506E+03  0.00000000000E+00 0.  1.
         24    2    1    2    0    0 -0.81648903567E+01  0.59669993742E+00 -0.79163079522E+03  0.79576763924E+03  0.80621326156E+02 0.  0.
         25    2    1    2    0    0 -0.15733932539E+02 -0.65255071219E+02 -0.11756813792E+03  0.18432123363E+03  0.12508504770E+03 0.  0.
        -24    2    1    2    0    0  0.23898822896E+02  0.64658371281E+02  0.86894562872E+02  0.13722438699E+03  0.80796092816E+02 0.  0.
        -13    1    3    3    0    0 -0.10377169636E+02  0.60942718916E+00 -0.79306369599E+03  0.79313181940E+03  0.00000000000E+00 0.  1.
         14    1    3    3    0    0  0.22122792791E+01 -0.12727251731E-01  0.14329007692E+01  0.26358198356E+01  0.00000000000E+00 0. -1.
         13    1    5    5    0    0 -0.21443787596E+02  0.37254048709E+02  0.69017804830E+02  0.81309025054E+02  0.00000000000E+00 0. -1.
        -14    1    5    5    0    0  0.45342610492E+02  0.27404322572E+02  0.17876758043E+02  0.55915361932E+02  0.00000000000E+00 0.  1.
          5    1    4    4  501    0 -0.57832822672E+02 -0.22479341145E+02 -0.12776857046E+02  0.63487610071E+02  0.41800000000E+01 0.  1.
         -5    1    4    4    0  501  0.42098890133E+02 -0.42775730073E+02 -0.10479128088E+03  0.12083362355E+03  0.41800000000E+01 0.  1.
</event>
<event>
11    1  0.6930157E-009  0.2638096E+03  0.7561462E-02  0.1016789E+00
         22   -1    0    0    0    0  0.00000000000E+00  0.00000000000E+00  0.37271203190E+03  0.37271203190E+03  0.00000000000E+00 0.  1.
         22   -1    0    0    0    0 -0.00000000000E+00 -0.00000000000E+00 -0.16486869855E+04  0.16486869855E+04  0.00000000000E+00 0.  1.
        -24    2    1    2    0    0 -0.72502028492E+01 -0.28290635252E+02 -0.14041493699E+04  0.14068364106E+04  0.81855408420E+02 0.  0.
         25    2    1    2    0    0  0.19994802657E+03 -0.10526651508E+03 -0.10068870956E+03  0.27720735327E+03  0.12508176506E+03 0.  0.
         24    2    1    2    0    0 -0.19269782372E+03  0.13355715033E+03  0.22886312579E+03  0.33735525354E+03  0.80375823970E+02 0.  0.
        -13    1    5    5    0    0 -0.39303693970E+02  0.26863933931E+02  0.98867687869E+02  0.10973272534E+03  0.00000000000E+00 0.  1.
         14    1    5    5    0    0 -0.15339412975E+03  0.10669321640E+03  0.12999543792E+03  0.22762252820E+03  0.00000000000E+00 0. -1.
         11    1    3    3    0    0 -0.44602828253E+02 -0.12228954534E+02 -0.75048536490E+03  0.75190906534E+03  0.00000000000E+00 0. -1.
        -12    1    3    3    0    0  0.37352625403E+02 -0.16061680717E+02 -0.65366400497E+03  0.65492734529E+03  0.00000000000E+00 0.  1.
          5    1    4    4  501    0 -0.15200247485E+02 -0.22540197125E+02 -0.14383653681E+02  0.31039811585E+02  0.41800000000E+01 0.  1.
         -5    1    4    4    0  501  0.21514827405E+03 -0.82726317951E+02 -0.86305055877E+02  0.24616754169E+03  0.41800000000E+01 0.  1.
</event>
<event>
11    1  0.6930157E-009  0.1702568E+03  0.7561462E-02  0.1077808E+00
         22   -1    0    0    0    0  0.00000000000E+00  0.00000000000E+00  0.22514492856E+04  0.22514492856E+04  0.00000000000E+00 0. -1.
         22   -1    0    0    0    0 -0.00000000000E+00 -0.00000000000E+00 -0.56790774649E+03  0.56790774649E+03  0.00000000000E+00 0. -1.
        -24    2    1    2    0    0 -0.74287962610E+02 -0.59484726171E+02 -0.52203258928E+03  0.53720205902E+03  0.83731080855E+02 0.  0.
         25    2    1    2    0    0 -0.41399348114E+02  0.22791759301E+02  0.89279865915E+02  0.16078271050E+03  0.12508723045E+03 0.  0.
         24    2    1    2    0    0  0.11568731072E+03  0.36692966870E+02  0.21162942624E+04  0.21213722625E+04  0.82395044445E+02 0.  0.
        -13    1    5    5    0    0  0.87663038497E+02  0.52079592337E+02  0.11389452788E+04  0.11435005205E+04  0.00000000000E+00 0.  1.
         14    1    5    5    0    0  0.28024272227E+02 -0.15386625467E+02  0.97734898362E+03  0.97787174203E+03  0.00000000000E+00 0. -1.
         11    1    3    3    0    0 -0.66215109932E+02 -0.63075938568E+02 -0.52020167551E+03  0.52817875574E+03  0.00000000000E+00 0. -1.
        -12    1    3    3    0    0 -0.80728526782E+01  0.35912123970E+01 -0.18309137760E+01  0.90233032810E+01  0.00000000000E+00 0.  1.
          5    1    4    4  501    0 -0.22195353009E+02 -0.38972153804E+02  0.84543690953E+02  0.95794418143E+02  0.41800000000E+01 0. -1.
         -5    1    4    4    0  501 -0.19203995105E+02  0.61763913104E+02  0.47361749616E+01  0.64988292355E+02  0.41800000000E+01 0. -1.
</event>
<event>
11    1  0.6930157E-009  0.1855623E+03  0.7561462E-02  0.1065230E+00
         22   -1    0    0    0    0  0.00000000000E+00  0.00000000000E+00  0.12664623106E+04  0.12664623106E+04  0.00000000000E+00 0. -1.
         22   -1    0    0    0    0 -0.00000000000E+00 -0.00000000000E+00 -0.48545080264E+03  0.48545080264E+03  0.00000000000E+00 0.  1.
        -24    2    1    2    0    0  0.19621047104E+02  0.28856008081E+02 -0.44899879403E+03  0.45700246343E+03  0.77676765164E+02 0.  0.
         25    2    1    2    0    0 -0.58305375873E+02 -0.15267498357E+03  0.39266423908E+03  0.44332975352E+03  0.12508756227E+03 0.  0.
         24    2    1    2    0    0  0.38684328770E+02  0.12381897549E+03  0.83734606296E+03  0.85158089633E+03  0.84935139171E+02 0.  0.
        -11    1    5    5    0    0  0.12572070195E+02  0.11245854852E+03  0.48240326616E+03  0.49549762188E+03  0.00000000000E+00 0.  1.
         12    1    5    5    0    0  0.26112258575E+02  0.11360426969E+02  0.35494279680E+03  0.35608327446E+03  0.00000000000E+00 0. -1.
         11    1    3    3    0    0 -0.18285030463E+02  0.30133150622E+02 -0.10161733072E+03  0.10755664093E+03  0.00000000000E+00 0. -1.
        -12    1    3    3    0    0  0.37906077567E+02 -0.12771425402E+01 -0.34738146331E+03  0.34944582250E+03  0.00000000000E+00 0.  1.
          5    1    4    4  501    0 -0.80707636445E+02 -0.15458357228E+03  0.37760492554E+03  0.41594802030E+03  0.41800000000E+01 0. -1.
         -5    1    4    4    0  501  0.22402260572E+02  0.19085887069E+01  0.15059313541E+02  0.27381733216E+02  0.41800000000E+01 0. -1.
</event>
<event>
11    1  0.6930157E-009  0.1878233E+03  0.7561462E-02  0.1063485E+00
         22   -1    0    0    0    0  0.00000000000E+00  0.00000000000E+00  0.17902590875E+04  0.17902590875E+04  0.00000000000E+00 0. -1.
         22   -1    0    0    0    0 -0.00000000000E+00 -0.00000000000E+00 -0.60335866475E+03  0.60335866475E+03  0.00000000000E+00 0. -1.
        -24    2    1    2    0    0  0.13110834227E+03  0.36002304463E+02 -0.47958294471E+03  0.50477663780E+03  0.79461247620E+02 0.  0.
         25    2    1    2    0    0 -0.20208523716E+03  0.49520541024E+02  0.27717475784E+02  0.24434986059E+03  0.12509144194E+03 0.  0.
         24    2    1    2    0    0  0.70976894895E+02 -0.85522845487E+02  0.16387658917E+04  0.16444912539E+04  0.80286733497E+02 0.  0.
        -11    1    5    5    0    0 -0.13095504780E+02 -0.33826055225E+01  0.38243967473E+03  0.38267876747E+03  0.00000000000E+00 0.  1.
         12    1    5    5    0    0  0.84072399674E+02 -0.82140239964E+02  0.12563262170E+04  0.12618124864E+04  0.00000000000E+00 0. -1.
         11    1    3    3    0    0  0.36546533310E+02  0.29354559732E+02 -0.27913574150E+03  0.28304434539E+03  0.00000000000E+00 0. -1.
        -12    1    3    3    0    0  0.94561808957E+02  0.66477447314E+01 -0.20044720322E+03  0.22173229242E+03  0.00000000000E+00 0.  1.
          5    1    4    4  501    0 -0.57028076910E+02 -0.36726568197E+02 -0.16312425622E+02  0.69889984957E+02  0.41800000000E+01 0. -1.
         -5    1    4    4    0  501 -0.14505716025E+03  0.86247109221E+02  0.44029901406E+02  0.17445987564E+03  0.41800000000E+01 0. -1.
</event>
<event>
11    1  0.6930157E-009  0.2606416E+03  0.7561462E-02  0.1018378E+00
         22   -1    0    0    0    0  0.00000000000E+00  0.00000000000E+00  0.65890261356E+03  0.65890261356E+03  0.00000000000E+00 0. -1.
         22   -1    0    0    0    0 -0.00000000000E+00 -0.00000000000E+00 -0.14509459050E+04  0.14509459050E+04  0.00000000000E+00 0.  1.
         24    2    1    2    0    0  0.52349042820E+02 -0.77601662217E+02 -0.11786165494E+04  0.11850302675E+04  0.79983273571E+02 0.  0.
         25    2    1    2    0    0  0.16910074919E+03 -0.31919989244E+01 -0.19845079576E+03  0.28919750792E+03  0.12508888044E+03 0.  0.
        -24    2    1    2    0    0 -0.22144979201E+03  0.80793661141E+02  0.58502405380E+03  0.63562074309E+03  0.78695358522E+02 0.  0.
        -13    1    3    3    0    0  0.33158859268E+02 -0.82598008733E+02 -0.65277544595E+03  0.65881539435E+03  0.00000000000E+00 0.  1.
         14    1    3    3    0    0  0.19190183552E+02  0.49963465160E+01 -0.52584110348E+03  0.52621487316E+03  0.00000000000E+00 0. -1.
         11    1    5    5    0    0 -0.19062935922E+03  0.96774727922E+02  0.50547248436E+03  0.54882359006E+03  0.00000000000E+00 0. -1.
        -12    1    5    5    0    0 -0.30820432796E+02 -0.15981066781E+02  0.79551569440E+02  0.86797153027E+02  0.00000000000E+00 0.  1.
          5    1    4    4  501    0 -0.18084796928E+02 -0.11853848454E+02 -0.29825416160E+02  0.37075618029E+02  0.41800000000E+01 0. -1.
         -5    1    4    4    0  501  0.18718554612E+03  0.86618495298E+01 -0.16862537960E+03  0.25212188989E+03  0.41800000000E+01 0. -1.
</event>
<event>
11    1  0.6930157E-009  0.2459293E+03  0.7561462E-02  0.1026090E+00
         22   -1    0    0    0    0  0.00000000000E+00  0.00000000000E+00  0.70687299547E+03  0.70687299547E+03  0.00000000000E+00 0.  1.
         22   -1    0    0    0    0 -0.00000000000E+00 -0.00000000000E+00 -0.96966855644E+03  0.96966855644E+03  0.00000000000E+00 0. -1.
         24    2    1    2    0    0  0.28374275958E+02  0.20567547914E+03 -0.81959675653E+03  0.84934663224E+03  0.80891013910E+02 0.  0.
         25    2    1    2    0    0 -0.54720833690E+02 -0.24940509431E+03  0.24619029991E+02  0.28539642042E+03  0.12509096467E+03 0.  0.
        -24    2    1    2    0    0  0.26346557732E+02  0.43729615173E+02  0.53218216556E+03  0.54179849925E+03  0.87871133523E+02 0.  0.
        -11    1    3    3    0    0 -0.10440765398E+02  0.98402765975E-02 -0.80936009031E+02  0.81606661718E+02  0.00000000000E+00 0.  1.
         12    1    3    3    0    0  0.38815041356E+02  0.20566563886E+03 -0.73866074750E+03  0.76773997052E+03  0.00000000000E+00 0. -1.
         11    1    5    5    0    0  0.18091800427E+02 -0.18524681957E+02  0.58536583672E+02  0.64007880079E+02  0.00000000000E+00 0. -1.
        -12    1    5    5    0    0  0.82547573054E+01  0.62254297130E+02  0.47364558189E+03  0.47779061917E+03  0.00000000000E+00 0.  1.
          5    1    4    4  501    0 -0.16943215872E+02 -0.74871676222E+02 -0.50113016246E+02  0.91769424438E+02  0.41800000000E+01 0.  1.
         -5    1    4    4    0  501 -0.37777617817E+02 -0.17453341809E+03  0.74732046237E+02  0.19362699598E+03  0.41800000000E+01 0.  1.
</event>
<event>
11    1  0.6930157E-009  0.1644197E+03  0.7561462E-02  0.1082993E+00
         22   -1    0    0    0    0  0.00000000000E+00  0.00000000000E+00  0.21258528268E+03  0.21258528268E+03  0.00000000000E+00 0. -1.
         22   -1    0    0    0    0 -0.00000000000E+00 -0.00000000000E+00 -0.11921467730E+04  0.11921467730E+04  0.00000000000E+00 0.  1.
        -24    2    1    2    0    0 -0.36014773390E+02 -0.16805425696E+02 -0.99390445014E+03  0.99798566326E+03  0.80931093116E+02 0.  0.
         25    2    1    2    0    0  0.86657059345E+02 -0.76450164740E+02 -0.12013298617E+03  0.20840638010E+03  0.12508881355E+03 0.  0.
         24    2    1    2    0    0 -0.50642285955E+02  0.93255590436E+02  0.13447594595E+03  0.19834001236E+03  0.99968666048E+02 0.  0.
        -11    1    5    5    0    0 -0.70742119068E+02  0.53384926794E+02  0.47450239478E+02  0.10052822015E+03  0.00000000000E+00 0.  1.
         12    1    5    5    0    0  0.20099833113E+02  0.39870663643E+02  0.87025706468E+02  0.97811792217E+02  0.00000000000E+00 0. -1.
         11    1    3    3    0    0  0.86069958143E+01  0.20981642514E+02 -0.11979612369E+03  0.12192383258E+03  0.00000000000E+00 0. -1.
        -12    1    3    3    0    0 -0.44621769204E+02 -0.37787068210E+02 -0.87410832645E+03  0.87606183069E+03  0.00000000000E+00 0.  1.
          5    1    4    4  501    0 -0.26596373517E+02 -0.24452636680E+02 -0.16594837633E+01  0.36407757569E+02  0.41800000000E+01 0.  1.
         -5    1    4    4    0  501  0.11325343286E+03 -0.51997528061E+02 -0.11847350241E+03  0.17199862253E+03  0.41800000000E+01 0.  1.
</event>
<event>
11    1  0.6930157E-009  0.1446699E+03  0.7561462E-02  0.1102453E+00
         22   -1    0    0    0    0  0.00000000000E+00  0.00000000000E+00  0.44231572626E+03  0.44231572626E+03  0.00000000000E+00 0. -1.
         22   -1    0    0    0    0 -0.00000000000E+00 -0.00000000000E+00 -0.50508676740E+03  0.50508676740E+03  0.00000000000E+00 0.  1.
         24    2    1    2    0    0  0.30856625980E+02  0.17877273916E+02 -0.42834669358E+03  0.43724963093E+03  0.80216092918E+02 0.  0.
         25    2    1    2    0    0 -0.92331444999E+02 -0.48273665873E+02  0.39683655483E+02  0.16755799938E+03  0.12508176562E+03 0.  0.
        -24    2    1    2    0    0  0.61474819020E+02  0.30396391957E+02  0.32589199695E+03  0.34259486334E+03  0.80390003722E+02 0.  0.
        -13    1    3    3    0    0  0.46705312527E+02  0.16168652079E+02 -0.40990293427E+03  0.41287192572E+03  0.00000000000E+00 0.  1.
         14    1    3    3    0    0 -0.15848686548E+02  0.17086218373E+01 -0.18443759308E+02  0.24377705210E+02  0.00000000000E+00 0. -1.
         13    1    5    5    0    0  0.40347197126E+02 -0.23741320567E+02  0.16575506142E+03  0.17223904030E+03  0.00000000000E+00 0. -1.
        -14    1    5    5    0    0  0.21127621894E+02  0.54137712524E+02  0.16013693553E+03  0.17035582304E+03  0.00000000000E+00 0.  1.
          5    1    4    4  501    0 -0.20293084453E+02 -0.50124547622E+02  0.70603244507E+02  0.89031287118E+02  0.41800000000E+01 0. -1.
         -5    1    4    4    0  501 -0.72038360546E+02  0.18508817495E+01 -0.30919589025E+02  0.78526712263E+02  0.41800000000E+01 0. -1.
</event>
<event>
11    1  0.6930157E-009  0.1621758E+03  0.7561462E-02  0.1085049E+00
         22   -1    0    0    0    0  0.00000000000E+00  0.00000000000E+00  0.26009324540E+03  0.26009324540E+03  0.00000000000E+00 0. -1.
         22   -1    0    0    0    0 -0.00000000000E+00 -0.00000000000E+00 -0.31522636146E+03  0.31522636146E+03  0.00000000000E+00 0.  1.
         24    2    1    2    0    0 -0.76082596989E+02 -0.34330281988E+01 -0.20794591411E+03  0.23543433761E+03  0.79921692183E+02 0.  0.
         25    2    1    2    0    0  0.12010762947E+03 -0.71143029609E+02  0.92366478783E+02  0.20896393819E+03  0.12508871949E+03 0.  0.
        -24    2    1    2    0    0 -0.44025032481E+02  0.74576057808E+02  0.60446319269E+02  0.13092133107E+03  0.77374708612E+02 0.  0.
        -13    1    3    3    0    0 -0.52408607698E+02 -0.40157740698E+02 -0.11210403892E+03  0.13010235141E+03  0.00000000000E+00 0.  1.
         14    1    3    3    0    0 -0.23673989291E+02  0.36724712499E+02 -0.95841875186E+02  0.10533198620E+03  0.00000000000E+00 0. -1.
         11    1    5    5    0    0 -0.44412285204E+02  0.85843589445E+01  0.43569166017E+02  0.62804574061E+02  0.00000000000E+00 0. -1.
        -12    1    5    5    0    0  0.38725272298E+00  0.65991698863E+02  0.16877153251E+02  0.68116757009E+02  0.00000000000E+00 0.  1.
          5    1    4    4  501    0 -0.10809340507E+02 -0.42290364266E+02 -0.36696651870E+01  0.44002904387E+02  0.41800000000E+01 0.  1.
         -5    1    4    4    0  501  0.13091696998E+03 -0.28852665344E+02  0.96036143970E+02  0.16496103380E+03  0.41800000000E+01 0.  1.
</event>
<event>
11    1  0.6930157E-009  0.1733401E+03  0.7561462E-02  0.1075161E+00
         22   -1    0    0    0    0  0.00000000000E+00  0.00000000000E+00  0.37576150303E+03  0.37576150303E+03  0.00000000000E+00 0.  1.
         22   -1    0    0    0    0 -0.00000000000E+00 -0.00000000000E+00 -0.10165723872E+04  0.10165723872E+04  0.00000000000E+00 0.  1.
         24    2    1    2    0    0  0.12426619998E+03 -0.96187958096E+01 -0.72537809416E+03  0.74048017065E+03  0.81258193121E+02 0.  0.
         25    2    1    2    0    0 -0.97835120750E+02  0.56936834651E+02 -0.25156473134E+03  0.30289454345E+03  0.12508707531E+03 0.  0.
        -24    2    1    2    0    0 -0.26431079233E+02 -0.47318038841E+02  0.33613194131E+03  0.34895917615E+03  0.76486769438E+02 0.  0.
        -11    1    3    3    0    0  0.12195367630E+03  0.13247530416E+02 -0.65668021816E+03  0.66803974818E+03  0.00000000000E+00 0.  1.
         12    1    3    3    0    0  0.23125236789E+01 -0.22866326226E+02 -0.68697875998E+02  0.72440422469E+02  0.00000000000E+00 0. -1.
         11    1    5    5    0    0 -0.25159907894E+02  0.16093019161E+02  0.12419332990E+03  0.12773405741E+03  0.00000000000E+00 0. -1.
        -12    1    5    5    0    0 -0.12711713391E+01 -0.63411058002E+02  0.21193861141E+03  0.22122511874E+03  0.00000000000E+00 0.  1.
          5    1    4    4  501    0 -0.18557208787E+02 -0.29769644247E+02 -0.12611546009E+03  0.13097016222E+03  0.41800000000E+01 0.  1.
         -5    1    4    4    0  501 -0.79277911963E+02  0.86706478897E+02 -0.12544927124E+03  0.17192438124E+03  0.41800000000E+01 0.  1.
</event>
<event>
11    1  0.6930157E-009  0.1689219E+03  0.7561462E-02  0.1078974E+00
         22   -1    0    0    0    0  0.00000000000E+00  0.00000000000E+00  0.11715909429E+04  0.11715909429E+04  0.00000000000E+00 0. -1.
         22   -1    0    0    0    0 -0.00000000000E+00 -0.00000000000E+00 -0.27511666741E+03  0.27511666741E+03  0.00000000000E+00 0.  1.
         24    2    1    2    0    0  0.49511984362E+02 -0.24647458179E+02 -0.23873328571E+03  0.25783293345E+03  0.80158006954E+02 0.  0.
         25    2    1    2    0    0  0.72985376546E+02 -0.42780912409E+01  0.23329930010E+03  0.27462859753E+03  0.12508851225E+03 0.  0.
        -24    2    1    2    0    0 -0.12249736091E+03  0.28925549420E+02  0.90190826114E+03  0.91424607938E+03  0.81025251023E+02 0.  0.
        -11    1    3    3    0    0  0.28157473703E+02 -0.45432204799E+02 -0.20903894166E+03  0.21576424099E+03  0.00000000000E+00 0.  1.
         12    1    3    3    0    0  0.21354510659E+02  0.20784746619E+02 -0.29694344046E+02  0.42068692467E+02  0.00000000000E+00 0. -1.
         11    1    5    5    0    0  0.24076625207E+01  0.19266219638E+02  0.22549197635E+03  0.22632634724E+03  0.00000000000E+00 0. -1.
        -12    1    5    5    0    0 -0.12490502343E+03  0.96593297818E+01  0.67641628480E+03  0.68791973214E+03  0.00000000000E+00 0.  1.
          5    1    4    4  501    0  0.16356559162E+02 -0.60571389391E+02  0.12594853028E+03  0.14077263555E+03  0.41800000000E+01 0.  1.
         -5    1    4    4    0  501  0.56628817385E+02  0.56293298150E+02  0.10735076982E+03  0.13385596197E+03  0.41800000000E+01 0.  1.
</event>
<event>
11    1  0.6930157E-009  0.1323210E+03  0.7561462E-02  0.1116450E+00
         22   -1    0    0    0    0  0.00000000000E+00  0.00000000000E+00  0.12430026526E+03  0.12430026526E+03  0.00000000000E+00 0. -1.
         22   -1    0    0    0    0 -0.00000000000E+00 -0.00000000000E+00 -0.41414644791E+03  0.41414644791E+03  0.00000000000E+00 0.  1.
         24    2    1    2    0    0  0.12063652005E+01 -0.36027141850E+01 -0.20509121237E+03  0.22076973187E+03  0.81623735837E+02 0.  0.
         25    2    1    2    0    0 -0.34727510817E+02  0.30206761401E+02 -0.15484108687E+03  0.20430888878E+03  0.12509161207E+03 0.  0.
        -24    2    1    2    0    0  0.33521145617E+02 -0.26604047216E+02  0.70086116584E+02  0.11336809252E+03  0.78158928682E+02 0.  0.
        -13    1    3    3    0    0 -0.18135920799E+02  0.69646929358E+01 -0.19594650187E+03  0.19690721207E+03  0.00000000000E+00 0.  1.
         14    1    3    3    0    0  0.19342285999E+02 -0.10567407121E+02 -0.91447104991E+01  0.23862519797E+02  0.00000000000E+00 0. -1.
         11    1    5    5    0    0  0.51379794042E+02 -0.29463154465E+02  0.74080068126E+02  0.94846281954E+02  0.00000000000E+00 0. -1.
        -12    1    5    5    0    0 -0.17858648425E+02  0.28591072497E+01 -0.39939515422E+01  0.18521810569E+02  0.00000000000E+00 0.  1.
          5    1    4    4  501    0 -0.28835732370E+02  0.59587345445E+02 -0.24831714340E+02  0.70825402473E+02  0.41800000000E+01 0.  1.
         -5    1    4    4    0  501 -0.58917784467E+01 -0.29380584044E+02 -0.13000937253E+03  0.13348348631E+03  0.41800000000E+01 0.  1.
</event>
<event>
11    1  0.6930157E-009  0.2874191E+03  0.7561462E-02  0.1005661E+00
         22   -1    0    0    0    0  0.00000000000E+00  0.00000000000E+00  0.22444654415E+04  0.22444654415E+04  0.00000000000E+00 0. -1.
         22   -1    0    0    0    0 -0.00000000000E+00 -0.00000000000E+00 -0.65397574642E+02  0.65397574642E+02  0.00000000000E+00 0. -1.
         24    2    1    2    0    0 -0.26345696497E+03 -0.48846702588E+02  0.44070735153E+03  0.52189436009E+03  0.79719386901E+02 0.  0.
         25    2    1    2    0    0  0.23824804166E+03  0.49147939710E+02  0.79223275742E+03  0.83812715554E+03  0.12508692012E+03 0.  0.
        -24    2    1    2    0    0  0.25208923319E+02 -0.30123712155E+00  0.94612775791E+03  0.94984150053E+03  0.80034750413E+02 0.  0.
        -11    1    3    3    0    0 -0.74607897897E+02 -0.43735630831E+01  0.19494223311E+03  0.20877725147E+03  0.00000000000E+00 0.  1.
         12    1    3    3    0    0 -0.18884906708E+03 -0.44473139505E+02  0.24576511842E+03  0.31311710861E+03  0.00000000000E+00 0. -1.
         13    1    5    5    0    0  0.37994000219E+02  0.27893573728E+02  0.72845577471E+03  0.72997904848E+03  0.00000000000E+00 0. -1.
        -14    1    5    5    0    0 -0.12785076900E+02 -0.28194810849E+02  0.21767198320E+03  0.21986245205E+03  0.00000000000E+00 0.  1.
          5    1    4    4  501    0  0.24134699839E+03  0.18133193302E+02  0.70496550828E+03  0.74536637072E+03  0.41800000000E+01 0. -1.
         -5    1    4    4    0  501 -0.30989567355E+01  0.31014746408E+02  0.87267249142E+02  0.92760784820E+02  0.41800000000E+01 0. -1.
</event>
<event>
11    1  0.6930157E-009  0.1698536E+03  0.7561462E-02  0.1078159E+00
         22   -1    0    0    0    0  0.00000000000E+00  0.00000000000E+00  0.36854751758E+03  0.36854751758E+03  0.00000000000E+00 0.  1.
         22   -1    0    0    0    0 -0.00000000000E+00 -0.00000000000E+00 -0.92622182406E+03  0.92622182406E+03  0.00000000000E+00 0.  1.
         24    2    1    2    0    0  0.11810819997E+02  0.55814405146E+00 -0.27437336116E+03  0.28596228673E+03  0.79711235863E+02 0.  0.
         25    2    1    2    0    0 -0.38902873104E+02 -0.11214318886E+03 -0.62027713974E+03  0.64380249379E+03  0.12509353533E+03 0.  0.
        -24    2    1    2    0    0  0.27092053107E+02  0.11158504481E+03  0.33697619442E+03  0.36500456112E+03  0.80561606674E+02 0.  0.
        -11    1    3    3    0    0 -0.99060615162E+01 -0.20037945377E+02 -0.23713687621E+03  0.23818805043E+03  0.00000000000E+00 0.  1.
         12    1    3    3    0    0  0.21716881513E+02  0.20596089428E+02 -0.37236484956E+02  0.47774236302E+02  0.00000000000E+00 0. -1.
         13    1    5    5    0    0 -0.43246385818E-02  0.11037734465E+03  0.23748059609E+03  0.26187820022E+03  0.00000000000E+00 0. -1.
        -14    1    5    5    0    0  0.27096377745E+02  0.12077001576E+01  0.99495598328E+02  0.10312636090E+03  0.00000000000E+00 0.  1.
          5    1    4    4  501    0 -0.55967936444E+02 -0.94406460844E+02 -0.60421600942E+03  0.61411680339E+03  0.41800000000E+01 0.  1.
         -5    1    4    4    0  501  0.17065063341E+02 -0.17736728019E+02 -0.16061130316E+02  0.29685690402E+02  0.41800000000E+01 0.  1.
</event>
<event>
11    1  0.6930157E-009  0.1372803E+03  0.7561462E-02  0.1110634E+00
         22   -1    0    0    0    0  0.00000000000E+00  0.00000000000E+00  0.24155803355E+03  0.24155803355E+03  0.00000000000E+00 0.  1.
         22   -1    0    0    0    0 -0.00000000000E+00 -0.00000000000E+00 -0.10359730719E+04  0.10359730719E+04  0.00000000000E+00 0.  1.
         24    2    1    2    0    0  0.38749589957E+02 -0.41830813965E+02 -0.87808276269E+03  0.88356772581E+03  0.80070220647E+02 0.  0.
         25    2    1    2    0    0 -0.29258404194E+02  0.42729909349E+02 -0.11638052315E+03  0.17853234443E+03  0.12508985758E+03 0.  0.
        -24    2    1    2    0    0 -0.94911857624E+01 -0.89909538336E+00  0.20004824753E+03  0.21543103517E+03  0.79374672251E+02 0.  0.
        -13    1    3    3    0    0  0.46805880192E+02 -0.41712729550E+02 -0.86964103120E+03  0.87189808199E+03  0.00000000000E+00 0.  1.
         14    1    3    3    0    0 -0.80562902359E+01 -0.11808441540E+00 -0.84417314883E+01  0.11669643817E+02  0.00000000000E+00 0. -1.
         13    1    5    5    0    0  0.24976159650E+02 -0.22837428031E+02  0.53598884802E+02  0.63389250839E+02  0.00000000000E+00 0. -1.
        -14    1    5    5    0    0 -0.34467345412E+02  0.21938332647E+02  0.14644936273E+03  0.15204178433E+03  0.00000000000E+00 0.  1.
          5    1    4    4  501    0  0.22324599534E+02 -0.17785104998E+02  0.88116312084E+01  0.30163138906E+02  0.41800000000E+01 0. -1.
         -5    1    4    4    0  501 -0.51583003728E+02  0.60515014347E+02 -0.12519215436E+03  0.14836920553E+03  0.41800000000E+01 0. -1.
</event>
<event>
11    1  0.6930157E-009  0.1298981E+03  0.7561462E-02  0.1119394E+00
         22   -1    0    0    0    0  0.00000000000E+00  0.00000000000E+00  0.61251222329E+02  0.61251222329E+02  0.00000000000E+00 0.  1.
         22   -1    0    0    0    0 -0.00000000000E+00 -0.00000000000E+00 -0.11776308189E+04  0.11776308189E+04  0.00000000000E+00 0. -1.
        -24    2    1    2    0    0  0.20819854112E+02  0.15734878475E+02 -0.89120220740E+03  0.89515185968E+03  0.79839994357E+02 0.  0.
         25    2    1    2    0    0 -0.57297774278E+00 -0.43860450503E+02 -0.21868170989E+03  0.25571961472E+03  0.12508702447E+03 0.  0.
         24    2    1    2    0    0 -0.20246876370E+02  0.28125572028E+02 -0.64956793099E+01  0.88010566851E+02  0.80639210209E+02 0.  0.
        -13    1    5    5    0    0 -0.40167468004E+02  0.35723106352E+02  0.16908565991E+02  0.56351268106E+02  0.00000000000E+00 0.  1.
         14    1    5    5    0    0  0.19920591634E+02 -0.75975343246E+01 -0.23404245301E+02  0.31659298745E+02  0.00000000000E+00 0. -1.
         13    1    3    3    0    0  0.25485797732E+02 -0.23458795634E+02 -0.63331884192E+03  0.63426539911E+03  0.00000000000E+00 0. -1.
        -14    1    3    3    0    0 -0.46659436193E+01  0.39193674109E+02 -0.25788336548E+03  0.26088646057E+03  0.00000000000E+00 0.  1.
          5    1    4    4  501    0  0.27048211380E+02 -0.81168422078E+02 -0.14954149521E+03  0.17233702350E+03  0.41800000000E+01 0. -1.
         -5    1    4    4    0  501 -0.27621189123E+02  0.37307971575E+02 -0.69140214679E+02  0.83382591214E+02  0.41800000000E+01 0. -1.
</event>
<event>
11    1  0.6930157E-009  0.1328698E+03  0.7561462E-02  0.1115792E+00
         22   -1    0    0    0    0  0.00000000000E+00  0.00000000000E+00  0.10170556981E+04  0.10170556981E+04  0.00000000000E+00 0. -1.
         22   -1    0    0    0    0 -0.00000000000E+00 -0.00000000000E+00 -0.86438519864E+02  0.86438519864E+02  0.00000000000E+00 0.  1.
        -24    2    1    2    0    0 -0.45893844141E+02  0.34443134017E+01  0.73502935265E+01  0.94630744082E+02  0.82358015309E+02 0.  0.
         25    2    1    2    0    0  0.41684709610E+02 -0.80130067964E+01  0.65487866832E+02  0.14743689075E+03  0.12508857964E+03 0.  0.
         24    2    1    2    0    0  0.42091345316E+01  0.45686933947E+01  0.85777901783E+03  0.86142658309E+03  0.78945074898E+02 0.  0.
        -13    1    5    5    0    0  0.48798130861E+01 -0.33988777498E+02  0.57578725533E+03  0.57681020532E+03  0.00000000000E+00 0.  1.
         14    1    5    5    0    0 -0.67067855444E+00  0.38557470893E+02  0.28199176250E+03  0.28461637776E+03  0.00000000000E+00 0. -1.
         11    1    3    3    0    0  0.85231635574E+01 -0.28906305124E+02  0.85030741816E+01  0.31313272961E+02  0.00000000000E+00 0. -1.
        -12    1    3    3    0    0 -0.54417007699E+02  0.32350618526E+02 -0.11527806550E+01  0.63317471121E+02  0.00000000000E+00 0.  1.
          5    1    4    4  501    0  0.48649772702E+02  0.23588210853E+02 -0.18529381860E+02  0.57306321355E+02  0.41800000000E+01 0. -1.
         -5    1    4    4    0  501 -0.69650630921E+01 -0.31601217650E+02  0.84017248691E+02  0.90130569390E+02  0.41800000000E+01 0. -1.
</event>
<event>
11    1  0.6930157E-009  0.1681935E+03  0.7561462E-02  0.1079615E+00
         22   -1    0    0    0    0  0.00000000000E+00  0.00000000000E+00  0.99052347941E+03  0.99052347941E+03  0.00000000000E+00 0.  1.
         22   -1    0    0    0    0 -0.00000000000E+00 -0.00000000000E+00 -0.17892070681E+03  0.17892070681E+03  0.00000000000E+00 0.  1.
        -24    2    1    2    0    0  0.36473666468E+02 -0.10673822907E+03 -0.11807110638E+03  0.18063111734E+03  0.77223289883E+02 0.  0.
         25    2    1    2    0    0 -0.74523850813E+01  0.11255768265E+03  0.23643994256E+03  0.29030550493E+03  0.12509464332E+03 0.  0.
         24    2    1    2    0    0 -0.29021281387E+02 -0.58194535793E+01  0.69323393642E+03  0.69850756395E+03  0.80395431929E+02 0.  0.
        -11    1    5    5    0    0  0.92311206029E+01 -0.34459762923E+02  0.22085236627E+03  0.22371512362E+03  0.00000000000E+00 0.  1.
         12    1    5    5    0    0 -0.38252401990E+02  0.28640309344E+02  0.47238157015E+03  0.47479244033E+03  0.00000000000E+00 0. -1.
         13    1    3    3    0    0  0.17816695940E+02  0.83169866251E+01 -0.12006244673E+02  0.23038160341E+02  0.00000000000E+00 0. -1.
        -14    1    3    3    0    0  0.18656970528E+02 -0.11505521569E+03 -0.10606486171E+03  0.15759295700E+03  0.00000000000E+00 0.  1.
          5    1    4    4  501    0  0.28131869462E+02  0.12671552627E+03  0.18532150075E+03  0.22629573067E+03  0.41800000000E+01 0.  1.
         -5    1    4    4    0  501 -0.35584254543E+02 -0.14157843627E+02  0.51118441805E+02  0.64009774255E+02  0.41800000000E+01 0.  1.
</event>
<event>
11    1  0.6930157E-009  0.1457459E+03  0.7561462E-02  0.1101307E+00
         22   -1    0    0    0    0  0.00000000000E+00  0.00000000000E+00  0.62169192404E+03  0.62169192404E+03  0.00000000000E+00 0.  1.
         22   -1    0    0    0    0 -0.00000000000E+00 -0.00000000000E+00 -0.92737032527E+03  0.92737032527E+03  0.00000000000E+00 0.  1.
         24    2    1    2    0    0  0.34580844327E+02 -0.91015153915E+01 -0.87326909381E+03  0.87855816096E+03  0.89369231864E+02 0.  0.
         25    2    1    2    0    0 -0.10490208139E+03  0.12998512571E+02  0.10379998747E+03  0.19389421838E+03  0.12508845876E+03 0.  0.
        -24    2    1    2    0    0  0.70321237067E+02 -0.38969971798E+01  0.46379070512E+03  0.47660986997E+03  0.84231152365E+02 0.  0.
        -11    1    3    3    0    0  0.56774540443E+02 -0.13167249281E+02 -0.35130480825E+03  0.35610643521E+03  0.00000000000E+00 0.  1.
         12    1    3    3    0    0 -0.22193696116E+02  0.40657338897E+01 -0.52196428556E+03  0.52245172575E+03  0.00000000000E+00 0. -1.
         13    1    5    5    0    0  0.29610377528E+02 -0.39055718930E+02  0.13883435449E+03  0.14723145596E+03  0.00000000000E+00 0. -1.
        -14    1    5    5    0    0  0.40710859539E+02  0.35158721750E+02  0.32495635063E+03  0.32937841401E+03  0.00000000000E+00 0.  1.
          5    1    4    4  501    0 -0.42366673300E+02 -0.50999962001E+02  0.74105735889E+02  0.99524186117E+02  0.41800000000E+01 0.  1.
         -5    1    4    4    0  501 -0.62535408094E+02  0.63998474572E+02  0.29694251578E+02  0.94370032266E+02  0.41800000000E+01 0.  1.
</event>
<event>
11    1  0.6930157E-009  0.1541612E+03  0.7561462E-02  0.1092701E+00
         22   -1    0    0    0    0  0.00000000000E+00  0.00000000000E+00  0.65893000184E+03  0.65893000184E+03  0.00000000000E+00 0. -1.
         22   -1    0    0    0    0 -0.00000000000E+00 -0.00000000000E+00 -0.18569783445E+04  0.18569783445E+04  0.00000000000E+00 0. -1.
         24    2    1    2    0    0 -0.65256171613E+02 -0.71720720002E+01 -0.18036098043E+04  0.18065919474E+04  0.80351299885E+02 0.  0.
         25    2    1    2    0    0 -0.11859445201E+01 -0.63258164093E+02  0.65201420784E+02  0.15460230012E+03  0.12509054377E+03 0.  0.
        -24    2    1    2    0    0  0.66442116133E+02  0.70430236093E+02  0.54036004093E+03  0.55471409883E+03  0.79647879172E+02 0.  0.
        -11    1    3    3    0    0 -0.21965950525E+02 -0.15532827302E+01 -0.98839929240E+02  0.10126325731E+03  0.00000000000E+00 0.  1.
         12    1    3    3    0    0 -0.43290221089E+02 -0.56187892700E+01 -0.17047698751E+04  0.17053286901E+04  0.00000000000E+00 0. -1.
         11    1    5    5    0    0  0.31567943343E+02  0.74315944855E+02  0.45991771985E+03  0.46695150041E+03  0.00000000000E+00 0. -1.
        -12    1    5    5    0    0  0.34874172791E+02 -0.38857087622E+01  0.80442321083E+02  0.87762598422E+02  0.00000000000E+00 0.  1.
          5    1    4    4  501    0  0.22537118553E+02  0.13663864738E+01  0.80709369205E+02  0.83912236307E+02  0.41800000000E+01 0. -1.
         -5    1    4    4    0  501 -0.23723063073E+02 -0.64624550567E+02 -0.15507948421E+02  0.70690063812E+02  0.41800000000E+01 0. -1.
</event>
<event>
11    1  0.6930157E-009  0.1395461E+03  0.7561462E-02  0.1108066E+00
         22   -1    0    0    0    0  0.00000000000E+00  0.00000000000E+00  0.10683150239E+04  0.10683150239E+04  0.00000000000E+00 0.  1.
         22   -1    0    0    0    0 -0.00000000000E+00 -0.00000000000E+00 -0.82603678726E+02  0.82603678726E+02  0.00000000000E+00 0. -1.
        -24    2    1    2    0    0 -0.56218203376E+02  0.20270372289E+02 -0.27465878698E+02  0.10375915847E+03  0.80250944478E+02 0.  0.
         25    2    1    2    0    0  0.73875492676E+02 -0.40623786220E+02  0.37819065333E+03  0.40716488827E+03  0.12508875067E+03 0.  0.
         24    2    1    2    0    0 -0.17657289300E+02  0.20353413931E+02  0.63498657055E+03  0.63999465590E+03  0.75227478225E+02 0.  0.
        -13    1    5    5    0    0  0.38437564641E+01 -0.52841036548E+01  0.52477794229E+03  0.52481862099E+03  0.00000000000E+00 0.  1.
         14    1    5    5    0    0 -0.21501045764E+02  0.25637517585E+02  0.11020862825E+03  0.11517603491E+03  0.00000000000E+00 0. -1.
         13    1    3    3    0    0 -0.68317617949E+02  0.46158628489E+01 -0.40979482263E+02  0.79799254875E+02  0.00000000000E+00 0. -1.
        -14    1    3    3    0    0  0.12099414573E+02  0.15654509440E+02  0.13513603565E+02  0.23959903592E+02  0.00000000000E+00 0.  1.
          5    1    4    4  501    0  0.79308877518E+02 -0.29524093362E+02  0.38374363350E+03  0.39298628322E+03  0.41800000000E+01 0.  1.
         -5    1    4    4    0  501 -0.54333848421E+01 -0.11099692858E+02 -0.55529801720E+01  0.14178605051E+02  0.41800000000E+01 0.  1.
</event>
<event>
11    1  0.6930157E-009  0.1455618E+03  0.7561462E-02  0.1101502E+00
         22   -1    0    0    0    0  0.00000000000E+00  0.00000000000E+00  0.11029690448E+04  0.11029690448E+04  0.00000000000E+00 0.  1.
         22   -1    0    0    0    0 -0.00000000000E+00 -0.00000000000E+00 -0.35443588244E+03  0.35443588244E+03  0.00000000000E+00 0. -1.
         24    2    1    2    0    0  0.15786414159E+02  0.21681039343E+02 -0.27840549702E+03  0.29102970531E+03  0.80432519908E+02 0.  0.
         25    2    1    2    0    0  0.22491766531E+02 -0.85012244463E+02  0.20740143044E+02  0.15430243276E+03  0.12508447526E+03 0.  0.
        -24    2    1    2    0    0 -0.38278180689E+02  0.63331205120E+02  0.10061985164E+04  0.10120727892E+04  0.79873748091E+02 0.  0.
        -13    1    3    3    0    0  0.49538168309E+01 -0.13053209119E+02 -0.44281736182E+01  0.14647023285E+02  0.00000000000E+00 0.  1.
         14    1    3    3    0    0  0.10832597328E+02  0.34734248463E+02 -0.27397732340E+03  0.27638268202E+03  0.00000000000E+00 0. -1.
         11    1    5    5    0    0 -0.16565530912E+02 -0.54496084139E+01  0.46414277008E+02  0.49582256467E+02  0.00000000000E+00 0. -1.
        -12    1    5    5    0    0 -0.21712649778E+02  0.68780813534E+02  0.95978423936E+03  0.96249053273E+03  0.00000000000E+00 0.  1.
          5    1    4    4  501    0  0.55317643914E+02 -0.29659308966E+02 -0.32381063337E+02  0.70751127195E+02  0.41800000000E+01 0. -1.
         -5    1    4    4    0  501 -0.32825877384E+02 -0.55352935497E+02  0.53121206381E+02  0.83551305565E+02  0.41800000000E+01 0. -1.
</event>
<event>
11    1  0.6930157E-009  0.3379586E+03  0.7561462E-02  0.9852940E-01
         22   -1    0    0    0    0  0.00000000000E+00  0.00000000000E+00  0.25333346924E+04  0.25333346924E+04  0.00000000000E+00 0. -1.
         22   -1    0    0    0    0 -0.00000000000E+00 -0.00000000000E+00 -0.19812590876E+04  0.19812590876E+04  0.00000000000E+00 0. -1.
        -24    2    1    2    0    0  0.26049066880E+03 -0.40889193408E+02 -0.18970339343E+04  0.19169400278E+04  0.79962538355E+02 0.  0.
         25    2    1    2    0    0  0.10424960137E+03  0.33587879834E+02  0.55789699176E+02  0.17537407225E+03  0.12508976627E+03 0.  0.
         24    2    1    2    0    0 -0.36474027017E+03  0.73013135737E+01  0.23933198400E+04  0.24222796800E+04  0.79813643673E+02 0.  0.
        -11    1    5    5    0    0  0.33434555086E+01 -0.37387306975E+01  0.41926944700E+02  0.42225886537E+02  0.00000000000E+00 0.  1.
         12    1    5    5    0    0 -0.36808372568E+03  0.11040044271E+02  0.23513928953E+04  0.23800537934E+04  0.00000000000E+00 0. -1.
         13    1    3    3    0    0  0.25240352544E+03 -0.30073465855E+02 -0.18640073443E+04  0.18812589754E+04  0.00000000000E+00 0. -1.
        -14    1    3    3    0    0  0.80871433575E+01 -0.10815727553E+02 -0.33026590019E+02  0.35681052373E+02  0.00000000000E+00 0.  1.
          5    1    4    4  501    0  0.53587406388E+02 -0.28977147523E+02  0.70671936827E+02  0.93398502433E+02  0.41800000000E+01 0. -1.
         -5    1    4    4    0  501  0.50662194986E+02  0.62565027358E+02 -0.14882237651E+02  0.81975569815E+02  0.41800000000E+01 0. -1.
</event>
<event>
11    1  0.6930157E-009  0.1417642E+03  0.7561462E-02  0.1105604E+00
         22   -1    0    0    0    0  0.00000000000E+00  0.00000000000E+00  0.17023012944E+03  0.17023012944E+03  0.00000000000E+00 0. -1.
         22   -1    0    0    0    0 -0.00000000000E+00 -0.00000000000E+00 -0.14417905756E+04  0.14417905756E+04  0.00000000000E+00 0.  1.
        -24    2    1    2    0    0  0.41924275465E+02 -0.52524391263E+02 -0.12844376878E+04  0.12890038649E+04  0.85054884019E+02 0.  0.
         25    2    1    2    0    0 -0.62146680927E+01  0.69368363917E+02 -0.10476880127E+03  0.17741108851E+03  0.12509036972E+03 0.  0.
         24    2    1    2    0    0 -0.35709607373E+02 -0.16843972655E+02  0.11764604292E+03  0.14560575163E+03  0.76167893624E+02 0.  0.
        -11    1    5    5    0    0 -0.18807494098E+02  0.22804290500E+02  0.12734583577E+02  0.32185821697E+02  0.00000000000E+00 0.  1.
         12    1    5    5    0    0 -0.16902113275E+02 -0.39648263154E+02  0.10491145934E+03  0.11341992993E+03  0.00000000000E+00 0. -1.
         11    1    3    3    0    0  0.14191487900E+02 -0.42431187718E+02 -0.23912689998E+03  0.24327654698E+03  0.00000000000E+00 0. -1.
        -12    1    3    3    0    0  0.27732787565E+02 -0.10093203545E+02 -0.10453107878E+04  0.10457273179E+04  0.00000000000E+00 0.  1.
          5    1    4    4  501    0  0.19943168987E+02 -0.30043320466E+02 -0.47113268764E+02  0.59476580160E+02  0.41800000000E+01 0. -1.
         -5    1    4    4    0  501 -0.26157837080E+02  0.99411684383E+02 -0.57655532504E+02  0.11793450836E+03  0.41800000000E+01 0. -1.
</event>
<event>
11    1  0.6930157E-009  0.1383086E+03  0.7561462E-02  0.1109462E+00
         22   -1    0    0    0    0  0.00000000000E+00  0.00000000000E+00  0.29693117144E+04  0.29693117144E+04  0.00000000000E+00 0. -1.
         22   -1    0    0    0    0 -0.00000000000E+00 -0.00000000000E+00 -0.12735054693E+04  0.12735054693E+04  0.00000000000E+00 0.  1.
        -24    2    1    2    0    0  0.14298950298E+02  0.42997317107E+02 -0.82964846861E+03  0.83450665949E+03  0.77663080090E+02 0.  0.
         25    2    1    2    0    0 -0.10884550762E+02  0.15999160481E+02 -0.43149412149E+03  0.44967601392E+03  0.12508754548E+03 0.  0.
         24    2    1    2    0    0 -0.34143995355E+01 -0.58996477588E+02  0.29569488352E+04  0.29586345103E+04  0.80495395372E+02 0.  0.
        -13    1    5    5    0    0 -0.16879171719E+01  0.15984334562E+02  0.19295493676E+03  0.19362323114E+03  0.00000000000E+00 0.  1.
         14    1    5    5    0    0 -0.17264823636E+01 -0.74980812150E+02  0.27639938985E+04  0.27650112791E+04  0.00000000000E+00 0. -1.
         11    1    3    3    0    0 -0.13489967177E+00  0.38927472142E+02 -0.15919075682E+03  0.16388124768E+03  0.00000000000E+00 0. -1.
        -12    1    3    3    0    0  0.14433849969E+02  0.40698449646E+01 -0.67045771179E+03  0.67062541181E+03  0.00000000000E+00 0.  1.
          5    1    4    4  501    0  0.42399233400E+02  0.47894170926E+02 -0.20528020892E+03  0.21505576759E+03  0.41800000000E+01 0.  1.
         -5    1    4    4    0  501 -0.53283784162E+02 -0.31895010445E+02 -0.22621391257E+03  0.23462024632E+03  0.41800000000E+01 0.  1.
</event>
<event>
11    1  0.6930157E-009  0.1279835E+03  0.7561462E-02  0.1121772E+00
         22   -1    0    0    0    0  0.00000000000E+00  0.00000000000E+00  0.30742675878E+04  0.30742675878E+04  0.00000000000E+00 0.  1.
         22   -1    0    0    0    0 -0.00000000000E+00 -0.00000000000E+00 -0.15329685544E+03  0.15329685544E+03  0.00000000000E+00 0. -1.
         24    2    1    2    0    0 -0.20428746718E+02  0.27003875304E+02 -0.82673833689E+02  0.11971727230E+03  0.79691401903E+02 0.  0.
         25    2    1    2    0    0  0.11475239926E+02  0.11461696350E+02  0.25718713255E+02  0.12873230303E+03  0.12508997569E+03 0.  0.
        -24    2    1    2    0    0  0.89535067921E+01 -0.38465571654E+02  0.29779258528E+04  0.29791148679E+04  0.74318543547E+02 0.  0.
        -13    1    3    3    0    0 -0.22983951440E+02  0.54407262916E+02 -0.56742798893E+02  0.81903342472E+02  0.00000000000E+00 0.  1.
         14    1    3    3    0    0  0.25552047226E+01 -0.27403387612E+02 -0.25931034796E+02  0.37813929833E+02  0.00000000000E+00 0. -1.
         11    1    5    5    0    0 -0.17484706044E+01 -0.21033294573E+02  0.19942894314E+03  0.20054266377E+03  0.00000000000E+00 0. -1.
        -12    1    5    5    0    0  0.10701977397E+02 -0.17432277081E+02  0.27784969097E+04  0.27785722041E+04  0.00000000000E+00 0.  1.
          5    1    4    4  501    0  0.14749647136E+02 -0.55352551234E+02  0.14677813461E+01  0.57455058966E+02  0.41800000000E+01 0. -1.
         -5    1    4    4    0  501 -0.32744072105E+01  0.66814247583E+02  0.24250931909E+02  0.71277244063E+02  0.41800000000E+01 0. -1.
</event>
<event>
11    1  0.6930157E-009  0.2157064E+03  0.7561462E-02  0.1043941E+00
         22   -1    0    0    0    0  0.00000000000E+00  0.00000000000E+00  0.12596227552E+03  0.12596227552E+03  0.00000000000E+00 0. -1.
         22   -1    0    0    0    0 -0.00000000000E+00 -0.00000000000E+00 -0.15098475975E+04  0.15098475975E+04  0.00000000000E+00 0. -1.
        -24    2    1    2    0    0  0.90459184139E+02  0.11274062002E+03 -0.87064109469E+03  0.88648450977E+03  0.83340019808E+02 0.  0.
         25    2    1    2    0    0  0.43812220102E+02 -0.22304021921E+03 -0.49319401936E+03  0.55727411185E+03  0.12509054716E+03 0.  0.
         24    2    1    2    0    0 -0.13427140424E+03  0.11029959919E+03 -0.20050207977E+02  0.19205125144E+03  0.79289726711E+02 0.  0.
        -11    1    5    5    0    0 -0.54648082117E+02  0.21231246974E+02  0.25842080243E+02  0.64070210226E+02  0.00000000000E+00 0.  1.
         12    1    5    5    0    0 -0.79623322124E+02  0.89068352216E+02 -0.45892288219E+02  0.12798104121E+03  0.00000000000E+00 0. -1.
         11    1    3    3    0    0  0.92485919311E+02  0.11721216495E+03 -0.69876048394E+03  0.71453379962E+03  0.00000000000E+00 0. -1.
        -12    1    3    3    0    0 -0.20267351729E+01 -0.44715449262E+01 -0.17188061075E+03  0.17195071015E+03  0.00000000000E+00 0.  1.
          5    1    4    4  501    0  0.65203557854E+02 -0.18613530947E+03 -0.29764066667E+03  0.35707883758E+03  0.41800000000E+01 0.  1.
         -5    1    4    4    0  501 -0.21391337752E+02 -0.36904909744E+02 -0.19555335269E+03  0.20019527428E+03  0.41800000000E+01 0.  1.
</event>
<event>
11    1  0.6930157E-009  0.1604968E+03  0.7561462E-02  0.1086611E+00
         22   -1    0    0    0    0  0.00000000000E+00  0.00000000000E+00  0.58706322040E+02  0.58706322040E+02  0.00000000000E+00 0. -1.
         22   -1    0    0    0    0 -0.00000000000E+00 -0.00000000000E+00 -0.20982246965E+04  0.20982246965E+04  0.00000000000E+00 0. -1.
         24    2    1    2    0    0 -0.70943989316E+02 -0.73571808557E+02 -0.16788740515E+04  0.16839113841E+04  0.80582925252E+02 0.  0.
         25    2    1    2    0    0  0.55009201143E+02  0.72126101569E+02 -0.35933000135E+03  0.39114314837E+03  0.12508687345E+03 0.  0.
        -24    2    1    2    0    0  0.15934788173E+02  0.14457069881E+01 -0.13143216325E+01  0.81876486158E+02  0.80287134720E+02 0.  0.
        -13    1    3    3    0    0 -0.28470165964E+02 -0.33282277745E+02 -0.12814857702E+04  0.12822340034E+04  0.00000000000E+00 0.  1.
         14    1    3    3    0    0 -0.42473823352E+02 -0.40289530812E+02 -0.39738828136E+03  0.40167738065E+03  0.00000000000E+00 0. -1.
         13    1    5    5    0    0  0.28054387608E+02  0.14918202142E+02  0.31277364672E+02  0.44585591395E+02  0.00000000000E+00 0. -1.
        -14    1    5    5    0    0 -0.12119599435E+02 -0.13472495154E+02 -0.32591686304E+02  0.37290894764E+02  0.00000000000E+00 0.  1.
          5    1    4    4  501    0  0.30032099878E+02  0.73256397513E+02 -0.35698733928E+03  0.36568546541E+03  0.41800000000E+01 0. -1.
         -5    1    4    4    0  501  0.24977101265E+02 -0.11302959437E+01 -0.23426620669E+01  0.25457682967E+02  0.41800000000E+01 0. -1.
</event>
<event>
11    1  0.6930157E-009  0.2413842E+03  0.7561462E-02  0.1028592E+00
         22   -1    0    0    0    0  0.00000000000E+00  0.00000000000E+00  0.11473741437E+04  0.11473741437E+04  0.00000000000E+00 0. -1.
         22   -1    0    0    0    0 -0.00000000000E+00 -0.00000000000E+00 -0.94958648711E+03  0.94958648711E+03  0.00000000000E+00 0.  1.
         24    2    1    2    0    0 -0.64286098195E+02  0.18815302402E+03 -0.74289999012E+03  0.77320490941E+03  0.80069805509E+02 0.  0.
         25    2    1    2    0    0  0.12782240724E+02 -0.27792384308E+03 -0.63553654673E+02  0.31159634567E+03  0.12509263520E+03 0.  0.
        -24    2    1    2    0    0  0.51503857470E+02  0.89770819063E+02  0.10042413014E+04  0.10121593758E+04  0.72488365898E+02 0.  0.
        -11    1    3    3    0    0 -0.73935471883E+02  0.14533183024E+03 -0.65451323838E+03  0.67451862398E+03  0.00000000000E+00 0.  1.
         12    1    3    3    0    0  0.96493736883E+01  0.42821193783E+02 -0.88386751738E+02  0.98686285432E+02  0.00000000000E+00 0. -1.
         13    1    5    5    0    0  0.35425773818E+02  0.27668156266E+02  0.18390682830E+03  0.18932045272E+03  0.00000000000E+00 0. -1.
        -14    1    5    5    0    0  0.16078083653E+02  0.62102662797E+02  0.82033447312E+03  0.82283892305E+03  0.00000000000E+00 0.  1.
          5    1    4    4  501    0 -0.47978890344E+01 -0.15899660526E+02  0.28529914946E+02  0.33275327058E+02  0.41800000000E+01 0. -1.
         -5    1    4    4    0  501  0.17580129759E+02 -0.26202418256E+03 -0.92083569619E+02  0.27832101861E+03  0.41800000000E+01 0. -1.
</event>
<event>
11    1  0.6930157E-009  0.1774777E+03  0.7561462E-02  0.1071702E+00
         22   -1    0    0    0    0  0.00000000000E+00  0.00000000000E+00  0.12445317611E+03  0.12445317611E+03  0.00000000000E+00 0.  1.
         22   -1    0    0    0    0 -0.00000000000E+00 -0.00000000000E+00 -0.20168146168E+04  0.20168146168E+04  0.00000000000E+00 0. -1.
         24    2    1    2    0    0  0.75684974945E+02  0.61815331702E+02 -0.17249400270E+04  0.17296380879E+04  0.81734128249E+02 0.  0.
         25    2    1    2    0    0  0.66284909275E+02 -0.73593604610E+02 -0.18714335785E+03  0.24592719285E+03  0.12509132647E+03 0.  0.
        -24    2    1    2    0    0 -0.14196988422E+03  0.11778272909E+02  0.19721944175E+02  0.16570251214E+03  0.82305478008E+02 0.  0.
        -13    1    3    3    0    0 -0.43226276846E+01  0.33424857095E+02 -0.25064914061E+03  0.25290491864E+03  0.00000000000E+00 0.  1.
         14    1    3    3    0    0  0.80007602629E+02  0.28390474607E+02 -0.14742908864E+04  0.14767331693E+04  0.00000000000E+00 0. -1.
         11    1    5    5    0    0  0.10471993459E+02  0.16735821165E+01 -0.35081855867E+01  0.11170089088E+02  0.00000000000E+00 0. -1.
        -12    1    5    5    0    0 -0.15244187768E+03  0.10104690792E+02  0.23230129762E+02  0.15453242305E+03  0.00000000000E+00 0.  1.
          5    1    4    4  501    0  0.92475142930E+02 -0.47265257846E+02 -0.18003844752E+03  0.20788692033E+03  0.41800000000E+01 0.  1.
         -5    1    4    4    0  501 -0.26190233655E+02 -0.26328346764E+02 -0.71049103274E+01  0.38040272515E+02  0.41800000000E+01 0.  1.
</event>
<event>
11    1  0.6930157E-009  0.1602175E+03  0.7561462E-02  0.1086873E+00
         22   -1    0    0    0    0  0.00000000000E+00  0.00000000000E+00  0.18113526770E+03  0.18113526770E+03  0.00000000000E+00 0.  1.
         22   -1    0    0    0    0 -0.00000000000E+00 -0.00000000000E+00 -0.50928185566E+03  0.50928185566E+03  0.00000000000E+00 0. -1.
        -24    2    1    2    0    0  0.90464153395E+02  0.10560267149E+02 -0.30845954302E+03  0.33146877859E+03  0.80180915487E+02 0.  0.
         25    2    1    2    0    0 -0.14111961213E+03 -0.81548667188E+01 -0.11796445660E+03  0.22258605084E+03  0.12509072799E+03 0.  0.
         24    2    1    2    0    0  0.50655458731E+02 -0.24054004301E+01  0.98277411657E+02  0.13636229393E+03  0.79777591543E+02 0.  0.
        -13    1    5    5    0    0  0.47218387332E+02 -0.36862531070E+02  0.62215875848E+02  0.86366877370E+02  0.00000000000E+00 0.  1.
         14    1    5    5    0    0  0.34370713987E+01  0.34457130640E+02  0.36061535810E+02  0.49995416557E+02  0.00000000000E+00 0. -1.
         13    1    3    3    0    0  0.71400687391E+02 -0.12170226111E+02 -0.11614048059E+03  0.13687506638E+03  0.00000000000E+00 0. -1.
        -14    1    3    3    0    0  0.19063466004E+02  0.22730493260E+02 -0.19231906243E+03  0.19459371221E+03  0.00000000000E+00 0.  1.
          5    1    4    4  501    0 -0.11356226213E+03 -0.13070057942E+01 -0.14426842394E+03  0.18365442056E+03  0.41800000000E+01 0.  1.
         -5    1    4    4    0  501 -0.27557349994E+02 -0.68478609247E+01  0.26303967346E+02  0.38931630277E+02  0.41800000000E+01 0.  1.
</event>
<event>
11    1  0.6930157E-009  0.1553269E+03  0.7561462E-02  0.1091557E+00
         22   -1    0    0    0    0  0.00000000000E+00  0.00000000000E+00  0.31964530749E+03  0.31964530749E+03  0.00000000000E+00 0. -1.
         22   -1    0    0    0    0 -0.00000000000E+00 -0.00000000000E+00 -0.13887137207E+04  0.13887137207E+04  0.00000000000E+00 0.  1.
         24    2    1    2    0    0 -0.20848835788E+02  0.53610275252E+02 -0.76224152424E+03  0.76859346729E+03  0.80093951858E+02 0.  0.
         25    2    1    2    0    0 -0.68986920753E+02 -0.30584323154E+02 -0.60195680971E+03  0.61943254226E+03  0.12510027020E+03 0.  0.
        -24    2    1    2    0    0  0.89835756541E+02 -0.23025952098E+02  0.29512992074E+03  0.32033301862E+03  0.83131913714E+02 0.  0.
        -13    1    3    3    0    0 -0.41013949763E+01  0.27377979614E+02 -0.68148987661E+03  0.68205192407E+03  0.00000000000E+00 0.  1.
         14    1    3    3    0    0 -0.16747440812E+02  0.26232295638E+02 -0.80751647630E+02  0.86541543221E+02  0.00000000000E+00 0. -1.
         11    1    5    5    0    0  0.56532859681E+02 -0.52118508824E+02  0.14916697023E+03  0.16781861694E+03  0.00000000000E+00 0. -1.
        -12    1    5    5    0    0  0.33302896860E+02  0.29092556726E+02  0.14596295051E+03  0.15251440168E+03  0.00000000000E+00 0.  1.
          5    1    4    4  501    0 -0.53011288598E+02  0.28569946395E+02 -0.47026772987E+03  0.47412619493E+03  0.41800000000E+01 0.  1.
         -5    1    4    4    0  501 -0.15975632155E+02 -0.59154269549E+02 -0.13168907984E+03  0.14530634734E+03  0.41800000000E+01 0.  1.
</event>
<event>
11    1  0.6930157E-009  0.1429846E+03  0.7561462E-02  0.1104271E+00
         22   -1    0    0    0    0  0.00000000000E+00  0.00000000000E+00  0.80282120061E+03  0.80282120061E+03  0.00000000000E+00 0.  1.
         22   -1    0    0    0    0 -0.00000000000E+00 -0.00000000000E+00 -0.68189385013E+03  0.68189385013E+03  0.00000000000E+00 0.  1.
         24    2    1    2    0    0 -0.22888542761E+02 -0.13751688784E+02 -0.65140270307E+03  0.65728959839E+03  0.83613038821E+02 0.  0.
         25    2    1    2    0    0 -0.25109786095E+02 -0.42284453573E+02  0.17714150924E+03  0.22236311444E+03  0.12509102283E+03 0.  0.
        -24    2    1    2    0    0  0.47998328856E+02  0.56036142357E+02  0.59518854431E+03  0.60506233791E+03  0.80044616688E+02 0.  0.
        -13    1    3    3    0    0 -0.75793715314E+01  0.45131717811E+01 -0.60554102173E+03  0.60560527127E+03  0.00000000000E+00 0.  1.
         14    1    3    3    0    0 -0.15309171230E+02 -0.18264860565E+02 -0.45861681332E+02  0.51684327120E+02  0.00000000000E+00 0. -1.
         13    1    5    5    0    0  0.23016539181E+00 -0.96353883398E+01  0.87173464865E+01  0.12995607501E+02  0.00000000000E+00 0. -1.
        -14    1    5    5    0    0  0.47768163464E+02  0.65671530697E+02  0.58647119782E+03  0.59206673041E+03  0.00000000000E+00 0.  1.
          5    1    4    4  501    0 -0.71300624818E+02 -0.47654619174E+02  0.96395749935E+02  0.12909049087E+03  0.41800000000E+01 0. -1.
         -5    1    4    4    0  501  0.46190838723E+02  0.53701656008E+01  0.80745759309E+02  0.93272623566E+02  0.41800000000E+01 0. -1.
</event>
<event>
11    1  0.6930157E-009  0.1451706E+03  0.7561462E-02  0.1101918E+00
         22   -1    0    0    0    0  0.00000000000E+00  0.00000000000E+00  0.55373629794E+03  0.55373629794E+03  0.00000000000E+00 0.  1.
         22   -1    0    0    0    0 -0.00000000000E+00 -0.00000000000E+00 -0.17487941782E+04  0.17487941782E+04  0.00000000000E+00 0. -1.
        -24    2    1    2    0    0 -0.17440303945E+02  0.71863819195E+02 -0.17202448624E+04  0.17237572459E+04  0.81413042827E+02 0.  0.
         25    2    1    2    0    0  0.32301044791E+02 -0.33559865014E+02  0.19039086024E+03  0.23251926486E+03  0.12508759665E+03 0.  0.
         24    2    1    2    0    0 -0.14860740846E+02 -0.38303954180E+02  0.33479612188E+03  0.34625396539E+03  0.78200580565E+02 0.  0.
        -11    1    5    5    0    0  0.50912045688E+01 -0.12180734384E+02  0.29196416131E+03  0.29226248843E+03  0.00000000000E+00 0.  1.
         12    1    5    5    0    0 -0.19951945415E+02 -0.26123219796E+02  0.42831960567E+02  0.53991476960E+02  0.00000000000E+00 0. -1.
         13    1    3    3    0    0 -0.37967531703E+02  0.29159344680E+02 -0.12943149209E+04  0.12951999519E+04  0.00000000000E+00 0. -1.
        -14    1    3    3    0    0  0.20527227758E+02  0.42704474515E+02 -0.42592994147E+03  0.42855729403E+03  0.00000000000E+00 0.  1.
          5    1    4    4  501    0  0.23767203681E+02  0.42809615582E+02  0.39175246776E+02  0.62846762184E+02  0.41800000000E+01 0.  1.
         -5    1    4    4    0  501  0.85338411108E+01 -0.76369480596E+02  0.15121561346E+03  0.16967250268E+03  0.41800000000E+01 0.  1.
</event>
<event>
11    1  0.6930157E-009  0.1445279E+03  0.7561462E-02  0.1102605E+00
         22   -1    0    0    0    0  0.00000000000E+00  0.00000000000E+00  0.21906124264E+04  0.21906124264E+04  0.00000000000E+00 0.  1.
         22   -1    0    0    0    0 -0.00000000000E+00 -0.00000000000E+00 -0.16753082221E+03  0.16753082221E+03  0.00000000000E+00 0.  1.
        -24    2    1    2    0    0 -0.25611349175E+02 -0.27653738437E+02 -0.13823118161E+03  0.16395990072E+03  0.79713982590E+02 0.  0.
         25    2    1    2    0    0 -0.29439341156E+02 -0.25152862136E+02  0.27614137532E+03  0.30561516680E+03  0.12508888732E+03 0.  0.
         24    2    1    2    0    0  0.55050690331E+02  0.52806600573E+02  0.18851714104E+04  0.18885681810E+04  0.83662489500E+02 0.  0.
        -13    1    5    5    0    0  0.61997507383E+02  0.69627689221E+02  0.16826263385E+04  0.16852071389E+04  0.00000000000E+00 0.  1.
         14    1    5    5    0    0 -0.69468170528E+01 -0.16821088648E+02  0.20254507195E+03  0.20336104215E+03  0.00000000000E+00 0. -1.
         11    1    3    3    0    0  0.20143740287E+02 -0.36120395119E+02 -0.58481950575E+02  0.71628149211E+02  0.00000000000E+00 0. -1.
        -12    1    3    3    0    0 -0.45755089462E+02  0.84666566824E+01 -0.79749231032E+02  0.92331751511E+02  0.00000000000E+00 0.  1.
          5    1    4    4  501    0  0.17949684587E+02 -0.42623301617E+02  0.32307283648E+02  0.56570045025E+02  0.41800000000E+01 0. -1.
         -5    1    4    4    0  501 -0.47389025743E+02  0.17470439480E+02  0.24383409168E+03  0.24904512178E+03  0.41800000000E+01 0. -1.
</event>
<event>
11    1  0.6930157E-009  0.1332735E+03  0.7561462E-02  0.1115311E+00
         22   -1    0    0    0    0  0.00000000000E+00  0.00000000000E+00  0.19358099414E+03  0.19358099414E+03  0.00000000000E+00 0. -1.
         22   -1    0    0    0    0 -0.00000000000E+00 -0.00000000000E+00 -0.54816593565E+03  0.54816593565E+03  0.00000000000E+00 0. -1.
         24    2    1    2    0    0 -0.51201456834E+02  0.11137391970E+02 -0.45858130808E+03  0.46844129122E+03  0.79967471633E+02 0.  0.
         25    2    1    2    0    0  0.78801551361E+02  0.56822111680E+01  0.37688941010E+02  0.15267737503E+03  0.12509177651E+03 0.  0.
        -24    2    1    2    0    0 -0.27600094527E+02 -0.16819603138E+02  0.66307425556E+02  0.12062826353E+03  0.95445476638E+02 0.  0.
        -11    1    3    3    0    0  0.13918123930E+01  0.34560780960E+02 -0.11568577580E+03  0.12074594588E+03  0.00000000000E+00 0.  1.
         12    1    3    3    0    0 -0.52593269227E+02 -0.23423388990E+02 -0.34289553228E+03  0.34769534535E+03  0.00000000000E+00 0. -1.
         11    1    5    5    0    0  0.29164828970E+02  0.56131240996E+01  0.48805062167E+02  0.57131676889E+02  0.00000000000E+00 0. -1.
        -12    1    5    5    0    0 -0.56764923496E+02 -0.22432727237E+02  0.17502363389E+02  0.63496586641E+02  0.00000000000E+00 0.  1.
          5    1    4    4  501    0 -0.24479228658E+02 -0.29529467121E+02  0.13081339020E+02  0.40740838169E+02  0.41800000000E+01 0. -1.
         -5    1    4    4    0  501  0.10328078002E+03  0.35211678289E+02  0.24607601990E+02  0.11193653686E+03  0.41800000000E+01 0. -1.
</event>
<event>
11    1  0.6930157E-009  0.2109531E+03  0.7561462E-02  0.1047037E+00
         22   -1    0    0    0    0  0.00000000000E+00  0.00000000000E+00  0.27283395686E+04  0.27283395686E+04  0.00000000000E+00 0. -1.
         22   -1    0    0    0    0 -0.00000000000E+00 -0.00000000000E+00 -0.62156444067E+03  0.62156444067E+03  0.00000000000E+00 0.  1.
         24    2    1    2    0    0  0.42034063798E+02 -0.21413726161E+02 -0.59814544299E+03  0.60608894783E+03  0.85676318338E+02 0.  0.
         25    2    1    2    0    0  0.13642941205E+03  0.36129810658E+02  0.58032404206E+03  0.61019919499E+03  0.12509482839E+03 0.  0.
        -24    2    1    2    0    0 -0.17846347585E+03 -0.14716084497E+02  0.21245965288E+04  0.21336158664E+04  0.79627129623E+02 0.  0.
        -13    1    3    3    0    0 -0.19597068746E+02 -0.16502720636E+02 -0.32617226915E+03  0.32717691553E+03  0.00000000000E+00 0.  1.
         14    1    3    3    0    0  0.61631132545E+02 -0.49110055247E+01 -0.27197317383E+03  0.27891203230E+03  0.00000000000E+00 0. -1.
         11    1    5    5    0    0 -0.14688621817E+03  0.15678467371E+02  0.18038902502E+04  0.18099285650E+04  0.00000000000E+00 0. -1.
        -12    1    5    5    0    0 -0.31577257687E+02 -0.30394551867E+02  0.32070627861E+03  0.32368730146E+03  0.00000000000E+00 0.  1.
          5    1    4    4  501    0  0.13834844659E+03  0.25355002709E+02  0.58163142904E+03  0.59841102971E+03  0.41800000000E+01 0. -1.
         -5    1    4    4    0  501 -0.19190345352E+01  0.10774807949E+02 -0.13073869846E+01  0.11788165277E+02  0.41800000000E+01 0. -1.
</event>
<event>
11    1  0.6930157E-009  0.1608710E+03  0.7561462E-02  0.1086261E+00
         22   -1    0    0    0    0  0.00000000000E+00  0.00000000000E+00  0.10681406756E+04  0.10681406756E+04  0.00000000000E+00 0. -1.
         22   -1    0    0    0    0 -0.00000000000E+00 -0.00000000000E+00 -0.43435645667E+02  0.43435645667E+02  0.00000000000E+00 0.  1.
        -24    2    1    2    0    0  0.80503540387E+02  0.12607776683E+03  0.36155063764E+03  0.39905742083E+03  0.78431742519E+02 0.  0.
         25    2    1    2    0    0 -0.34610787282E+02 -0.46004950642E+02  0.33020760381E+03  0.35775352348E+03  0.12504463151E+03 0.  0.
         24    2    1    2    0    0 -0.45892753105E+02 -0.80072816183E+02  0.33294678851E+03  0.35476537699E+03  0.80542585335E+02 0.  0.
        -11    1    5    5    0    0 -0.53781053828E+02 -0.18378592516E+02  0.11755053283E+03  0.13056914713E+03  0.00000000000E+00 0.  1.
         12    1    5    5    0    0  0.78883007233E+01 -0.61694223667E+02  0.21539625568E+03  0.22419622986E+03  0.00000000000E+00 0. -1.
         11    1    3    3    0    0  0.59399694212E+02  0.95976649434E+02  0.17031872971E+03  0.20432403333E+03  0.00000000000E+00 0. -1.
        -12    1    3    3    0    0  0.21103846175E+02  0.30101117392E+02  0.19123190794E+03  0.19473338749E+03  0.00000000000E+00 0.  1.
          5    1    4    4  501    0  0.42810557843E+02 -0.36066879902E+02  0.17808553263E+03  0.18672303827E+03  0.41800000000E+01 0. -1.
         -5    1    4    4    0  501 -0.77421345124E+02 -0.99380707407E+01  0.15212207117E+03  0.17103048520E+03  0.41800000000E+01 0. -1.
</event>
<event>
11    1  0.6930157E-009  0.3115241E+03  0.7561462E-02  0.9954286E-01
         22   -1    0    0    0    0  0.00000000000E+00  0.00000000000E+00  0.96219107911E+03  0.96219107911E+03  0.00000000000E+00 0. -1.
         22   -1    0    0    0    0 -0.00000000000E+00 -0.00000000000E+00 -0.27319151623E+03  0.27319151623E+03  0.00000000000E+00 0. -1.
        -24    2    1    2    0    0 -0.18755907199E+02  0.62257192246E+02 -0.14235502433E+03  0.17482051611E+03  0.77907110465E+02 0.  0.
         25    2    1    2    0    0 -0.21085303599E+03  0.13335351314E+03  0.16362683863E+03  0.32351711443E+03  0.12508964288E+03 0.  0.
         24    2    1    2    0    0  0.22960894319E+03 -0.19561070539E+03  0.66772774858E+03  0.73704496479E+03  0.79944474751E+02 0.  0.
        -13    1    5    5    0    0  0.27587145069E+02  0.86382268280E+00  0.91944535029E+02  0.95997886874E+02  0.00000000000E+00 0.  1.
         14    1    5    5    0    0  0.20202179812E+03 -0.19647452807E+03  0.57578321355E+03  0.64104707791E+03  0.00000000000E+00 0. -1.
         13    1    3    3    0    0  0.30504318242E+02  0.28513947145E+02 -0.57355726035E+02  0.70945316422E+02  0.00000000000E+00 0. -1.
        -14    1    3    3    0    0 -0.49260225441E+02  0.33743245100E+02 -0.84999298296E+02  0.10387519969E+03  0.00000000000E+00 0.  1.
          5    1    4    4  501    0 -0.16212867387E+03  0.11660024135E+03  0.18041866999E+03  0.26916480464E+03  0.41800000000E+01 0.  1.
         -5    1    4    4    0  501 -0.48724362124E+02  0.16753271795E+02 -0.16791831357E+02  0.54352309799E+02  0.41800000000E+01 0.  1.
</event>
<event>
11    1  0.6930157E-009  0.1293264E+03  0.7561462E-02  0.1120099E+00
         22   -1    0    0    0    0  0.00000000000E+00  0.00000000000E+00  0.22569747358E+03  0.22569747358E+03  0.00000000000E+00 0. -1.
         22   -1    0    0    0    0 -0.00000000000E+00 -0.00000000000E+00 -0.71686284389E+03  0.71686284389E+03  0.00000000000E+00 0. -1.
         24    2    1    2    0    0 -0.18033270063E+02  0.11945610040E+02 -0.64707623299E+03  0.65249570937E+03  0.81087008947E+02 0.  0.
         25    2    1    2    0    0  0.19144332394E+01  0.20771872011E+02  0.21289203367E+02  0.12859794815E+03  0.12509622843E+03 0.  0.
        -24    2    1    2    0    0  0.16118836824E+02 -0.32717482051E+02  0.13462165931E+03  0.16146665995E+03  0.81352569645E+02 0.  0.
        -13    1    3    3    0    0 -0.37899647018E+02 -0.20112965886E+01 -0.14667161950E+03  0.15150245056E+03  0.00000000000E+00 0.  1.
         14    1    3    3    0    0  0.19866376956E+02  0.13956906628E+02 -0.50040461348E+03  0.50099325881E+03  0.00000000000E+00 0. -1.
         13    1    5    5    0    0  0.25396778830E+02  0.11221836931E+02  0.10265343102E+03  0.10634215015E+03  0.00000000000E+00 0. -1.
        -14    1    5    5    0    0 -0.92779420064E+01 -0.43939318982E+02  0.31968228292E+02  0.55124509799E+02  0.00000000000E+00 0.  1.
          5    1    4    4  501    0  0.41833583631E+01 -0.27550487229E+02 -0.40919358367E+02  0.49682956061E+02  0.41800000000E+01 0.  1.
         -5    1    4    4    0  501 -0.22689251237E+01  0.48322359240E+02  0.62208561734E+02  0.78914992091E+02  0.41800000000E+01 0.  1.
</event>
<event>
11    1  0.6930157E-009  0.1847931E+03  0.7561462E-02  0.1065830E+00
         22   -1    0    0    0    0  0.00000000000E+00  0.00000000000E+00  0.18985074060E+04  0.18985074060E+04  0.00000000000E+00 0.  1.
         22   -1    0    0    0    0 -0.00000000000E+00 -0.00000000000E+00 -0.14417165074E+03  0.14417165074E+03  0.00000000000E+00 0. -1.
        -24    2    1    2    0    0 -0.18902082865E+02 -0.10331197971E+02 -0.11425344473E+03  0.14152491239E+03  0.80693424799E+02 0.  0.
         25    2    1    2    0    0 -0.99247250185E+02 -0.71715895641E+02  0.73129061863E+03  0.75194915515E+03  0.12509347176E+03 0.  0.
         24    2    1    2    0    0  0.11814933305E+03  0.82047093612E+02  0.11372985814E+04  0.11492049892E+04  0.80827307310E+02 0.  0.
        -13    1    5    5    0    0  0.76438946002E+02  0.86523195323E+02  0.65602311961E+03  0.66610472844E+03  0.00000000000E+00 0.  1.
         14    1    5    5    0    0  0.41710387048E+02 -0.44761017115E+01  0.48127546179E+03  0.48310026081E+03  0.00000000000E+00 0. -1.
         11    1    3    3    0    0  0.18365641096E+02  0.20538254608E+02 -0.72680156755E+02  0.77727227283E+02  0.00000000000E+00 0. -1.
        -12    1    3    3    0    0 -0.37267723961E+02 -0.30869452578E+02 -0.41573287972E+02  0.63797685103E+02  0.00000000000E+00 0.  1.
          5    1    4    4  501    0 -0.12618106520E+03 -0.38614613268E+02  0.53853813028E+03  0.55448493193E+03  0.41800000000E+01 0. -1.
         -5    1    4    4    0  501  0.26933815015E+02 -0.33101282374E+02  0.19275248836E+03  0.19746422322E+03  0.41800000000E+01 0. -1.
</event>
<event>
11    1  0.6930157E-009  0.1496441E+03  0.7561462E-02  0.1097243E+00
         22   -1    0    0    0    0  0.00000000000E+00  0.00000000000E+00  0.59446800230E+03  0.59446800230E+03  0.00000000000E+00 0. -1.
         22   -1    0    0    0    0 -0.00000000000E+00 -0.00000000000E+00 -0.38016099379E+03  0.38016099379E+03  0.00000000000E+00 0.  1.
        -24    2    1    2    0    0 -0.14108113088E+02  0.30565109051E+02 -0.23370104636E+03  0.24889859501E+03  0.78746852509E+02 0.  0.
         25    2    1    2    0    0 -0.62007719834E+02 -0.61581898203E+02 -0.88667168313E+02  0.17648202964E+03  0.12508697991E+03 0.  0.
         24    2    1    2    0    0  0.76115832922E+02  0.31016789152E+02  0.53667522319E+03  0.54924837145E+03  0.83053098208E+02 0.  0.
        -13    1    5    5    0    0  0.23403135288E+01  0.42335942275E+01 -0.17413234211E+01  0.51412639256E+01  0.00000000000E+00 0.  1.
         14    1    5    5    0    0  0.73775519393E+02  0.26783194925E+02  0.53841654661E+03  0.54410710752E+03  0.00000000000E+00 0. -1.
         13    1    3    3    0    0  0.26744426160E+02 -0.97814169534E+00 -0.13382472650E+03  0.13647446103E+03  0.00000000000E+00 0. -1.
        -14    1    3    3    0    0 -0.40852539248E+02  0.31543250746E+02 -0.99876319864E+02  0.11242413398E+03  0.00000000000E+00 0.  1.
          5    1    4    4  501    0  0.29984805682E+01  0.32192145784E+02 -0.41918780864E+02  0.53103500120E+02  0.41800000000E+01 0.  1.
         -5    1    4    4    0  501 -0.65006200402E+02 -0.93774043987E+02 -0.46748387448E+02  0.12337852952E+03  0.41800000000E+01 0.  1.
</event>
<event>
11    1  0.6930157E-009  0.1342640E+03  0.7561462E-02  0.1114138E+00
         22   -1    0    0    0    0  0.00000000000E+00  0.00000000000E+00  0.18701760105E+03  0.18701760105E+03  0.00000000000E+00 0. -1.
         22   -1    0    0    0    0 -0.00000000000E+00 -0.00000000000E+00 -0.10823764462E+04  0.10823764462E+04  0.00000000000E+00 0. -1.
        -24    2    1    2    0    0 -0.25135163016E+01  0.49054949274E+02 -0.10175437435E+04  0.10218991621E+04  0.80435823272E+02 0.  0.
         25    2    1    2    0    0  0.15768391107E+02 -0.31847888764E+02  0.60600907135E+02  0.14346842254E+03  0.12509111936E+03 0.  0.
         24    2    1    2    0    0 -0.13254874805E+02 -0.17207060510E+02  0.61583991236E+02  0.10402646264E+03  0.80976183632E+02 0.  0.
        -11    1    5    5    0    0  0.13692538696E+02  0.19220677042E+02 -0.43768668992E+01  0.24001604232E+02  0.00000000000E+00 0.  1.
         12    1    5    5    0    0 -0.26947413501E+02 -0.36427737552E+02  0.65960858135E+02  0.80024858409E+02  0.00000000000E+00 0. -1.
         13    1    3    3    0    0 -0.19756645079E-01 -0.19619442055E+02 -0.41232760974E+03  0.41279411412E+03  0.00000000000E+00 0. -1.
        -14    1    3    3    0    0 -0.24937596565E+01  0.68674391329E+02 -0.60521613376E+03  0.60910504794E+03  0.00000000000E+00 0.  1.
          5    1    4    4  501    0 -0.48118890187E+02 -0.31029298978E+02  0.32340869716E+01  0.57499362662E+02  0.41800000000E+01 0. -1.
         -5    1    4    4    0  501  0.63887281294E+02 -0.81858978544E+00  0.57366820163E+02  0.85969059876E+02  0.41800000000E+01 0. -1.
</event>
<event>
11    1  0.6930157E-009  0.1882747E+03  0.7561462E-02  0.1063139E+00
         22   -1    0    0    0    0  0.00000000000E+00  0.00000000000E+00  0.90570694051E+03  0.90570694051E+03  0.00000000000E+00 0.  1.
         22   -1    0    0    0    0 -0.00000000000E+00 -0.00000000000E+00 -0.16063886322E+03  0.16063886322E+03  0.00000000000E+00 0. -1.
         24    2    1    2    0    0 -0.42605683003E+02 -0.20530583058E+02 -0.92695472849E+02  0.14296762262E+03  0.98033368635E+02 0.  0.
         25    2    1    2    0    0 -0.10123673050E+03 -0.35837089843E+02  0.19400403342E+03  0.25459417827E+03  0.12508979981E+03 0.  0.
        -24    2    1    2    0    0  0.14384241350E+03  0.56367672901E+02  0.64375951672E+03  0.66878400284E+03  0.94751108827E+02 0.  0.
        -11    1    3    3    0    0 -0.33181231230E+02  0.18747083648E+02  0.38578903812E+01  0.38305751128E+02  0.00000000000E+00 0.  1.
         12    1    3    3    0    0 -0.94244517731E+01 -0.39277666706E+02 -0.96553363230E+02  0.10466187149E+03  0.00000000000E+00 0. -1.
         11    1    5    5    0    0  0.11640070566E+02  0.83331145885E+00  0.24060575629E+03  0.24088859585E+03  0.00000000000E+00 0. -1.
        -12    1    5    5    0    0  0.13220234294E+03  0.55534361442E+02  0.40315376042E+03  0.42789540699E+03  0.00000000000E+00 0.  1.
          5    1    4    4  501    0  0.16498545323E+01  0.12651732993E+02  0.11562114779E+03  0.11639806950E+03  0.41800000000E+01 0. -1.
         -5    1    4    4    0  501 -0.10288658503E+03 -0.48488822836E+02  0.78382885630E+02  0.13819610877E+03  0.41800000000E+01 0. -1.
</event>
<event>
11    1  0.6930157E-009  0.1386356E+03  0.7561462E-02  0.1109092E+00
         22   -1    0    0    0    0  0.00000000000E+00  0.00000000000E+00  0.51604616749E+02  0.51604616749E+02  0.00000000000E+00 0. -1.
         22   -1    0    0    0    0 -0.00000000000E+00 -0.00000000000E+00 -0.24207788467E+04  0.24207788467E+04  0.00000000000E+00 0. -1.
         24    2    1    2    0    0 -0.71696307401E+01  0.61823713234E+02 -0.20041271959E+04  0.20065417680E+04  0.76226468769E+02 0.  0.
         25    2    1    2    0    0 -0.26592458429E+02 -0.37403357433E+02 -0.34878302709E+03  0.37336511179E+03  0.12508291939E+03 0.  0.
        -24    2    1    2    0    0  0.33762089169E+02 -0.24420355801E+02 -0.16264006961E+02  0.92476583589E+02  0.80939286798E+02 0.  0.
        -13    1    3    3    0    0  0.41821343818E+01  0.77224177693E+02 -0.17428442735E+04  0.17445593213E+04  0.00000000000E+00 0.  1.
         14    1    3    3    0    0 -0.11351765122E+02 -0.15400464459E+02 -0.26128292237E+03  0.26198244674E+03  0.00000000000E+00 0. -1.
         13    1    5    5    0    0  0.34319204590E+02 -0.49695641526E+02  0.33375678738E+01  0.60486394748E+02  0.00000000000E+00 0. -1.
        -14    1    5    5    0    0 -0.55711542100E+00  0.25275285725E+02 -0.19601574835E+02  0.31990188841E+02  0.00000000000E+00 0.  1.
          5    1    4    4  501    0  0.35592046061E+01 -0.43234189825E+02 -0.33762217880E+03  0.34042337042E+03  0.41800000000E+01 0.  1.
         -5    1    4    4    0  501 -0.30151663035E+02  0.58308323921E+01 -0.11160848288E+02  0.32941741373E+02  0.41800000000E+01 0.  1.
</event>
<event>
11    1  0.6930157E-009  0.1409245E+03  0.7561462E-02  0.1106530E+00
         22   -1    0    0    0    0  0.00000000000E+00  0.00000000000E+00  0.11621999629E+04  0.11621999629E+04  0.00000000000E+00 0.  1.
         22   -1    0    0    0    0 -0.00000000000E+00 -0.00000000000E+00 -0.47628016945E+03  0.47628016945E+03  0.00000000000E+00 0. -1.
         24    2    1    2    0    0 -0.21209593540E+01  0.18390323955E+02 -0.39117755522E+03  0.39952172137E+03  0.79088707507E+02 0.  0.
         25    2    1    2    0    0  0.16863673547E+02  0.45344194006E+02 -0.21263472330E+02  0.13579506010E+03  0.12509070180E+03 0.  0.
        -24    2    1    2    0    0 -0.14742714193E+02 -0.63734517962E+02  0.10983608210E+04  0.11031633509E+04  0.79331262470E+02 0.  0.
        -11    1    3    3    0    0  0.74799445539E+01 -0.12161030184E+02 -0.11066412036E+02  0.18063933708E+02  0.00000000000E+00 0.  1.
         12    1    3    3    0    0 -0.96009039079E+01  0.30551354139E+02 -0.38011114319E+03  0.38145778767E+03  0.00000000000E+00 0. -1.
         11    1    5    5    0    0  0.17252577129E+02 -0.37766806921E+02  0.22295764659E+03  0.22679086246E+03  0.00000000000E+00 0. -1.
        -12    1    5    5    0    0 -0.31995291322E+02 -0.25967711041E+02  0.87540317439E+03  0.87637248839E+03  0.00000000000E+00 0.  1.
          5    1    4    4  501    0  0.58991381759E+02  0.10133105200E+02 -0.45827743834E+02  0.75500446673E+02  0.41800000000E+01 0. -1.
         -5    1    4    4    0  501 -0.42127708213E+02  0.35211088806E+02  0.24564271504E+02  0.60294613430E+02  0.41800000000E+01 0. -1.
</event>
<event>
11    1  0.6930157E-009  0.2390703E+03  0.7561462E-02  0.1029888E+00
         22   -1    0    0    0    0  0.00000000000E+00  0.00000000000E+00  0.13906990745E+04  0.13906990745E+04  0.00000000000E+00 0. -1.
         22   -1    0    0    0    0 -0.00000000000E+00 -0.00000000000E+00 -0.90227682793E+03  0.90227682793E+03  0.00000000000E+00 0. -1.
        -24    2    1    2    0    0  0.18880795603E+03 -0.71304386676E+02 -0.80270154520E+03  0.83155669777E+03  0.80149929054E+02 0.  0.
         25    2    1    2    0    0 -0.19405891490E+03  0.14551728353E+03  0.14312639986E+03  0.30816550476E+03  0.12508664889E+03 0.  0.
         24    2    1    2    0    0  0.52509588665E+01 -0.74212896852E+02  0.11479973919E+04  0.11532536999E+04  0.80999739925E+02 0.  0.
        -11    1    5    5    0    0 -0.36893628004E+02 -0.34231817780E+02  0.43746361355E+03  0.44034914592E+03  0.00000000000E+00 0.  1.
         12    1    5    5    0    0  0.42144586870E+02 -0.39981079073E+02  0.71053377836E+03  0.71290455398E+03  0.00000000000E+00 0. -1.
         13    1    3    3    0    0  0.12369635837E+03 -0.80085729668E+02 -0.62390375650E+03  0.64106973922E+03  0.00000000000E+00 0. -1.
        -14    1    3    3    0    0  0.65111597662E+02  0.87813429920E+01 -0.17879778870E+03  0.19048695855E+03  0.00000000000E+00 0.  1.
          5    1    4    4  501    0 -0.65398086714E+02  0.19992806303E+01  0.83907712873E+02  0.10648419389E+03  0.41800000000E+01 0.  1.
         -5    1    4    4    0  501 -0.12866082818E+03  0.14351800290E+03  0.59218686983E+02  0.20168131087E+03  0.41800000000E+01 0.  1.
</event>
<event>
11    1  0.6930157E-009  0.1707351E+03  0.7561462E-02  0.1077394E+00
         22   -1    0    0    0    0  0.00000000000E+00  0.00000000000E+00  0.47671414004E+03  0.47671414004E+03  0.00000000000E+00 0.  1.
         22   -1    0    0    0    0 -0.00000000000E+00 -0.00000000000E+00 -0.31009957577E+03  0.31009957577E+03  0.00000000000E+00 0.  1.
         24    2    1    2    0    0  0.56319997674E+02  0.11123467506E+02 -0.19432713941E+03  0.21727437071E+03  0.78418374074E+02 0.  0.
         25    2    1    2    0    0  0.66903646495E+02 -0.13141426260E+02 -0.35556432031E+02  0.14683767023E+03  0.12509295161E+03 0.  0.
        -24    2    1    2    0    0 -0.12322364417E+03  0.20179587547E+01  0.39649813571E+03  0.42270167486E+03  0.79232541715E+02 0.  0.
        -11    1    3    3    0    0 -0.94035052383E+01  0.58852996037E+01 -0.10840410980E+03  0.10897024220E+03  0.00000000000E+00 0.  1.
         12    1    3    3    0    0  0.65723502912E+02  0.52381679020E+01 -0.85923029604E+02  0.10830412852E+03  0.00000000000E+00 0. -1.
         11    1    5    5    0    0 -0.10568200162E+02  0.85870102893E+01  0.38378761391E+01  0.14147540197E+02  0.00000000000E+00 0. -1.
        -12    1    5    5    0    0 -0.11265544401E+03 -0.65690515346E+01  0.39266025957E+03  0.40855413466E+03  0.00000000000E+00 0.  1.
          5    1    4    4  501    0  0.10959813715E+02  0.92817369084E+00 -0.75587796514E+02  0.76498146415E+02  0.41800000000E+01 0.  1.
         -5    1    4    4    0  501  0.55943832780E+02 -0.14069599951E+02  0.40031364483E+02  0.70339523820E+02  0.41800000000E+01 0.  1.
</event>
<event>
11    1  0.6930157E-009  0.2020362E+03  0.7561462E-02  0.1053093E+00
         22   -1    0    0    0    0  0.00000000000E+00  0.00000000000E+00  0.19687050480E+04  0.19687050480E+04  0.00000000000E+00 0.  1.
         22   -1    0    0    0    0 -0.00000000000E+00 -0.00000000000E+00 -0.11067692504E+03  0.11067692504E+03  0.00000000000E+00 0. -1.
        -24    2    1    2    0    0  0.10301163580E+01 -0.64722481633E+02 -0.53349551433E+02  0.11626965692E+03  0.80513338735E+02 0.  0.
         25    2    1    2    0    0 -0.12765095140E+03 -0.44652454043E+02  0.39889014816E+03  0.43937349910E+03  0.12508842619E+03 0.  0.
         24    2    1    2    0    0  0.12662083504E+03  0.10937493568E+03  0.15124875263E+04  0.15237388171E+04  0.78522309275E+02 0.  0.
        -11    1    5    5    0    0  0.13125851244E+03  0.84273738357E+02  0.11786276104E+04  0.11889044974E+04  0.00000000000E+00 0.  1.
         12    1    5    5    0    0 -0.46376773981E+01  0.25101197319E+02  0.33385991590E+03  0.33483431963E+03  0.00000000000E+00 0. -1.
         13    1    3    3    0    0 -0.20889601862E+02 -0.69378459553E+02 -0.58678731263E+02  0.93235935232E+02  0.00000000000E+00 0. -1.
        -14    1    3    3    0    0  0.21919718220E+02  0.46559779200E+01  0.53291798303E+01  0.23033721690E+02  0.00000000000E+00 0.  1.
          5    1    4    4  501    0 -0.14257831773E+03 -0.65844554507E+02  0.32555691679E+03  0.36148148018E+03  0.41800000000E+01 0.  1.
         -5    1    4    4    0  501  0.14927366331E+02  0.21192100464E+02  0.73333231373E+02  0.77892018919E+02  0.41800000000E+01 0.  1.
</event>
<event>
11    1  0.6930157E-009  0.1968259E+03  0.7561462E-02  0.1056791E+00
         22   -1    0    0    0    0  0.00000000000E+00  0.00000000000E+00  0.23864488019E+04  0.23864488019E+04  0.00000000000E+00 0. -1.
         22   -1    0    0    0    0 -0.00000000000E+00 -0.00000000000E+00 -0.12774190399E+03  0.12774190399E+03  0.00000000000E+00 0. -1.
         24    2    1    2    0    0  0.26454356899E+02  0.16177922400E+03  0.10197026278E+03  0.20974188694E+03  0.81983988241E+02 0.  0.
         25    2    1    2    0    0  0.24526985496E+02 -0.14392947433E+03  0.54321309394E+02  0.19979562817E+03  0.12510084645E+03 0.  0.
        -24    2    1    2    0    0 -0.50981342396E+02 -0.17849749668E+02  0.21024153257E+04  0.21046531908E+04  0.80604842968E+02 0.  0.
        -11    1    3    3    0    0  0.13538589226E+02 -0.37516445334E+01  0.20356088613E+02  0.24733349522E+02  0.00000000000E+00 0.  1.
         12    1    3    3    0    0  0.12915767673E+02  0.16553086853E+03  0.81614174166E+02  0.18500853742E+03  0.00000000000E+00 0. -1.
         11    1    5    5    0    0 -0.49440118358E+02 -0.74181133805E+01  0.20692073924E+04  0.20698112441E+04  0.00000000000E+00 0. -1.
        -12    1    5    5    0    0 -0.15412240380E+01 -0.10431636288E+02  0.33207933375E+02  0.34841946648E+02  0.00000000000E+00 0.  1.
          5    1    4    4  501    0 -0.40178911045E+02 -0.22755228644E+02  0.40694128799E+02  0.61689787178E+02  0.41800000000E+01 0.  1.
         -5    1    4    4    0  501  0.64705896541E+02 -0.12117424569E+03  0.13627180595E+02  0.13810584099E+03  0.41800000000E+01 0.  1.
</event>
<event>
11    1  0.6930157E-009  0.1353632E+03  0.7561462E-02  0.1112849E+00
         22   -1    0    0    0    0  0.00000000000E+00  0.00000000000E+00  0.25726902895E+04  0.25726902895E+04  0.00000000000E+00 0.  1.
         22   -1    0    0    0    0 -0.00000000000E+00 -0.00000000000E+00 -0.80086600761E+03  0.80086600761E+03  0.00000000000E+00 0. -1.
        -24    2    1    2    0    0 -0.13256897722E+02  0.11905280919E+02 -0.55345576681E+03  0.56008910410E+03  0.84077569306E+02 0.  0.
         25    2    1    2    0    0 -0.17355491513E+02  0.29876335996E+02 -0.22592208772E+03  0.26054049304E+03  0.12508697078E+03 0.  0.
         24    2    1    2    0    0  0.30612389234E+02 -0.41781616915E+02  0.25512021364E+04  0.25529266999E+04  0.78227697845E+02 0.  0.
        -11    1    5    5    0    0  0.49306868402E+02 -0.39113981856E+02  0.23494265409E+04  0.23502693764E+04  0.00000000000E+00 0.  1.
         12    1    5    5    0    0 -0.18694479168E+02 -0.26676350591E+01  0.20177559552E+03  0.20265732352E+03  0.00000000000E+00 0. -1.
         11    1    3    3    0    0 -0.60527974469E+01  0.12372215113E+02 -0.55265388168E+03  0.55282548874E+03  0.00000000000E+00 0. -1.
        -12    1    3    3    0    0 -0.72041002746E+01 -0.46693419413E+00 -0.80188513195E+00  0.72636153583E+01  0.00000000000E+00 0.  1.
          5    1    4    4  501    0 -0.24893717153E+02 -0.32764532325E+02 -0.17362872717E+03  0.17848702763E+03  0.41800000000E+01 0. -1.
         -5    1    4    4    0  501  0.75382256405E+01  0.62640868320E+02 -0.52293360544E+02  0.82053465416E+02  0.41800000000E+01 0. -1.
</event>
<event>
11    1  0.6930157E-009  0.4388733E+03  0.7561462E-02  0.9541547E-01
         22   -1    0    0    0    0  0.00000000000E+00  0.00000000000E+00  0.27212588221E+04  0.27212588221E+04  0.00000000000E+00 0.  1.
         22   -1    0    0    0    0 -0.00000000000E+00 -0.00000000000E+00 -0.10008735258E+04  0.10008735258E+04  0.00000000000E+00 0. -1.
         24    2    1    2    0    0 -0.16890735924E+03  0.89640833246E+02 -0.78177009173E+03  0.80877344688E+03  0.79905175413E+02 0.  0.
         25    2    1    2    0    0 -0.26180183557E+03 -0.12810919097E+02 -0.73495390873E+02  0.29958851412E+03  0.12508950618E+03 0.  0.
        -24    2    1    2    0    0  0.43070919481E+03 -0.76829914149E+02  0.25756507789E+04  0.26137703869E+04  0.80034084052E+02 0.  0.
        -11    1    3    3    0    0 -0.13999296542E+03  0.34890439275E+02 -0.50809127156E+03  0.52817810760E+03  0.00000000000E+00 0.  1.
         12    1    3    3    0    0 -0.28914393822E+02  0.54750393970E+02 -0.27367882017E+03  0.28059533927E+03  0.00000000000E+00 0. -1.
         13    1    5    5    0    0  0.54299210342E+02 -0.36997710130E+02  0.42944053919E+03  0.43443804104E+03  0.00000000000E+00 0. -1.
        -14    1    5    5    0    0  0.37640998447E+03 -0.39832204019E+02  0.21462102397E+04  0.21793323459E+04  0.00000000000E+00 0.  1.
          5    1    4    4  501    0 -0.12083020092E+02 -0.20433284996E+02  0.21471360883E+02  0.32280183525E+02  0.41800000000E+01 0.  1.
         -5    1    4    4    0  501 -0.24971881547E+03  0.76223658986E+01 -0.94966751756E+02  0.26730833059E+03  0.41800000000E+01 0.  1.
</event>
<event>
11    1  0.6930157E-009  0.1448252E+03  0.7561462E-02  0.1102287E+00
         22   -1    0    0    0    0  0.00000000000E+00  0.00000000000E+00  0.17958293584E+03  0.17958293584E+03  0.00000000000E+00 0. -1.
         22   -1    0    0    0    0 -0.00000000000E+00 -0.00000000000E+00 -0.72654623216E+03  0.72654623216E+03  0.00000000000E+00 0. -1.
         24    2    1    2    0    0  0.19354438476E+02  0.89419926585E+02 -0.49247038213E+03  0.50732145290E+03  0.80482679744E+02 0.  0.
         25    2    1    2    0    0 -0.45154484266E+02 -0.63919456858E+01 -0.18305551223E+03  0.22635588848E+03  0.12509149960E+03 0.  0.
        -24    2    1    2    0    0  0.25800045790E+02 -0.83027980899E+02  0.12856259804E+03  0.17245182662E+03  0.75179803908E+02 0.  0.
        -11    1    3    3    0    0 -0.12407658452E+02  0.29897300225E+02 -0.48857966003E+02  0.58608014734E+02  0.00000000000E+00 0.  1.
         12    1    3    3    0    0  0.31762096928E+02  0.59522626360E+02 -0.44361241613E+03  0.44871343817E+03  0.00000000000E+00 0. -1.
         11    1    5    5    0    0 -0.58338508415E+01 -0.60463698661E+02  0.11713602519E+03  0.13194976722E+03  0.00000000000E+00 0. -1.
        -12    1    5    5    0    0  0.31633896631E+02 -0.22564282239E+02  0.11426572851E+02  0.40502059406E+02  0.00000000000E+00 0.  1.
          5    1    4    4  501    0 -0.75301921983E+02 -0.40077506153E+02 -0.98391515907E+02  0.13028794555E+03  0.41800000000E+01 0.  1.
         -5    1    4    4    0  501  0.30147437717E+02  0.33685560467E+02 -0.84663996320E+02  0.96067942924E+02  0.41800000000E+01 0.  1.
</event>
<event>
11    1  0.1393398E-008  0.1768993E+03  0.7561462E-02  0.1072179E+00
         22   -1    0    0    0    0  0.00000000000E+00  0.00000000000E+00  0.20181783490E+04  0.20181783490E+04  0.00000000000E+00 0. -1.
         22   -1    0    0    0    0 -0.00000000000E+00 -0.00000000000E+00 -0.49213684604E+03  0.49213684604E+03  0.00000000000E+00 0.  1.
         24    2    1    2    0    0 -0.41623847410E+02 -0.56327380263E+02 -0.39218056913E+03  0.40636348005E+03  0.80127153160E+02 0.  0.
         25    2    1    2    0    0  0.13079006082E+03 -0.31774308845E+02  0.38247927493E+01  0.18380397462E+03  0.12511444894E+03 0.  0.
        -24    2    1    2    0    0 -0.89166213412E+02  0.88101689108E+02  0.19143972793E+04  0.19201477403E+04  0.79610806391E+02 0.  0.
        -13    1    3    3    0    0  0.17309633622E+02 -0.41586998572E+02 -0.18912002801E+03  0.19441061406E+03  0.00000000000E+00 0.  1.
         14    1    3    3    0    0 -0.58933481032E+02 -0.14740381690E+02 -0.20306054112E+03  0.21195286599E+03  0.00000000000E+00 0. -1.
         13    1    5    5    0    0 -0.85720822040E+02  0.67501013621E+02  0.18283168821E+04  0.18315695639E+04  0.00000000000E+00 0. -1.
        -14    1    5    5    0    0 -0.34453913720E+01  0.20600675487E+02  0.86080397205E+02  0.88578176404E+02  0.00000000000E+00 0.  1.
          5    1    4    4  501    0  0.10523558316E+03  0.34093552885E+02  0.16440209432E+02  0.11191358809E+03  0.41800000000E+01 0. -1.
         -5    1    4    4    0  501  0.25554477657E+02 -0.65867861730E+02 -0.12615416682E+02  0.71890386529E+02  0.41800000000E+01 0. -1.
</event>
<event>
11    1  0.6930157E-009  0.1870876E+03  0.7561462E-02  0.1064050E+00
         22   -1    0    0    0    0  0.00000000000E+00  0.00000000000E+00  0.12626725139E+04  0.12626725139E+04  0.00000000000E+00 0. -1.
         22   -1    0    0    0    0 -0.00000000000E+00 -0.00000000000E+00 -0.53458585704E+03  0.53458585704E+03  0.00000000000E+00 0.  1.
        -24    2    1    2    0    0  0.85241797926E+00 -0.10073073501E+03 -0.49198928106E+03  0.50866262841E+03  0.80850536616E+02 0.  0.
         25    2    1    2    0    0  0.10244529573E+03  0.17225976116E+03  0.49339446693E+03  0.54704074084E+03  0.12508800187E+03 0.  0.
         24    2    1    2    0    0 -0.10329771371E+03 -0.71529026148E+02  0.72668147104E+03  0.74155500173E+03  0.77788437415E+02 0.  0.
        -13    1    5    5    0    0  0.11766973928E+02  0.55758389705E+00  0.69795401487E+02  0.70782558897E+02  0.00000000000E+00 0.  1.
         14    1    5    5    0    0 -0.11506468764E+03 -0.72086610045E+02  0.65688606956E+03  0.67077244283E+03  0.00000000000E+00 0. -1.
         11    1    3    3    0    0 -0.50097895074E+01 -0.15355790755E+02 -0.97023904711E+01  0.18842364010E+02  0.00000000000E+00 0. -1.
        -12    1    3    3    0    0  0.58622074867E+01 -0.85374944254E+02 -0.48228689059E+03  0.48982026440E+03  0.00000000000E+00 0.  1.
          5    1    4    4  501    0  0.75671053032E+02  0.15163776536E+03  0.48230196486E+03  0.51122673820E+03  0.41800000000E+01 0.  1.
         -5    1    4    4    0  501  0.26774242701E+02  0.20621995797E+02  0.11092502078E+02  0.35814002641E+02  0.41800000000E+01 0.  1.
</event>
<event>
11    1  0.6930157E-009  0.1858991E+03  0.7561462E-02  0.1064969E+00
         22   -1    0    0    0    0  0.00000000000E+00  0.00000000000E+00  0.78598291416E+03  0.78598291416E+03  0.00000000000E+00 0. -1.
         22   -1    0    0    0    0 -0.00000000000E+00 -0.00000000000E+00 -0.24763676562E+04  0.24763676562E+04  0.00000000000E+00 0.  1.
         24    2    1    2    0    0 -0.52562801009E+02 -0.29191509803E+02 -0.24028189867E+04  0.24049166541E+04  0.80436546199E+02 0.  0.
         25    2    1    2    0    0 -0.30625806075E+02  0.13981574625E+03  0.82050939149E+02  0.20704075143E+03  0.12508850164E+03 0.  0.
        -24    2    1    2    0    0  0.83188607084E+02 -0.11062423645E+03  0.63038330547E+03  0.65039316488E+03  0.80436876309E+02 0.  0.
        -11    1    3    3    0    0 -0.59606684832E+02 -0.41027031591E+02 -0.23047024735E+04  0.23058381699E+04  0.00000000000E+00 0.  1.
         12    1    3    3    0    0  0.70438838231E+01  0.11835521788E+02 -0.98116513144E+02  0.99078484177E+02  0.00000000000E+00 0. -1.
         11    1    5    5    0    0  0.54151076872E+02 -0.81231310188E+02  0.56261805184E+03  0.57102533844E+03  0.00000000000E+00 0. -1.
        -12    1    5    5    0    0  0.29037530212E+02 -0.29392926257E+02  0.67765253631E+02  0.79367826444E+02  0.00000000000E+00 0.  1.
          5    1    4    4  501    0 -0.61241590990E+02  0.46185094703E+02 -0.29303133834E+01  0.76874277728E+02  0.41800000000E+01 0. -1.
         -5    1    4    4    0  501  0.30615784915E+02  0.93630651545E+02  0.84981252533E+02  0.13016647370E+03  0.41800000000E+01 0. -1.
</event>
<event>
11    1  0.6930157E-009  0.1315000E+03  0.7561462E-02  0.1117440E+00
         22   -1    0    0    0    0  0.00000000000E+00  0.00000000000E+00  0.25387300789E+03  0.25387300789E+03  0.00000000000E+00 0. -1.
         22   -1    0    0    0    0 -0.00000000000E+00 -0.00000000000E+00 -0.99997911639E+03  0.99997911639E+03  0.00000000000E+00 0.  1.
         24    2    1    2    0    0  0.17433403564E+01 -0.40286524601E+02 -0.91008124560E+03  0.91486526919E+03  0.84288456396E+02 0.  0.
         25    2    1    2    0    0 -0.12500353362E+02  0.44029968251E+02 -0.22809472538E+02  0.13515658211E+03  0.12510848377E+03 0.  0.
        -24    2    1    2    0    0  0.10757013005E+02 -0.37434436495E+01  0.18678460964E+03  0.20383027298E+03  0.80799524056E+02 0.  0.
        -13    1    3    3    0    0 -0.27533294851E+02 -0.49873416148E+01 -0.66134486981E+03  0.66193654736E+03  0.00000000000E+00 0.  1.
         14    1    3    3    0    0  0.29276635207E+02 -0.35299182987E+02 -0.24873637579E+03  0.25292872184E+03  0.00000000000E+00 0. -1.
         11    1    5    5    0    0  0.37014669427E+02 -0.27552489893E+02  0.10405460074E+03  0.11382699762E+03  0.00000000000E+00 0. -1.
        -12    1    5    5    0    0 -0.26257656422E+02  0.23809046243E+02  0.82730008893E+02  0.90003275359E+02  0.00000000000E+00 0.  1.
          5    1    4    4  501    0 -0.54131621271E+01  0.56051961200E+02  0.40950547243E+02  0.69753454381E+02  0.41800000000E+01 0. -1.
         -5    1    4    4    0  501 -0.70871912344E+01 -0.12021992949E+02 -0.63760019781E+02  0.65403127728E+02  0.41800000000E+01 0. -1.
</event>
<event>
11    1  0.6930157E-009  0.1324546E+03  0.7561462E-02  0.1116289E+00
         22   -1    0    0    0    0  0.00000000000E+00  0.00000000000E+00  0.20839955914E+03  0.20839955914E+03  0.00000000000E+00 0.  1.
         22   -1    0    0    0    0 -0.00000000000E+00 -0.00000000000E+00 -0.25083179554E+03  0.25083179554E+03  0.00000000000E+00 0.  1.
        -24    2    1    2    0    0 -0.20464607380E+02  0.27668448148E+02 -0.13591075957E+03  0.16071323273E+03  0.78566312294E+02 0.  0.
         25    2    1    2    0    0  0.25087230691E+02  0.19120925786E+02 -0.40869631070E+02  0.13532590792E+03  0.12509114942E+03 0.  0.
         24    2    1    2    0    0 -0.46226233109E+01 -0.46789373934E+02  0.13434815425E+03  0.16319221404E+03  0.79822666031E+02 0.  0.
        -11    1    5    5    0    0  0.11802250768E+02 -0.25861863972E+02  0.13358674446E+03  0.13657799027E+03  0.00000000000E+00 0.  1.
         12    1    5    5    0    0 -0.16424874079E+02 -0.20927509962E+02  0.76140979054E+00  0.26614223765E+02  0.00000000000E+00 0. -1.
         11    1    3    3    0    0 -0.29733057009E+02 -0.77093846392E+01 -0.14599788068E+02  0.34009456072E+02  0.00000000000E+00 0. -1.
        -12    1    3    3    0    0  0.92684496296E+01  0.35377832787E+02 -0.12131097150E+03  0.12670377665E+03  0.00000000000E+00 0.  1.
          5    1    4    4  501    0  0.10675342105E+02  0.70715579320E+02 -0.38986830275E+02  0.81560415782E+02  0.41800000000E+01 0. -1.
         -5    1    4    4    0  501  0.14411888585E+02 -0.51594653534E+02 -0.18828007951E+01  0.53765492137E+02  0.41800000000E+01 0. -1.
</event>
<event>
11    1  0.6930157E-009  0.2115594E+03  0.7561462E-02  0.1046638E+00
         22   -1    0    0    0    0  0.00000000000E+00  0.00000000000E+00  0.40482195048E+03  0.40482195048E+03  0.00000000000E+00 0.  1.
         22   -1    0    0    0    0 -0.00000000000E+00 -0.00000000000E+00 -0.23152096031E+04  0.23152096031E+04  0.00000000000E+00 0. -1.
        -24    2    1    2    0    0 -0.14333437891E+03  0.92853014502E+02 -0.22469639883E+04  0.22561319761E+04  0.11008134359E+03 0.  0.
         25    2    1    2    0    0  0.17043654758E+03 -0.33468050950E+02  0.20963210964E+03  0.29960241513E+03  0.12508900261E+03 0.  0.
         24    2    1    2    0    0 -0.27102168677E+02 -0.59384963552E+02  0.12694422609E+03  0.16429716235E+03  0.81348752756E+02 0.  0.
        -11    1    5    5    0    0  0.26497247817E+01 -0.15427711213E+02  0.10613723216E+03  0.10728535485E+03  0.00000000000E+00 0.  1.
         12    1    5    5    0    0 -0.29751893459E+02 -0.43957252339E+02  0.20806993926E+02  0.57011807495E+02  0.00000000000E+00 0. -1.
         13    1    3    3    0    0 -0.13247639445E+03  0.95332606475E+02 -0.22291892134E+04  0.22351561132E+04  0.00000000000E+00 0. -1.
        -14    1    3    3    0    0 -0.10857984456E+02 -0.24795919725E+01 -0.17774774908E+02  0.20975862934E+02  0.00000000000E+00 0.  1.
          5    1    4    4  501    0  0.10771989677E+03  0.35022639387E+02  0.15417055796E+03  0.19135358573E+03  0.41800000000E+01 0.  1.
         -5    1    4    4    0  501  0.62716650818E+02 -0.68490690338E+02  0.55461551675E+02  0.10824882940E+03  0.41800000000E+01 0.  1.
</event>
<event>
11    1  0.6930157E-009  0.1386309E+03  0.7561462E-02  0.1109097E+00
         22   -1    0    0    0    0  0.00000000000E+00  0.00000000000E+00  0.53392080186E+03  0.53392080186E+03  0.00000000000E+00 0.  1.
         22   -1    0    0    0    0 -0.00000000000E+00 -0.00000000000E+00 -0.19397276895E+03  0.19397276895E+03  0.00000000000E+00 0.  1.
         24    2    1    2    0    0  0.61415888186E+02 -0.11405181224E+02 -0.14852167842E+03  0.18663723845E+03  0.94195436912E+02 0.  0.
         25    2    1    2    0    0 -0.22234441243E+02 -0.33272002195E+02  0.29055267014E+03  0.31885708296E+03  0.12509032227E+03 0.  0.
        -24    2    1    2    0    0 -0.39181446943E+02  0.44677183418E+02  0.19791704119E+03  0.22239924940E+03  0.82213347088E+02 0.  0.
        -11    1    3    3    0    0  0.50848573259E+02 -0.46398090802E+02 -0.12635199221E+03  0.14388601797E+03  0.00000000000E+00 0.  1.
         12    1    3    3    0    0  0.10567314927E+02  0.34992909579E+02 -0.22169686208E+02  0.42751220475E+02  0.00000000000E+00 0. -1.
         11    1    5    5    0    0 -0.17081274891E+02  0.63643177059E+02  0.96269494658E+02  0.11666207413E+03  0.00000000000E+00 0. -1.
        -12    1    5    5    0    0 -0.22100172051E+02 -0.18965993641E+02  0.10164754653E+03  0.10573717528E+03  0.00000000000E+00 0.  1.
          5    1    4    4  501    0 -0.43431898265E+02 -0.73561512554E+02  0.18366019936E+03  0.20259853688E+03  0.41800000000E+01 0.  1.
         -5    1    4    4    0  501  0.21197457022E+02  0.40289510359E+02  0.10689247077E+03  0.11625854608E+03  0.41800000000E+01 0.  1.
</event>
<event>
11    1  0.6930157E-009  0.1731258E+03  0.7561462E-02  0.1075343E+00
         22   -1    0    0    0    0  0.00000000000E+00  0.00000000000E+00  0.11433374293E+04  0.11433374293E+04  0.00000000000E+00 0.  1.
         22   -1    0    0    0    0 -0.00000000000E+00 -0.00000000000E+00 -0.39524580310E+03  0.39524580310E+03  0.00000000000E+00 0. -1.
        -24    2    1    2    0    0 -0.68275380382E+02 -0.97923710657E+02 -0.31728564346E+03  0.34837321286E+03  0.80269142358E+02 0.  0.
         25    2    1    2    0    0  0.11480654931E+03  0.67670515291E+02  0.79334556151E+02  0.19925279975E+03  0.12509142259E+03 0.  0.
         24    2    1    2    0    0 -0.46531168928E+02  0.30253195365E+02  0.98604271356E+03  0.99095721983E+03  0.81459026934E+02 0.  0.
        -13    1    5    5    0    0 -0.64506531819E+02  0.29550161447E+02  0.91218503421E+03  0.91494034851E+03  0.00000000000E+00 0.  1.
         14    1    5    5    0    0  0.17975362891E+02  0.70303391834E+00  0.73857679349E+02  0.76016871328E+02  0.00000000000E+00 0. -1.
         11    1    3    3    0    0 -0.74979855349E+02 -0.44704610954E+02 -0.16106862091E+03  0.18320366151E+03  0.00000000000E+00 0. -1.
        -12    1    3    3    0    0  0.67044749668E+01 -0.53219099703E+02 -0.15621702255E+03  0.16516955134E+03  0.00000000000E+00 0.  1.
          5    1    4    4  501    0 -0.21691102731E+02  0.13997194621E+01  0.34477678007E+02  0.40971280588E+02  0.41800000000E+01 0. -1.
         -5    1    4    4    0  501  0.13649765204E+03  0.66270795829E+02  0.44856878144E+02  0.15828151917E+03  0.41800000000E+01 0. -1.
</event>
<event>
11    1  0.6930157E-009  0.2731923E+03  0.7561462E-02  0.1012222E+00
         22   -1    0    0    0    0  0.00000000000E+00  0.00000000000E+00  0.39282851872E+03  0.39282851872E+03  0.00000000000E+00 0. -1.
         22   -1    0    0    0    0 -0.00000000000E+00 -0.00000000000E+00 -0.61624522847E+03  0.61624522847E+03  0.00000000000E+00 0. -1.
         24    2    1    2    0    0 -0.28235703363E+02 -0.91402640981E+02 -0.36939917777E+03  0.38980557980E+03  0.79630018124E+02 0.  0.
         25    2    1    2    0    0  0.87962131716E+02  0.25543760532E+03  0.26053546366E+03  0.39561640595E+03  0.12509159046E+03 0.  0.
        -24    2    1    2    0    0 -0.59726428354E+02 -0.16403496434E+03 -0.11455299564E+03  0.22365176144E+03  0.80143657370E+02 0.  0.
        -11    1    3    3    0    0 -0.23948555023E+02  0.26603995211E+00 -0.30942996819E+02  0.39128929414E+02  0.00000000000E+00 0.  1.
         12    1    3    3    0    0 -0.42871483397E+01 -0.91668680933E+02 -0.33845618095E+03  0.35067665039E+03  0.00000000000E+00 0. -1.
         11    1    5    5    0    0 -0.15078279423E+02 -0.58073891561E+02  0.18577826134E+01  0.60028182945E+02  0.00000000000E+00 0. -1.
        -12    1    5    5    0    0 -0.44648148930E+02 -0.10596107278E+03 -0.11641077825E+03  0.16362357850E+03  0.00000000000E+00 0.  1.
          5    1    4    4  501    0  0.87349256576E+02  0.70258454809E+02  0.10708465041E+03  0.15508300310E+03  0.41800000000E+01 0. -1.
         -5    1    4    4    0  501  0.61287513975E+00  0.18517915051E+03  0.15345081325E+03  0.24053340285E+03  0.41800000000E+01 0. -1.
</event>
<event>
11    1  0.6930157E-009  0.1700255E+03  0.7561462E-02  0.1078009E+00
         22   -1    0    0    0    0  0.00000000000E+00  0.00000000000E+00  0.14494354003E+04  0.14494354003E+04  0.00000000000E+00 0. -1.
         22   -1    0    0    0    0 -0.00000000000E+00 -0.00000000000E+00 -0.73668326264E+02  0.73668326264E+02  0.00000000000E+00 0. -1.
         24    2    1    2    0    0 -0.98429042065E+02  0.16070634710E+02  0.79471370480E+02  0.15041112115E+03  0.79757538937E+02 0.  0.
         25    2    1    2    0    0  0.15217903733E+03 -0.58098275315E+01  0.23562341596E+03  0.30717716315E+03  0.12508877614E+03 0.  0.
        -24    2    1    2    0    0 -0.53749995268E+02 -0.10260807179E+02  0.10606722876E+04  0.10655154422E+04  0.85458234643E+02 0.  0.
        -13    1    3    3    0    0 -0.43103097849E+01  0.26945078376E+02  0.38493329610E+02  0.47184239356E+02  0.00000000000E+00 0.  1.
         14    1    3    3    0    0 -0.94118732280E+02 -0.10874443666E+02  0.40978040870E+02  0.10322688179E+03  0.00000000000E+00 0. -1.
         13    1    5    5    0    0 -0.94550447288E+01  0.60735406299E+01  0.82927710433E+03  0.82935324292E+03  0.00000000000E+00 0. -1.
        -14    1    5    5    0    0 -0.44294950539E+02 -0.16334347809E+02  0.23139518324E+03  0.23616219933E+03  0.00000000000E+00 0.  1.
          5    1    4    4  501    0  0.16062125905E+03 -0.36013202147E+02  0.20707016577E+03  0.26455937998E+03  0.41800000000E+01 0. -1.
         -5    1    4    4    0  501 -0.84422217154E+01  0.30203374615E+02  0.28553250189E+02  0.42617783167E+02  0.41800000000E+01 0. -1.
</event>
<event>
11    1  0.6930157E-009  0.1423883E+03  0.7561462E-02  0.1104920E+00
         22   -1    0    0    0    0  0.00000000000E+00  0.00000000000E+00  0.99677097155E+03  0.99677097155E+03  0.00000000000E+00 0. -1.
         22   -1    0    0    0    0 -0.00000000000E+00 -0.00000000000E+00 -0.54091296805E+03  0.54091296805E+03  0.00000000000E+00 0.  1.
         24    2    1    2    0    0  0.66549443879E+01  0.49299495238E+02 -0.41675179007E+03  0.42784399587E+03  0.83028319028E+02 0.  0.
         25    2    1    2    0    0 -0.70169363305E+02 -0.24170407742E+02 -0.69927035307E+02  0.16138702182E+03  0.12509209562E+03 0.  0.
        -24    2    1    2    0    0  0.63514418917E+02 -0.25129087496E+02  0.94253682888E+03  0.94845292191E+03  0.80757159668E+02 0.  0.
        -11    1    3    3    0    0 -0.33435325502E+02  0.10782860017E+02 -0.23993091844E+03  0.24248925066E+03  0.00000000000E+00 0.  1.
         12    1    3    3    0    0  0.40090269890E+02  0.38516635221E+02 -0.17682087162E+03  0.18535474520E+03  0.00000000000E+00 0. -1.
         11    1    5    5    0    0  0.74836763224E+02 -0.36336632592E+02  0.87981723475E+03  0.88374162432E+03  0.00000000000E+00 0. -1.
        -12    1    5    5    0    0 -0.11322344307E+02  0.11207545096E+02  0.62719594127E+02  0.64711297585E+02  0.00000000000E+00 0.  1.
          5    1    4    4  501    0 -0.94579903419E+02 -0.46775122029E+02 -0.31091977534E+02  0.11007930613E+03  0.41800000000E+01 0. -1.
         -5    1    4    4    0  501  0.24410540114E+02  0.22604714288E+02 -0.38835057773E+02  0.51307715686E+02  0.41800000000E+01 0. -1.
</event>
<event>
11    1  0.6930157E-009  0.2809906E+03  0.7561462E-02  0.1008574E+00
         22   -1    0    0    0    0  0.00000000000E+00  0.00000000000E+00  0.12091834410E+03  0.12091834410E+03  0.00000000000E+00 0.  1.
         22   -1    0    0    0    0 -0.00000000000E+00 -0.00000000000E+00 -0.38168420499E+04  0.38168420499E+04  0.00000000000E+00 0.  1.
        -24    2    1    2    0    0 -0.19691511574E+03 -0.17097346235E+03 -0.35174217602E+04  0.35280308719E+04  0.82088405265E+02 0.  0.
         25    2    1    2    0    0  0.16207204919E+03  0.54084009156E+02 -0.15458821054E+03  0.26217843138E+03  0.12509031086E+03 0.  0.
         24    2    1    2    0    0  0.34843066551E+02  0.11688945319E+03 -0.23913735103E+02  0.14755109076E+03  0.79512729190E+02 0.  0.
        -13    1    5    5    0    0 -0.78110518758E+01  0.16063833253E+02  0.22426349996E+02  0.28670550123E+02  0.00000000000E+00 0.  1.
         14    1    5    5    0    0  0.42654118426E+02  0.10082561994E+03 -0.46340085100E+02  0.11888054063E+03  0.00000000000E+00 0. -1.
         13    1    3    3    0    0 -0.67654237735E+02 -0.12946089587E+02 -0.81141965144E+03  0.81433810415E+03  0.00000000000E+00 0. -1.
        -14    1    3    3    0    0 -0.12926087800E+03 -0.15802737276E+03 -0.27060021088E+04  0.27136927678E+04  0.00000000000E+00 0.  1.
          5    1    4    4  501    0  0.19887441893E+02  0.19511087268E+02 -0.10329032455E+03  0.10706332900E+03  0.41800000000E+01 0. -1.
         -5    1    4    4    0  501  0.14218460729E+03  0.34572921888E+02 -0.51297885986E+02  0.15511510238E+03  0.41800000000E+01 0. -1.
</event>
<event>
11    1  0.6930157E-009  0.2127910E+03  0.7561462E-02  0.1045830E+00
         22   -1    0    0    0    0  0.00000000000E+00  0.00000000000E+00  0.20108983451E+03  0.20108983451E+03  0.00000000000E+00 0. -1.
         22   -1    0    0    0    0 -0.00000000000E+00 -0.00000000000E+00 -0.14842914896E+04  0.14842914896E+04  0.00000000000E+00 0.  1.
         24    2    1    2    0    0  0.80553397438E+02  0.14351030558E+03 -0.81566943812E+03  0.83589553250E+03  0.79502523994E+02 0.  0.
         25    2    1    2    0    0  0.12233191838E+02 -0.21198939616E+03 -0.60471788861E+03  0.65300893446E+03  0.12509112123E+03 0.  0.
        -24    2    1    2    0    0 -0.92786589276E+02  0.68479090587E+02  0.13718567170E+03  0.19647685711E+03  0.80526454422E+02 0.  0.
        -13    1    3    3    0    0  0.95171394645E+02  0.11997243698E+03 -0.64077133829E+03  0.65881627785E+03  0.00000000000E+00 0.  1.
         14    1    3    3    0    0 -0.14617997207E+02  0.23537868592E+02 -0.17489809983E+03  0.17707925464E+03  0.00000000000E+00 0. -1.
         13    1    5    5    0    0 -0.75124637123E+02  0.56475187462E+02  0.14578584922E+03  0.17345510006E+03  0.00000000000E+00 0. -1.
        -14    1    5    5    0    0 -0.17661952153E+02  0.12003903125E+02 -0.86001775273E+01  0.23021757048E+02  0.00000000000E+00 0.  1.
          5    1    4    4  501    0  0.95013435026E+01 -0.18483707406E+03 -0.59595003459E+03  0.62404241490E+03  0.41800000000E+01 0.  1.
         -5    1    4    4    0  501  0.27318483353E+01 -0.27152322106E+02 -0.87678540256E+01  0.28966519557E+02  0.41800000000E+01 0.  1.
</event>
<event>
11    1  0.6930157E-009  0.1274663E+03  0.7561462E-02  0.1122422E+00
         22   -1    0    0    0    0  0.00000000000E+00  0.00000000000E+00  0.31972968680E+03  0.31972968680E+03  0.00000000000E+00 0.  1.
         22   -1    0    0    0    0 -0.00000000000E+00 -0.00000000000E+00 -0.27926094953E+03  0.27926094953E+03  0.00000000000E+00 0.  1.
         24    2    1    2    0    0 -0.17698593762E+01  0.14731360318E+02 -0.23467316390E+03  0.24905754513E+03  0.82085452742E+02 0.  0.
         25    2    1    2    0    0  0.98533392294E+01  0.13164024754E+02  0.13460526556E+03  0.18448024859E+03  0.12507599594E+03 0.  0.
        -24    2    1    2    0    0 -0.80834798532E+01 -0.27895385072E+02  0.14053663561E+03  0.16545284261E+03  0.82344411016E+02 0.  0.
        -13    1    3    3    0    0  0.41675864027E+01  0.22896536114E+02 -0.23744932080E+03  0.23858709121E+03  0.00000000000E+00 0.  1.
         14    1    3    3    0    0 -0.59374457788E+01 -0.81651757964E+01  0.27761569011E+01  0.10470453921E+02  0.00000000000E+00 0. -1.
         13    1    5    5    0    0  0.42502787702E+01  0.28826989768E+02  0.42786158428E+02  0.51765969147E+02  0.00000000000E+00 0. -1.
        -14    1    5    5    0    0 -0.12333758623E+02 -0.56722374840E+02  0.97750477183E+02  0.11368687347E+03  0.00000000000E+00 0.  1.
          5    1    4    4  501    0 -0.41121425290E+02 -0.18232636211E+01  0.12322096624E+03  0.12998144033E+03  0.41800000000E+01 0.  1.
         -5    1    4    4    0  501  0.50974764519E+02  0.14987288375E+02  0.11384299321E+02  0.54498808259E+02  0.41800000000E+01 0.  1.
</event>
<event>
11    1  0.6930157E-009  0.1371962E+03  0.7561462E-02  0.1110730E+00
         22   -1    0    0    0    0  0.00000000000E+00  0.00000000000E+00  0.89163593790E+03  0.89163593790E+03  0.00000000000E+00 0.  1.
         22   -1    0    0    0    0 -0.00000000000E+00 -0.00000000000E+00 -0.28343119796E+04  0.28343119796E+04  0.00000000000E+00 0.  1.
        -24    2    1    2    0    0 -0.58450384649E+02  0.36961937550E+02 -0.21412736050E+04  0.21444024930E+04  0.92880395775E+02 0.  0.
         25    2    1    2    0    0 -0.18565495095E+02 -0.34198761890E+02 -0.68173663745E+03  0.69420955378E+03  0.12509128187E+03 0.  0.
         24    2    1    2    0    0  0.77015879744E+02 -0.27631756601E+01  0.88033420075E+03  0.88733587079E+03  0.80234417260E+02 0.  0.
        -13    1    5    5    0    0  0.74853716961E+02 -0.88418819430E+01  0.87669359746E+03  0.87992779342E+03  0.00000000000E+00 0.  1.
         14    1    5    5    0    0  0.21621627831E+01  0.60787062829E+01  0.36406032957E+01  0.74080773708E+01  0.00000000000E+00 0. -1.
         11    1    3    3    0    0 -0.47212141368E+02 -0.20613797902E+02 -0.13371278047E+04  0.13381198306E+04  0.00000000000E+00 0. -1.
        -12    1    3    3    0    0 -0.11238243281E+02  0.57575735452E+02 -0.80414580032E+03  0.80628266234E+03  0.00000000000E+00 0.  1.
          5    1    4    4  501    0 -0.44140727448E+02  0.52532445543E+01 -0.58366149879E+03  0.58536673801E+03  0.41800000000E+01 0. -1.
         -5    1    4    4    0  501  0.25575232353E+02 -0.39452006444E+02 -0.98075138655E+02  0.10884281577E+03  0.41800000000E+01 0. -1.
</event>
<event>
11    1  0.6930157E-009  0.1321157E+03  0.7561462E-02  0.1116696E+00
         22   -1    0    0    0    0  0.00000000000E+00  0.00000000000E+00  0.88647438265E+02  0.88647438265E+02  0.00000000000E+00 0.  1.
         22   -1    0    0    0    0 -0.00000000000E+00 -0.00000000000E+00 -0.48699273940E+03  0.48699273940E+03  0.00000000000E+00 0.  1.
        -24    2    1    2    0    0 -0.13206179257E+02  0.39957736228E+02 -0.25653658331E+03  0.27206264182E+03  0.80224925307E+02 0.  0.
         25    2    1    2    0    0  0.44764082793E+02 -0.27986376521E+02 -0.16504595217E+03  0.21371458722E+03  0.12508676221E+03 0.  0.
         24    2    1    2    0    0 -0.31557903537E+02 -0.11971359708E+02  0.23237234356E+02  0.89862948626E+02  0.79976032324E+02 0.  0.
        -11    1    5    5    0    0  0.16453027507E+02 -0.13375110657E+02  0.34531159984E+02  0.40521558572E+02  0.00000000000E+00 0.  1.
         12    1    5    5    0    0 -0.48010931043E+02  0.14037509490E+01 -0.11293925629E+02  0.49341390054E+02  0.00000000000E+00 0. -1.
         13    1    3    3    0    0 -0.14748167348E+02  0.13063626420E+02 -0.67477499631E+01  0.20825438889E+02  0.00000000000E+00 0. -1.
        -14    1    3    3    0    0  0.15419880913E+01  0.26894109809E+02 -0.24978883335E+03  0.25123720293E+03  0.00000000000E+00 0.  1.
          5    1    4    4  501    0  0.80085822367E+02  0.49007226842E+01 -0.68032006337E+02  0.10527859380E+03  0.41800000000E+01 0.  1.
         -5    1    4    4    0  501 -0.35321739574E+02 -0.32887099205E+02 -0.97013945835E+02  0.10843599341E+03  0.41800000000E+01 0.  1.
</event>
<event>
11    1  0.6930157E-009  0.1318674E+03  0.7561462E-02  0.1116996E+00
         22   -1    0    0    0    0  0.00000000000E+00  0.00000000000E+00  0.32790205426E+03  0.32790205426E+03  0.00000000000E+00 0.  1.
         22   -1    0    0    0    0 -0.00000000000E+00 -0.00000000000E+00 -0.39247431633E+03  0.39247431633E+03  0.00000000000E+00 0.  1.
        -24    2    1    2    0    0  0.15134860619E+02  0.24805271349E+02 -0.33553287524E+03  0.34571618867E+03  0.78057717422E+02 0.  0.
         25    2    1    2    0    0 -0.53998333761E+02 -0.22622581534E+02  0.70646946487E+02  0.15513072862E+03  0.12508777186E+03 0.  0.
         24    2    1    2    0    0  0.38863473142E+02 -0.21826898145E+01  0.20031366669E+03  0.21952945329E+03  0.80947403426E+02 0.  0.
        -13    1    5    5    0    0  0.58577389451E+02 -0.20681268536E+02  0.15126389625E+03  0.16352306177E+03  0.00000000000E+00 0.  1.
         14    1    5    5    0    0 -0.19713916309E+02  0.18498578721E+02  0.49049770441E+02  0.56006391522E+02  0.00000000000E+00 0. -1.
         11    1    3    3    0    0  0.28214976074E+02  0.35724469215E+01 -0.39709716062E+02  0.48843718138E+02  0.00000000000E+00 0. -1.
        -12    1    3    3    0    0 -0.13080115455E+02  0.21232824427E+02 -0.29582315918E+03  0.29687247054E+03  0.00000000000E+00 0.  1.
          5    1    4    4  501    0 -0.77181568633E+02  0.16899000529E+02  0.74868072642E+02  0.10892782682E+03  0.41800000000E+01 0. -1.
         -5    1    4    4    0  501  0.23183234872E+02 -0.39521582063E+02 -0.42211261554E+01  0.46202901791E+02  0.41800000000E+01 0. -1.
</event>
<event>
11    1  0.6930157E-009  0.1254424E+03  0.7561462E-02  0.1124999E+00
         22   -1    0    0    0    0  0.00000000000E+00  0.00000000000E+00  0.14721892929E+03  0.14721892929E+03  0.00000000000E+00 0.  1.
         22   -1    0    0    0    0 -0.00000000000E+00 -0.00000000000E+00 -0.63438504944E+03  0.63438504944E+03  0.00000000000E+00 0.  1.
        -24    2    1    2    0    0  0.16295833835E+02  0.20015219570E+01 -0.50239718631E+03  0.50884022437E+03  0.79030885319E+02 0.  0.
         25    2    1    2    0    0 -0.90643002530E+01 -0.95105468045E+01 -0.78957976265E+02  0.14850734463E+03  0.12508979716E+03 0.  0.
         24    2    1    2    0    0 -0.72315335820E+01  0.75090248475E+01  0.94189042424E+02  0.12425640973E+03  0.80370387053E+02 0.  0.
        -13    1    5    5    0    0  0.33452835221E+02  0.13420784423E+02  0.63265211409E+02  0.72812750350E+02  0.00000000000E+00 0.  1.
         14    1    5    5    0    0 -0.40684368803E+02 -0.59117595751E+01  0.30923831014E+02  0.51443659384E+02  0.00000000000E+00 0. -1.
         13    1    3    3    0    0 -0.24171679558E+02 -0.21976541916E+02 -0.16752679580E+03  0.17068235351E+03  0.00000000000E+00 0. -1.
        -14    1    3    3    0    0  0.40467513393E+02  0.23978063873E+02 -0.33487039050E+03  0.33815787086E+03  0.00000000000E+00 0.  1.
          5    1    4    4  501    0  0.49714424669E+02  0.10701586464E+02 -0.68379032111E+02  0.85318300530E+02  0.41800000000E+01 0. -1.
         -5    1    4    4    0  501 -0.58778724922E+02 -0.20212133269E+02 -0.10578944155E+02  0.63189044099E+02  0.41800000000E+01 0. -1.
</event>
<event>
11    1  0.6930157E-009  0.1421770E+03  0.7561462E-02  0.1105151E+00
         22   -1    0    0    0    0  0.00000000000E+00  0.00000000000E+00  0.10104145013E+04  0.10104145013E+04  0.00000000000E+00 0. -1.
         22   -1    0    0    0    0 -0.00000000000E+00 -0.00000000000E+00 -0.22417958497E+04  0.22417958497E+04  0.00000000000E+00 0.  1.
         24    2    1    2    0    0 -0.33425694631E+02  0.59564050243E+02 -0.21764622467E+04  0.21790092749E+04  0.80177028414E+02 0.  0.
         25    2    1    2    0    0 -0.31941262861E+02 -0.45000526028E+02  0.15268753682E+02  0.13757337640E+03  0.12509199590E+03 0.  0.
        -24    2    1    2    0    0  0.65366957493E+02 -0.14563524215E+02  0.92981214457E+03  0.93562769974E+03  0.79772382108E+02 0.  0.
        -11    1    3    3    0    0 -0.28436062151E+02  0.37291729584E+02 -0.20478857559E+04  0.20484226498E+04  0.00000000000E+00 0.  1.
         12    1    3    3    0    0 -0.49896324798E+01  0.22272320658E+02 -0.12857649073E+03  0.13058662515E+03  0.00000000000E+00 0. -1.
         13    1    5    5    0    0  0.60956754548E+02 -0.42036489482E+02  0.75403618737E+03  0.75766309415E+03  0.00000000000E+00 0. -1.
        -14    1    5    5    0    0  0.44102029449E+01  0.27472965268E+02  0.17577595720E+03  0.17796460558E+03  0.00000000000E+00 0.  1.
          5    1    4    4  501    0  0.87511333002E+01  0.40310795466E+02 -0.14955107044E+01  0.41487968345E+02  0.41800000000E+01 0. -1.
         -5    1    4    4    0  501 -0.40692396161E+02 -0.85311321494E+02  0.16764264386E+02  0.96085408054E+02  0.41800000000E+01 0. -1.
</event>
<event>
11    1  0.6930157E-009  0.1520630E+03  0.7561462E-02  0.1094789E+00
         22   -1    0    0    0    0  0.00000000000E+00  0.00000000000E+00  0.10017984672E+03  0.10017984672E+03  0.00000000000E+00 0. -1.
         22   -1    0    0    0    0 -0.00000000000E+00 -0.00000000000E+00 -0.24896460231E+04  0.24896460231E+04  0.00000000000E+00 0. -1.
        -24    2    1    2    0    0 -0.89248675822E+02 -0.37430442416E+02 -0.17474597776E+04  0.17519308166E+04  0.79243595977E+02 0.  0.
         25    2    1    2    0    0  0.67039509893E+02 -0.48499061681E+02 -0.69219067935E+03  0.70825253575E+03  0.12508902007E+03 0.  0.
         24    2    1    2    0    0  0.22209165930E+02  0.85929504097E+02  0.50184280576E+02  0.12964251752E+03  0.80072427255E+02 0.  0.
        -11    1    5    5    0    0 -0.28484099764E+02  0.49238462706E+02  0.26165225840E+02  0.62613011365E+02  0.00000000000E+00 0.  1.
         12    1    5    5    0    0  0.50693265693E+02  0.36691041391E+02  0.24019054736E+02  0.67029506155E+02  0.00000000000E+00 0. -1.
         11    1    3    3    0    0 -0.10061939909E+03 -0.41168322223E+02 -0.13798070119E+04  0.13840832649E+04  0.00000000000E+00 0. -1.
        -12    1    3    3    0    0  0.11370723268E+02  0.37378798071E+01 -0.36765276576E+03  0.36784755166E+03  0.00000000000E+00 0.  1.
          5    1    4    4  501    0  0.27071454807E+01 -0.14963943050E+02 -0.53329650375E+03  0.53352964448E+03  0.41800000000E+01 0.  1.
         -5    1    4    4    0  501  0.64332364412E+02 -0.33535118631E+02 -0.15889417560E+03  0.17472289127E+03  0.41800000000E+01 0.  1.
</event>
<event>
11    1  0.6930157E-009  0.1507352E+03  0.7561462E-02  0.1096130E+00
         22   -1    0    0    0    0  0.00000000000E+00  0.00000000000E+00  0.17983253549E+04  0.17983253549E+04  0.00000000000E+00 0. -1.
         22   -1    0    0    0    0 -0.00000000000E+00 -0.00000000000E+00 -0.64921893944E+03  0.64921893944E+03  0.00000000000E+00 0. -1.
        -24    2    1    2    0    0 -0.52998418699E+02 -0.37861083022E+02 -0.45745547664E+03  0.47011423612E+03  0.86600161093E+02 0.  0.
         25    2    1    2    0    0  0.39771015610E+02 -0.45683282651E+02 -0.15717694496E+03  0.20980986444E+03  0.12508753412E+03 0.  0.
         24    2    1    2    0    0  0.13227403089E+02  0.83544365674E+02  0.17637388370E+04  0.17676201937E+04  0.80943430142E+02 0.  0.
        -13    1    5    5    0    0 -0.56882442169E+01  0.22542678699E+02  0.10044261623E+03  0.10309824266E+03  0.00000000000E+00 0.  1.
         14    1    5    5    0    0  0.18915647306E+02  0.61001686975E+02  0.16632962208E+04  0.16645219511E+04  0.00000000000E+00 0. -1.
         11    1    3    3    0    0 -0.52666670868E+02 -0.76039123798E+01 -0.11956578009E+03  0.13087235564E+03  0.00000000000E+00 0. -1.
        -12    1    3    3    0    0 -0.33174783111E+00 -0.30257170642E+02 -0.33788969655E+03  0.33924188047E+03  0.00000000000E+00 0.  1.
          5    1    4    4  501    0  0.29774353857E+02 -0.72584802729E+02 -0.38220282674E+02  0.87368919774E+02  0.41800000000E+01 0.  1.
         -5    1    4    4    0  501  0.99966617535E+01  0.26901520077E+02 -0.11895666228E+03  0.12244094466E+03  0.41800000000E+01 0.  1.
</event>
<event>
11    1  0.6930157E-009  0.1687509E+03  0.7561462E-02  0.1079124E+00
         22   -1    0    0    0    0  0.00000000000E+00  0.00000000000E+00  0.22805534250E+03  0.22805534250E+03  0.00000000000E+00 0.  1.
         22   -1    0    0    0    0 -0.00000000000E+00 -0.00000000000E+00 -0.35193382859E+03  0.35193382859E+03  0.00000000000E+00 0. -1.
        -24    2    1    2    0    0 -0.78624941505E+02 -0.10987278454E+03 -0.15776756760E+03  0.22191599951E+03  0.78116549097E+02 0.  0.
         25    2    1    2    0    0  0.44071210180E+02  0.74771785543E+02 -0.10864871174E+03  0.18704460127E+03  0.12509216131E+03 0.  0.
         24    2    1    2    0    0  0.34553731325E+02  0.35100998999E+02  0.14253779324E+03  0.17102857032E+03  0.80670371792E+02 0.  0.
        -13    1    5    5    0    0  0.34087822946E+02  0.44841395479E+02  0.14902608823E+03  0.15931574120E+03  0.00000000000E+00 0.  1.
         14    1    5    5    0    0  0.46590837959E+00 -0.97403964798E+01 -0.64882949867E+01  0.11712829122E+02  0.00000000000E+00 0. -1.
         13    1    3    3    0    0 -0.88393144789E+02 -0.91632177202E+02 -0.10430291257E+03  0.16458706363E+03  0.00000000000E+00 0. -1.
        -14    1    3    3    0    0  0.97682032837E+01 -0.18240607340E+02 -0.53464655029E+02  0.57328935878E+02  0.00000000000E+00 0.  1.
          5    1    4    4  501    0  0.33601851553E+02  0.99223499464E+02 -0.11863892282E+03  0.15832578338E+03  0.41800000000E+01 0. -1.
         -5    1    4    4    0  501  0.10469358627E+02 -0.24451713920E+02  0.99902110850E+01  0.28718817894E+02  0.41800000000E+01 0. -1.
</event>
<event>
11    1  0.6930157E-009  0.1402750E+03  0.7561462E-02  0.1107252E+00
         22   -1    0    0    0    0  0.00000000000E+00  0.00000000000E+00  0.11429943891E+03  0.11429943891E+03  0.00000000000E+00 0. -1.
         22   -1    0    0    0    0 -0.00000000000E+00 -0.00000000000E+00 -0.74272167194E+03  0.74272167194E+03  0.00000000000E+00 0.  1.
        -24    2    1    2    0    0 -0.15372838587E+02  0.62220248199E+02 -0.52774900085E+03  0.53780387194E+03  0.81279230530E+02 0.  0.
         25    2    1    2    0    0  0.74267040027E+01 -0.60273818874E+02 -0.16216009659E+03  0.21361443559E+03  0.12508853262E+03 0.  0.
         24    2    1    2    0    0  0.79461345839E+01 -0.19464293248E+01  0.61486864406E+02  0.10560280332E+03  0.85465712026E+02 0.  0.
        -13    1    5    5    0    0  0.20323838040E+02 -0.31277813797E+02  0.10758700667E+01  0.37316451131E+02  0.00000000000E+00 0.  1.
         14    1    5    5    0    0 -0.12377703456E+02  0.29331384472E+02  0.60410994339E+02  0.68286352187E+02  0.00000000000E+00 0. -1.
         11    1    3    3    0    0  0.54180027899E+01  0.46108758710E+02 -0.11223360137E+03  0.12145679751E+03  0.00000000000E+00 0. -1.
        -12    1    3    3    0    0 -0.20790841376E+02  0.16111489489E+02 -0.41551539948E+03  0.41634707443E+03  0.00000000000E+00 0.  1.
          5    1    4    4  501    0 -0.16635773537E+02 -0.94908946462E+02 -0.10696392263E+03  0.14402503332E+03  0.41800000000E+01 0.  1.
         -5    1    4    4    0  501  0.24062477539E+02  0.34635127588E+02 -0.55196173960E+02  0.69589402270E+02  0.41800000000E+01 0.  1.
</event>
<event>
11    1  0.6930157E-009  0.1945193E+03  0.7561462E-02  0.1058468E+00
         22   -1    0    0    0    0  0.00000000000E+00  0.00000000000E+00  0.83275032900E+03  0.83275032900E+03  0.00000000000E+00 0. -1.
         22   -1    0    0    0    0 -0.00000000000E+00 -0.00000000000E+00 -0.38469560268E+03  0.38469560268E+03  0.00000000000E+00 0. -1.
        -24    2    1    2    0    0  0.71806469398E+02  0.44555819973E+02 -0.33217270532E+03  0.35213115562E+03  0.80723320395E+02 0.  0.
         25    2    1    2    0    0 -0.52248006569E+02  0.12427182259E+03  0.34470718106E+03  0.39069748678E+03  0.12509254743E+03 0.  0.
         24    2    1    2    0    0 -0.19558462828E+02 -0.16882764256E+03  0.43552025058E+03  0.47461728927E+03  0.81843608501E+02 0.  0.
        -11    1    5    5    0    0 -0.44234937248E+02 -0.13774207731E+03  0.29445869765E+03  0.32807854876E+03  0.00000000000E+00 0.  1.
         12    1    5    5    0    0  0.24676474420E+02 -0.31085565255E+02  0.14106155293E+03  0.14653874051E+03  0.00000000000E+00 0. -1.
         11    1    3    3    0    0  0.41409240295E+02 -0.10747979024E+02 -0.21327717396E+03  0.21752562417E+03  0.00000000000E+00 0. -1.
        -12    1    3    3    0    0  0.30397229102E+02  0.55303798997E+02 -0.11889553136E+03  0.13460553145E+03  0.00000000000E+00 0.  1.
          5    1    4    4  501    0  0.22558766170E+02  0.98556259568E+02  0.23022239379E+03  0.25147973524E+03  0.41800000000E+01 0.  1.
         -5    1    4    4    0  501 -0.74806772739E+02  0.25715563022E+02  0.11448478727E+03  0.13921775155E+03  0.41800000000E+01 0.  1.
</event>
<event>
11    1  0.6930157E-009  0.1296481E+03  0.7561462E-02  0.1119702E+00
         22   -1    0    0    0    0  0.00000000000E+00  0.00000000000E+00  0.97599025777E+02  0.97599025777E+02  0.00000000000E+00 0.  1.
         22   -1    0    0    0    0 -0.00000000000E+00 -0.00000000000E+00 -0.24285603529E+04  0.24285603529E+04  0.00000000000E+00 0.  1.
        -24    2    1    2    0    0 -0.11997154852E+02  0.25655120075E+01 -0.21761465732E+04  0.21777017956E+04  0.81367617263E+02 0.  0.
         25    2    1    2    0    0  0.43925092955E+02  0.51581862956E+01 -0.20564058958E+03  0.24473586631E+03  0.12510624085E+03 0.  0.
         24    2    1    2    0    0 -0.31927938102E+02 -0.77236983031E+01  0.50825835610E+02  0.10372171677E+03  0.84237047766E+02 0.  0.
        -11    1    5    5    0    0 -0.40802814163E+02 -0.96472951776E+01  0.70515492732E+02  0.82038860689E+02  0.00000000000E+00 0.  1.
         12    1    5    5    0    0  0.88748760610E+01  0.19235968745E+01 -0.19689657122E+02  0.21682856076E+02  0.00000000000E+00 0. -1.
         11    1    3    3    0    0  0.16478355050E+02  0.34973060122E+02 -0.91118610531E+03  0.91200590438E+03  0.00000000000E+00 0. -1.
        -12    1    3    3    0    0 -0.28475509902E+02 -0.32407548114E+02 -0.12649604679E+04  0.12656958912E+04  0.00000000000E+00 0.  1.
          5    1    4    4  501    0  0.53868013521E+02  0.16605739571E+02 -0.21769876758E+03  0.22491718315E+03  0.41800000000E+01 0.  1.
         -5    1    4    4    0  501 -0.99429205660E+01 -0.11447553275E+02  0.12058178008E+02  0.19818683161E+02  0.41800000000E+01 0.  1.
</event>
<event>
11    1  0.6930157E-009  0.1666240E+03  0.7561462E-02  0.1081007E+00
         22   -1    0    0    0    0  0.00000000000E+00  0.00000000000E+00  0.39250241941E+03  0.39250241941E+03  0.00000000000E+00 0. -1.
         22   -1    0    0    0    0 -0.00000000000E+00 -0.00000000000E+00 -0.23896346124E+04  0.23896346124E+04  0.00000000000E+00 0. -1.
        -24    2    1    2    0    0  0.10295859618E+02 -0.11023670003E+03 -0.20596185310E+04  0.20641433802E+04  0.80007909758E+02 0.  0.
         25    2    1    2    0    0 -0.85636838765E+02  0.93156100978E+02 -0.29242300888E+03  0.34230288856E+03  0.12509326157E+03 0.  0.
         24    2    1    2    0    0  0.75340979147E+02  0.17080599051E+02  0.35490934693E+03  0.37569076312E+03  0.95994244375E+02 0.  0.
        -11    1    5    5    0    0 -0.21191217470E+02  0.58800448290E+01  0.34900083326E+02  0.41251162908E+02  0.00000000000E+00 0.  1.
         12    1    5    5    0    0  0.96532196617E+02  0.11200554222E+02  0.32000926360E+03  0.33443960021E+03  0.00000000000E+00 0. -1.
         11    1    3    3    0    0 -0.25118774447E+01 -0.37344820175E+02 -0.13799217691E+04  0.13804292933E+04  0.00000000000E+00 0. -1.
        -12    1    3    3    0    0  0.12807737063E+02 -0.72891879854E+02 -0.67969676199E+03  0.68371408683E+03  0.00000000000E+00 0.  1.
          5    1    4    4  501    0 -0.94159688150E+02  0.19547043216E+02 -0.11491464163E+03  0.14990323890E+03  0.41800000000E+01 0. -1.
         -5    1    4    4    0  501  0.85228493850E+01  0.73609057762E+02 -0.17750836725E+03  0.19239964966E+03  0.41800000000E+01 0. -1.
</event>
<event>
11    1  0.6930157E-009  0.1667309E+03  0.7561462E-02  0.1080912E+00
         22   -1    0    0    0    0  0.00000000000E+00  0.00000000000E+00  0.75202864103E+03  0.75202864103E+03  0.00000000000E+00 0. -1.
         22   -1    0    0    0    0 -0.00000000000E+00 -0.00000000000E+00 -0.10092807875E+04  0.10092807875E+04  0.00000000000E+00 0.  1.
        -24    2    1    2    0    0  0.35662425345E+02 -0.10438467111E+03 -0.90432040254E+03  0.91526111959E+03  0.87974760157E+02 0.  0.
         25    2    1    2    0    0  0.51899170914E+02  0.13073984323E+03 -0.88440058225E+00  0.18823920864E+03  0.12508711746E+03 0.  0.
         24    2    1    2    0    0 -0.87561596259E+02 -0.26355172112E+02  0.64795265670E+03  0.65780910027E+03  0.67145653912E+02 0.  0.
        -13    1    5    5    0    0 -0.69473061628E+01 -0.17721691608E+02  0.29717004354E+03  0.29777904257E+03  0.00000000000E+00 0.  1.
         14    1    5    5    0    0 -0.80614290097E+02 -0.86334805042E+01  0.35078261316E+03  0.36003005770E+03  0.00000000000E+00 0. -1.
         13    1    3    3    0    0 -0.28972766131E+02 -0.27503596724E+02 -0.21800127974E+03  0.22163128610E+03  0.00000000000E+00 0. -1.
        -14    1    3    3    0    0  0.64635191476E+02 -0.76881074391E+02 -0.68631912280E+03  0.69362983349E+03  0.00000000000E+00 0.  1.
          5    1    4    4  501    0  0.84390912457E+02  0.97811535813E+02  0.29705288905E+02  0.13262277041E+03  0.41800000000E+01 0. -1.
         -5    1    4    4    0  501 -0.32491741543E+02  0.32928307414E+02 -0.30589689487E+02  0.55616438223E+02  0.41800000000E+01 0. -1.
</event>
<event>
11    1  0.6930157E-009  0.1565823E+03  0.7561462E-02  0.1090337E+00
         22   -1    0    0    0    0  0.00000000000E+00  0.00000000000E+00  0.10187280466E+04  0.10187280466E+04  0.00000000000E+00 0. -1.
         22   -1    0    0    0    0 -0.00000000000E+00 -0.00000000000E+00 -0.21883586021E+03  0.21883586021E+03  0.00000000000E+00 0. -1.
        -24    2    1    2    0    0  0.38038352001E+02 -0.34680465239E+02 -0.17091188650E+03  0.19577070510E+03  0.80409235372E+02 0.  0.
         25    2    1    2    0    0 -0.58609564192E+02 -0.60656878613E+02  0.15518760362E+03  0.21643874439E+03  0.12509276486E+03 0.  0.
         24    2    1    2    0    0  0.20571212191E+02  0.95337343852E+02  0.81561646928E+03  0.82535445733E+03  0.80419968719E+02 0.  0.
        -13    1    5    5    0    0  0.93247416573E+01  0.10971026110E+02  0.17274373218E+02  0.22488178916E+02  0.00000000000E+00 0.  1.
         14    1    5    5    0    0  0.11246470533E+02  0.84366317743E+02  0.79834209606E+03  0.80286627841E+03  0.00000000000E+00 0. -1.
         13    1    3    3    0    0  0.30759686105E+02  0.11266106572E+02 -0.12920332244E+03  0.13329134247E+03  0.00000000000E+00 0. -1.
        -14    1    3    3    0    0  0.72786658964E+01 -0.45946571811E+02 -0.41708564061E+02  0.62479362628E+02  0.00000000000E+00 0.  1.
          5    1    4    4  501    0  0.12653853402E+02 -0.26632325959E+02  0.13011479932E+03  0.13347933995E+03  0.41800000000E+01 0.  1.
         -5    1    4    4    0  501 -0.71263417595E+02 -0.34024552655E+02  0.25072804301E+02  0.82959404447E+02  0.41800000000E+01 0.  1.
</event>
<event>
11    1  0.6930157E-009  0.1487563E+03  0.7561462E-02  0.1098156E+00
         22   -1    0    0    0    0  0.00000000000E+00  0.00000000000E+00  0.75199710446E+03  0.75199710446E+03  0.00000000000E+00 0.  1.
         22   -1    0    0    0    0 -0.00000000000E+00 -0.00000000000E+00 -0.32059401494E+03  0.32059401494E+03  0.00000000000E+00 0. -1.
         24    2    1    2    0    0 -0.36279614456E+02  0.26808097597E+02 -0.13777238555E+03  0.16702541940E+03  0.82954059474E+02 0.  0.
         25    2    1    2    0    0  0.40195671884E+02  0.54262016484E+02 -0.13288335662E+03  0.19458941565E+03  0.12508795203E+03 0.  0.
        -24    2    1    2    0    0 -0.39160574285E+01 -0.81070114082E+02  0.70205883170E+03  0.71097628436E+03  0.77543373969E+02 0.  0.
        -13    1    3    3    0    0 -0.20925575745E+02  0.47047101145E+01  0.47638764631E+01  0.21970628951E+02  0.00000000000E+00 0.  1.
         14    1    3    3    0    0 -0.15354038711E+02  0.22103387483E+02 -0.14253626202E+03  0.14505479045E+03  0.00000000000E+00 0. -1.
         11    1    5    5    0    0 -0.89771392875E+01 -0.87549030828E+01  0.12810127959E+02  0.17925867792E+02  0.00000000000E+00 0. -1.
        -12    1    5    5    0    0  0.50610818589E+01 -0.72315210999E+02  0.68924870374E+03  0.69305041656E+03  0.00000000000E+00 0.  1.
          5    1    4    4  501    0  0.29505666052E+02  0.86724018541E+02 -0.49126266877E+02  0.10403125597E+03  0.41800000000E+01 0.  1.
         -5    1    4    4    0  501  0.10690005832E+02 -0.32462002056E+02 -0.83757089741E+02  0.90558159677E+02  0.41800000000E+01 0.  1.
</event>
<event>
11    1  0.6930157E-009  0.3608303E+03  0.7561462E-02  0.9772970E-01
         22   -1    0    0    0    0  0.00000000000E+00  0.00000000000E+00  0.26849700523E+03  0.26849700523E+03  0.00000000000E+00 0. -1.
         22   -1    0    0    0    0 -0.00000000000E+00 -0.00000000000E+00 -0.17989786604E+04  0.17989786604E+04  0.00000000000E+00 0. -1.
         24    2    1    2    0    0 -0.11285736465E+03  0.38254734583E+02 -0.12237509045E+04  0.12322316815E+04  0.81415176495E+02 0.  0.
         25    2    1    2    0    0 -0.10228329052E+03  0.29702626783E+03 -0.21422034581E+02  0.33881117322E+03  0.12509049618E+03 0.  0.
        -24    2    1    2    0    0  0.21514065517E+03 -0.33528100241E+03 -0.28530871608E+03  0.49643281097E+03  0.79659401519E+02 0.  0.
        -13    1    3    3    0    0 -0.17017878067E+02  0.24628929746E+02 -0.10174861043E+03  0.10606117140E+03  0.00000000000E+00 0.  1.
         14    1    3    3    0    0 -0.95839486587E+02  0.13625804837E+02 -0.11220022941E+04  0.11261705101E+04  0.00000000000E+00 0. -1.
         11    1    5    5    0    0  0.17249794168E+03 -0.31191304317E+03 -0.23799554042E+03  0.42858740491E+03  0.00000000000E+00 0. -1.
        -12    1    5    5    0    0  0.42642713491E+02 -0.23367959240E+02 -0.47313175655E+02  0.67845406060E+02  0.00000000000E+00 0.  1.
          5    1    4    4  501    0 -0.63028397546E+01  0.56447060644E+02  0.43598370291E+02  0.71723683232E+02  0.41800000000E+01 0.  1.
         -5    1    4    4    0  501 -0.95980450763E+02  0.24057920719E+03 -0.65020404873E+02  0.26708748999E+03  0.41800000000E+01 0.  1.
</event>
<event>
11    1  0.7160934E-009  0.1613674E+03  0.7561462E-02  0.1085798E+00
         22   -1    0    0    0    0  0.00000000000E+00  0.00000000000E+00  0.33837571876E+03  0.33837571876E+03  0.00000000000E+00 0.  1.
         22   -1    0    0    0    0 -0.00000000000E+00 -0.00000000000E+00 -0.10365713618E+04  0.10365713618E+04  0.00000000000E+00 0.  1.
         24    2    1    2    0    0  0.42565688146E+02 -0.59125765579E+02 -0.85312195477E+03  0.86001379622E+03  0.80616164732E+02 0.  0.
         25    2    1    2    0    0  0.25394789063E+02 -0.24518333236E+02 -0.14005833442E+03  0.19107591089E+03  0.12509045810E+03 0.  0.
        -24    2    1    2    0    0 -0.67960477209E+02  0.83644098815E+02  0.29498464611E+03  0.32385737348E+03  0.79073985496E+02 0.  0.
        -13    1    3    3    0    0  0.62398726219E+02 -0.21518833953E+02 -0.49756259617E+03  0.50192150617E+03  0.00000000000E+00 0.  1.
         14    1    3    3    0    0 -0.19833038073E+02 -0.37606931625E+02 -0.35555935860E+03  0.35809229006E+03  0.00000000000E+00 0. -1.
         11    1    5    5    0    0  0.97107330391E+01 -0.86762765747E+01  0.28861595316E+02  0.31663350984E+02  0.00000000000E+00 0. -1.
        -12    1    5    5    0    0 -0.77671210248E+02  0.92320375389E+02  0.26612305080E+03  0.29219402249E+03  0.00000000000E+00 0.  1.
          5    1    4    4  501    0  0.88563804959E+01  0.42110711354E+02 -0.10651681674E+02  0.44527274885E+02  0.41800000000E+01 0. -1.
         -5    1    4    4    0  501  0.16538408568E+02 -0.66629044590E+02 -0.12940665274E+03  0.14654863601E+03  0.41800000000E+01 0. -1.
</event>
<event>
11    1  0.6930157E-009  0.1517887E+03  0.7561462E-02  0.1095065E+00
         22   -1    0    0    0    0  0.00000000000E+00  0.00000000000E+00  0.50373522306E+03  0.50373522306E+03  0.00000000000E+00 0.  1.
         22   -1    0    0    0    0 -0.00000000000E+00 -0.00000000000E+00 -0.14763882746E+04  0.14763882746E+04  0.00000000000E+00 0.  1.
         24    2    1    2    0    0  0.59059289992E+02  0.22268977569E+02 -0.12780918000E+04  0.12820099401E+04  0.77762009706E+02 0.  0.
         25    2    1    2    0    0 -0.17736781742E+02 -0.98010574518E+02 -0.15500636956E+03  0.22269888829E+03  0.12508858500E+03 0.  0.
        -24    2    1    2    0    0 -0.41322508250E+02  0.75741596949E+02  0.46044511803E+03  0.47541466928E+03  0.81025069250E+02 0.  0.
        -13    1    3    3    0    0  0.18795213683E+02  0.35033632717E+01 -0.10160228916E+04  0.10162027602E+04  0.00000000000E+00 0.  1.
         14    1    3    3    0    0  0.40264076310E+02  0.18765614297E+02 -0.26206890841E+03  0.26580717988E+03  0.00000000000E+00 0. -1.
         13    1    5    5    0    0  0.20908679384E+02  0.18190909511E+02  0.59924060831E+02  0.66022535008E+02  0.00000000000E+00 0. -1.
        -14    1    5    5    0    0 -0.62231187635E+02  0.57550687437E+02  0.40052105720E+03  0.40939213427E+03  0.00000000000E+00 0.  1.
          5    1    4    4  501    0 -0.50686267256E+02 -0.72262594103E+02 -0.15750491015E+03  0.18059969357E+03  0.41800000000E+01 0. -1.
         -5    1    4    4    0  501  0.32949485514E+02 -0.25747980414E+02  0.24985405919E+01  0.42099194721E+02  0.41800000000E+01 0. -1.
</event>
<event>
11    1  0.6930157E-009  0.2315387E+03  0.7561462E-02  0.1034221E+00
         22   -1    0    0    0    0  0.00000000000E+00  0.00000000000E+00  0.72660888073E+02  0.72660888073E+02  0.00000000000E+00 0. -1.
         22   -1    0    0    0    0 -0.00000000000E+00 -0.00000000000E+00 -0.20487581579E+04  0.20487581579E+04  0.00000000000E+00 0.  1.
         24    2    1    2    0    0 -0.30097262645E+02 -0.46065993597E+02 -0.12114343946E+04  0.12151995321E+04  0.78158105126E+02 0.  0.
         25    2    1    2    0    0 -0.17256492829E+03  0.18133474316E+02 -0.58313458676E+03  0.62112858975E+03  0.12508917368E+03 0.  0.
        -24    2    1    2    0    0  0.20266219093E+03  0.27932519281E+02 -0.18152828842E+03  0.28509092408E+03  0.80449525953E+02 0.  0.
        -13    1    3    3    0    0 -0.32547783151E+02 -0.65280320055E+02 -0.10641107405E+04  0.10666079629E+04  0.00000000000E+00 0.  1.
         14    1    3    3    0    0  0.24505205059E+01  0.19214326458E+02 -0.14732365406E+03  0.14859156920E+03  0.00000000000E+00 0. -1.
         13    1    5    5    0    0  0.15591892513E+03  0.53427671916E+02 -0.15199467434E+03  0.22420438971E+03  0.00000000000E+00 0. -1.
        -14    1    5    5    0    0  0.46743265805E+02 -0.25495152635E+02 -0.29533614086E+02  0.60886534365E+02  0.00000000000E+00 0.  1.
          5    1    4    4  501    0 -0.16178935521E+03  0.45492213600E+02 -0.55613817768E+03  0.58099266951E+03  0.41800000000E+01 0. -1.
         -5    1    4    4    0  501 -0.10775573084E+02 -0.27358739284E+02 -0.26996409080E+02  0.40135920242E+02  0.41800000000E+01 0. -1.
</event>
<event>
11    1  0.6930157E-009  0.1453515E+03  0.7561462E-02  0.1101725E+00
         22   -1    0    0    0    0  0.00000000000E+00  0.00000000000E+00  0.97040867463E+02  0.97040867463E+02  0.00000000000E+00 0.  1.
         22   -1    0    0    0    0 -0.00000000000E+00 -0.00000000000E+00 -0.18804454634E+04  0.18804454634E+04  0.00000000000E+00 0. -1.
        -24    2    1    2    0    0 -0.73044482881E+02 -0.28791062844E+02 -0.15376708832E+04  0.15417649955E+04  0.80269136722E+02 0.  0.
         25    2    1    2    0    0  0.13452946396E+02  0.63943240295E+02 -0.28743979651E+03  0.32021388978E+03  0.12508228829E+03 0.  0.
         24    2    1    2    0    0  0.59591536485E+02 -0.35152177452E+02  0.41706083771E+02  0.11550744566E+03  0.82557530114E+02 0.  0.
        -11    1    5    5    0    0  0.39672298097E+02 -0.42902583631E+02  0.62588145212E+02  0.85625923876E+02  0.00000000000E+00 0.  1.
         12    1    5    5    0    0  0.19919238388E+02  0.77504061799E+01 -0.20882061441E+02  0.29881521781E+02  0.00000000000E+00 0. -1.
         11    1    3    3    0    0 -0.84847820798E+02 -0.42881039665E+01 -0.11956180207E+04  0.11986325508E+04  0.00000000000E+00 0. -1.
        -12    1    3    3    0    0  0.11803337917E+02 -0.24502958877E+02 -0.34205286255E+03  0.34313244463E+03  0.00000000000E+00 0.  1.
          5    1    4    4  501    0  0.25630171960E+02  0.95096545185E+02 -0.25516633780E+03  0.27354632325E+03  0.41800000000E+01 0. -1.
         -5    1    4    4    0  501 -0.12177225563E+02 -0.31153304890E+02 -0.32273458709E+02  0.46667566521E+02  0.41800000000E+01 0. -1.
</event>
<event>
11    1  0.6930157E-009  0.1478269E+03  0.7561462E-02  0.1099120E+00
         22   -1    0    0    0    0  0.00000000000E+00  0.00000000000E+00  0.58840742094E+03  0.58840742094E+03  0.00000000000E+00 0. -1.
         22   -1    0    0    0    0 -0.00000000000E+00 -0.00000000000E+00 -0.29454742151E+03  0.29454742151E+03  0.00000000000E+00 0. -1.
        -24    2    1    2    0    0 -0.59507627508E+02  0.40939139100E+02 -0.15692518279E+03  0.18801652613E+03  0.74212736526E+02 0.  0.
         25    2    1    2    0    0  0.13511942622E+03 -0.38827262538E+02 -0.39001081094E+02  0.19218080613E+03  0.12509021648E+03 0.  0.
         24    2    1    2    0    0 -0.75611798716E+02 -0.21118765629E+01  0.48978626331E+03  0.50275751019E+03  0.84574973782E+02 0.  0.
        -11    1    5    5    0    0 -0.51469352162E+02  0.34854116266E+02  0.19457513175E+03  0.20426303025E+03  0.00000000000E+00 0.  1.
         12    1    5    5    0    0 -0.24142446554E+02 -0.36965992829E+02  0.29521113157E+03  0.29849447994E+03  0.00000000000E+00 0. -1.
         13    1    3    3    0    0 -0.37714782375E+02  0.17088287077E+02 -0.14914414087E+03  0.15478497705E+03  0.00000000000E+00 0. -1.
        -14    1    3    3    0    0 -0.21792845133E+02  0.23850852023E+02 -0.77810419281E+01  0.33231549087E+02  0.00000000000E+00 0.  1.
          5    1    4    4  501    0  0.96715912748E+01 -0.34365647361E+01  0.38781963263E+02  0.40334386440E+02  0.41800000000E+01 0.  1.
         -5    1    4    4    0  501  0.12544783495E+03 -0.35390697801E+02 -0.77783044356E+02  0.15184641969E+03  0.41800000000E+01 0.  1.
</event>
<event>
11    1  0.6930157E-009  0.2036200E+03  0.7561462E-02  0.1051993E+00
         22   -1    0    0    0    0  0.00000000000E+00  0.00000000000E+00  0.20935916683E+03  0.20935916683E+03  0.00000000000E+00 0.  1.
         22   -1    0    0    0    0 -0.00000000000E+00 -0.00000000000E+00 -0.55675892172E+03  0.55675892172E+03  0.00000000000E+00 0. -1.
        -24    2    1    2    0    0 -0.90676967289E+02 -0.61516414771E+02 -0.34024246862E+03  0.36644344626E+03  0.80680110102E+02 0.  0.
         25    2    1    2    0    0 -0.11034856483E+03  0.36801560800E+02 -0.48180185021E+02  0.17748107337E+03  0.12508813108E+03 0.  0.
         24    2    1    2    0    0  0.20102553212E+03  0.24714853971E+02  0.41022898759E+02  0.22219356893E+03  0.81639544829E+02 0.  0.
        -13    1    5    5    0    0  0.17934253612E+03  0.11099095139E+02  0.60958335499E+02  0.18974418000E+03  0.00000000000E+00 0.  1.
         14    1    5    5    0    0  0.21682995995E+02  0.13615758832E+02 -0.19935436741E+02  0.32449388930E+02  0.00000000000E+00 0. -1.
         13    1    3    3    0    0  0.40241049878E+00 -0.29789745042E+02 -0.15243019052E+03  0.15531437095E+03  0.00000000000E+00 0. -1.
        -14    1    3    3    0    0 -0.91079377787E+02 -0.31726669729E+02 -0.18781227811E+03  0.21112907530E+03  0.00000000000E+00 0.  1.
          5    1    4    4  501    0 -0.24378386841E+02 -0.27285852395E+02  0.27675048291E+02  0.46067387420E+02  0.41800000000E+01 0.  1.
         -5    1    4    4    0  501 -0.85970177988E+02  0.64087413194E+02 -0.75855233311E+02  0.13141368595E+03  0.41800000000E+01 0.  1.
</event>
<event>
11    1  0.6930157E-009  0.1512928E+03  0.7561462E-02  0.1095565E+00
         22   -1    0    0    0    0  0.00000000000E+00  0.00000000000E+00  0.11491989091E+03  0.11491989091E+03  0.00000000000E+00 0.  1.
         22   -1    0    0    0    0 -0.00000000000E+00 -0.00000000000E+00 -0.13670019120E+04  0.13670019120E+04  0.00000000000E+00 0.  1.
        -24    2    1    2    0    0  0.15842676030E+02  0.77972742935E+02 -0.94154950258E+03  0.94806616422E+03  0.77351450596E+02 0.  0.
         25    2    1    2    0    0 -0.30713907626E+02 -0.11195413654E+03 -0.38364358417E+03  0.41988916666E+03  0.12508972698E+03 0.  0.
         24    2    1    2    0    0  0.14871231596E+02  0.33981393601E+02  0.73111065670E+02  0.11396647201E+03  0.79165902878E+02 0.  0.
        -13    1    5    5    0    0  0.30123003157E+02  0.44197306110E+02  0.78359704445E+02  0.94873813391E+02  0.00000000000E+00 0.  1.
         14    1    5    5    0    0 -0.15251771560E+02 -0.10215912509E+02 -0.52486387747E+01  0.19092658618E+02  0.00000000000E+00 0. -1.
         13    1    3    3    0    0 -0.10179832448E+02 -0.99034607761E+01 -0.55457650022E+02  0.57247344655E+02  0.00000000000E+00 0. -1.
        -14    1    3    3    0    0  0.26022508478E+02  0.87876203711E+02 -0.88609185256E+03  0.89081881957E+03  0.00000000000E+00 0.  1.
          5    1    4    4  501    0 -0.15501048431E+02  0.23010247096E+02 -0.30186540929E+02  0.41212299464E+02  0.41800000000E+01 0. -1.
         -5    1    4    4    0  501 -0.15212859195E+02 -0.13496438363E+03 -0.35345704324E+03  0.37867686719E+03  0.41800000000E+01 0. -1.
</event>
<event>
11    1  0.6930157E-009  0.1741897E+03  0.7561462E-02  0.1074442E+00
         22   -1    0    0    0    0  0.00000000000E+00  0.00000000000E+00  0.16739670087E+04  0.16739670087E+04  0.00000000000E+00 0.  1.
         22   -1    0    0    0    0 -0.00000000000E+00 -0.00000000000E+00 -0.72995691657E+03  0.72995691657E+03  0.00000000000E+00 0.  1.
        -24    2    1    2    0    0 -0.60440248005E+02 -0.26253809699E+02 -0.65817266782E+03  0.66623413345E+03  0.79588779387E+02 0.  0.
         25    2    1    2    0    0  0.28208732043E+02  0.14257233651E+03  0.78766640189E+02  0.20730349937E+03  0.12509178048E+03 0.  0.
         24    2    1    2    0    0  0.32231515962E+02 -0.11631852681E+03  0.15234161198E+04  0.15303862925E+04  0.81955230837E+02 0.  0.
        -11    1    5    5    0    0 -0.60707674521E+01 -0.90349768048E+02  0.12315277016E+04  0.12348523858E+04  0.00000000000E+00 0.  1.
         12    1    5    5    0    0  0.38302283414E+02 -0.25968758759E+02  0.29188841816E+03  0.29553390668E+03  0.00000000000E+00 0. -1.
         13    1    3    3    0    0 -0.29264599483E+02 -0.40314154111E+02 -0.17783838508E+03  0.18468388942E+03  0.00000000000E+00 0. -1.
        -14    1    3    3    0    0 -0.31175648521E+02  0.14060344412E+02 -0.48033428274E+03  0.48155024403E+03  0.00000000000E+00 0.  1.
          5    1    4    4  501    0  0.60177350017E+02  0.20620704637E+02  0.13055436843E+02  0.65072603652E+02  0.41800000000E+01 0. -1.
         -5    1    4    4    0  501 -0.31968617974E+02  0.12195163187E+03  0.65711203345E+02  0.14223089571E+03  0.41800000000E+01 0. -1.
</event>
<event>
11    1  0.6930157E-009  0.2901914E+03  0.7561462E-02  0.1004430E+00
         22   -1    0    0    0    0  0.00000000000E+00  0.00000000000E+00  0.45943242298E+03  0.45943242298E+03  0.00000000000E+00 0. -1.
         22   -1    0    0    0    0 -0.00000000000E+00 -0.00000000000E+00 -0.11872371763E+04  0.11872371763E+04  0.00000000000E+00 0.  1.
        -24    2    1    2    0    0 -0.30744420316E+02 -0.24956687481E+02 -0.93625327815E+03  0.94043017477E+03  0.79187480935E+02 0.  0.
         25    2    1    2    0    0 -0.12016423437E+03 -0.19900095091E+03 -0.10545992325E+03  0.28427142363E+03  0.12509046805E+03 0.  0.
         24    2    1    2    0    0  0.15090865468E+03  0.22395763839E+03  0.31390844810E+03  0.42196800086E+03  0.81166705711E+02 0.  0.
        -11    1    5    5    0    0  0.26805134957E+02  0.72765344314E+02  0.45702270203E+02  0.90011155391E+02  0.00000000000E+00 0.  1.
         12    1    5    5    0    0  0.12410351972E+03  0.15119229407E+03  0.26820617789E+03  0.33195684547E+03  0.00000000000E+00 0. -1.
         11    1    3    3    0    0  0.19776588994E+02 -0.57095087164E+01 -0.84811374530E+02  0.87273599741E+02  0.00000000000E+00 0. -1.
        -12    1    3    3    0    0 -0.50521009310E+02 -0.19247178765E+02 -0.85144190362E+03  0.85315657503E+03  0.00000000000E+00 0.  1.
          5    1    4    4  501    0 -0.24371281765E+01 -0.59004546868E+02 -0.80030109538E+02  0.99547812520E+02  0.41800000000E+01 0.  1.
         -5    1    4    4    0  501 -0.11772710619E+03 -0.13999640404E+03 -0.25429813708E+02  0.18472361111E+03  0.41800000000E+01 0.  1.
</event>
<event>
11    1  0.9338590E-009  0.1677814E+03  0.7561462E-02  0.1079979E+00
         22   -1    0    0    0    0  0.00000000000E+00  0.00000000000E+00  0.62834952338E+03  0.62834952338E+03  0.00000000000E+00 0.  1.
         22   -1    0    0    0    0 -0.00000000000E+00 -0.00000000000E+00 -0.74906186706E+03  0.74906186706E+03  0.00000000000E+00 0. -1.
         24    2    1    2    0    0 -0.11389991484E+02  0.11660274948E+03 -0.62057836566E+03  0.63685689990E+03  0.82117415499E+02 0.  0.
         25    2    1    2    0    0  0.89861708407E+02 -0.59999677788E+02 -0.52837782051E+02  0.17353855080E+03  0.12509480177E+03 0.  0.
        -24    2    1    2    0    0 -0.78471716923E+02 -0.56603071695E+02  0.55270380403E+03  0.56701593975E+03  0.81632486519E+02 0.  0.
        -13    1    3    3    0    0  0.27514723627E+02  0.15575207689E+02 -0.20427579939E+03  0.20670812593E+03  0.00000000000E+00 0.  1.
         14    1    3    3    0    0 -0.38904715111E+02  0.10102754179E+03 -0.41630256627E+03  0.43014877396E+03  0.00000000000E+00 0. -1.
         11    1    5    5    0    0 -0.47646246360E+01 -0.49999323429E+02  0.17185358807E+03  0.17904270363E+03  0.00000000000E+00 0. -1.
        -12    1    5    5    0    0 -0.73707092287E+02 -0.66037482659E+01  0.38085021596E+03  0.38797323611E+03  0.00000000000E+00 0.  1.
          5    1    4    4  501    0  0.27583465428E+02 -0.84101565474E+02 -0.58831776174E+02  0.10636057149E+03  0.41800000000E+01 0. -1.
         -5    1    4    4    0  501  0.62278242979E+02  0.24101887686E+02  0.59939941238E+01  0.67177979309E+02  0.41800000000E+01 0. -1.
</event>
<event>
11    1  0.6930157E-009  0.3315366E+03  0.7561462E-02  0.9876623E-01
         22   -1    0    0    0    0  0.00000000000E+00  0.00000000000E+00  0.63844022836E+03  0.63844022836E+03  0.00000000000E+00 0. -1.
         22   -1    0    0    0    0 -0.00000000000E+00 -0.00000000000E+00 -0.27105290118E+03  0.27105290118E+03  0.00000000000E+00 0.  1.
         24    2    1    2    0    0  0.21554744711E+03 -0.28111696522E+03  0.11901183335E+03  0.38228144186E+03  0.80547093175E+02 0.  0.
         25    2    1    2    0    0 -0.16297577050E+03  0.21862814583E+03  0.59033410268E+02  0.30576466094E+03  0.12509083273E+03 0.  0.
        -24    2    1    2    0    0 -0.52571676610E+02  0.62488819395E+02  0.18934208357E+03  0.22144702674E+03  0.80744828398E+02 0.  0.
        -11    1    3    3    0    0  0.22060061254E+03 -0.28110585778E+03  0.12035120899E+03  0.37705377208E+03  0.00000000000E+00 0.  1.
         12    1    3    3    0    0 -0.50531654298E+01 -0.11107446138E-01 -0.13393756436E+01  0.52276697821E+01  0.00000000000E+00 0. -1.
         11    1    5    5    0    0  0.20104982315E+02  0.21448481585E+02  0.68924303992E+02  0.74932018236E+02  0.00000000000E+00 0. -1.
        -12    1    5    5    0    0 -0.72676658925E+02  0.41040337810E+02  0.12041777958E+03  0.14651500851E+03  0.00000000000E+00 0.  1.
          5    1    4    4  501    0 -0.29150833928E+02  0.83406919558E+02  0.73384453189E+02  0.11493143921E+03  0.41800000000E+01 0. -1.
         -5    1    4    4    0  501 -0.13382493658E+03  0.13522122627E+03 -0.14351042921E+02  0.19083322173E+03  0.41800000000E+01 0. -1.
</event>
<event>
11    1  0.6930157E-009  0.1507628E+03  0.7561462E-02  0.1096102E+00
         22   -1    0    0    0    0  0.00000000000E+00  0.00000000000E+00  0.39242915376E+03  0.39242915376E+03  0.00000000000E+00 0.  1.
         22   -1    0    0    0    0 -0.00000000000E+00 -0.00000000000E+00 -0.87935454519E+03  0.87935454519E+03  0.00000000000E+00 0.  1.
        -24    2    1    2    0    0  0.33108179415E+02  0.37445762663E+02 -0.64689718139E+03  0.65387974067E+03  0.81144410024E+02 0.  0.
         25    2    1    2    0    0 -0.11562364461E+03 -0.29054548681E+02 -0.18558989295E+03  0.25358339213E+03  0.12509170400E+03 0.  0.
         24    2    1    2    0    0  0.82515465197E+02 -0.83912139822E+01  0.34556168291E+03  0.36432056614E+03  0.80233308230E+02 0.  0.
        -11    1    5    5    0    0  0.53011032517E+02 -0.25605543570E+02  0.30789011439E+03  0.31346791856E+03  0.00000000000E+00 0.  1.
         12    1    5    5    0    0  0.29504432680E+02  0.17214329588E+02  0.37671568522E+02  0.50852647580E+02  0.00000000000E+00 0. -1.
         13    1    3    3    0    0 -0.22418418815E+02 -0.70156005296E+01 -0.12916107690E+03  0.13127980781E+03  0.00000000000E+00 0. -1.
        -14    1    3    3    0    0  0.55526598230E+02  0.44461363193E+02 -0.51773610450E+03  0.52259993286E+03  0.00000000000E+00 0.  1.
          5    1    4    4  501    0 -0.13447737896E+03 -0.41570884518E+02 -0.18227271705E+03  0.23033262833E+03  0.41800000000E+01 0.  1.
         -5    1    4    4    0  501  0.18853734349E+02  0.12516335837E+02 -0.33171759009E+01  0.23250763807E+02  0.41800000000E+01 0.  1.
</event>
<event>
11    1  0.6930157E-009  0.1365019E+03  0.7561462E-02  0.1111529E+00
         22   -1    0    0    0    0  0.00000000000E+00  0.00000000000E+00  0.11891029124E+03  0.11891029124E+03  0.00000000000E+00 0.  1.
         22   -1    0    0    0    0 -0.00000000000E+00 -0.00000000000E+00 -0.20074553601E+04  0.20074553601E+04  0.00000000000E+00 0. -1.
        -24    2    1    2    0    0 -0.50685550110E+00 -0.39328100461E+02 -0.15941833896E+04  0.15967134045E+04  0.80784032107E+02 0.  0.
         25    2    1    2    0    0  0.46158628232E+02  0.72817981168E+01 -0.37883640956E+03  0.40168231546E+03  0.12509202131E+03 0.  0.
         24    2    1    2    0    0 -0.45651772731E+02  0.32046302344E+02  0.84474730337E+02  0.12796993140E+03  0.78289676397E+02 0.  0.
        -11    1    5    5    0    0 -0.90090725699E+01  0.42460427914E+02  0.78093009466E+02  0.89345226256E+02  0.00000000000E+00 0.  1.
         12    1    5    5    0    0 -0.36642700161E+02 -0.10414125570E+02  0.63817208713E+01  0.38624705148E+02  0.00000000000E+00 0. -1.
         13    1    3    3    0    0  0.39047275850E+02 -0.17592129316E+02 -0.61424239941E+03  0.61573362585E+03  0.00000000000E+00 0. -1.
        -14    1    3    3    0    0 -0.39554131351E+02 -0.21735971145E+02 -0.97994099023E+03  0.98097977863E+03  0.00000000000E+00 0.  1.
          5    1    4    4  501    0  0.14011324911E+02 -0.10882561872E+02 -0.35918299389E+03  0.35964516246E+03  0.41800000000E+01 0. -1.
         -5    1    4    4    0  501  0.32147303321E+02  0.18164359988E+02 -0.19653415672E+02  0.42037152998E+02  0.41800000000E+01 0. -1.
</event>
<event>
11    1  0.6930157E-009  0.1691496E+03  0.7561462E-02  0.1078774E+00
         22   -1    0    0    0    0  0.00000000000E+00  0.00000000000E+00  0.80087549991E+03  0.80087549991E+03  0.00000000000E+00 0. -1.
         22   -1    0    0    0    0 -0.00000000000E+00 -0.00000000000E+00 -0.33344986311E+03  0.33344986311E+03  0.00000000000E+00 0.  1.
         24    2    1    2    0    0 -0.12117537308E+02 -0.11348511948E+03 -0.29432228567E+03  0.32585958759E+03  0.80827940299E+02 0.  0.
         25    2    1    2    0    0  0.59893167361E+02  0.99818419435E+02  0.43521790022E+03  0.46756197962E+03  0.12509466718E+03 0.  0.
        -24    2    1    2    0    0 -0.47775630054E+02  0.13666700041E+02  0.32653002225E+03  0.34090379582E+03  0.84405290459E+02 0.  0.
        -13    1    3    3    0    0 -0.22636649273E+01 -0.10859114174E+03 -0.29546674186E+03  0.31479796027E+03  0.00000000000E+00 0.  1.
         14    1    3    3    0    0 -0.98538723802E+01 -0.48939777327E+01  0.11444561993E+01  0.11061627318E+02  0.00000000000E+00 0. -1.
         13    1    5    5    0    0 -0.13483534631E+02 -0.21985004975E+02  0.23879969838E+03  0.24018834712E+03  0.00000000000E+00 0. -1.
        -14    1    5    5    0    0 -0.34292095423E+02  0.35651705016E+02  0.87730323869E+02  0.10071544869E+03  0.00000000000E+00 0.  1.
          5    1    4    4  501    0  0.82043271837E+01  0.11389073865E+03  0.33338352633E+03  0.35242085546E+03  0.41800000000E+01 0. -1.
         -5    1    4    4    0  501  0.51688840177E+02 -0.14072319212E+02  0.10183437389E+03  0.11514112416E+03  0.41800000000E+01 0. -1.
</event>
<event>
11    1  0.6930157E-009  0.1613863E+03  0.7561462E-02  0.1085781E+00
         22   -1    0    0    0    0  0.00000000000E+00  0.00000000000E+00  0.74112910896E+03  0.74112910896E+03  0.00000000000E+00 0.  1.
         22   -1    0    0    0    0 -0.00000000000E+00 -0.00000000000E+00 -0.15227623064E+03  0.15227623064E+03  0.00000000000E+00 0.  1.
        -24    2    1    2    0    0  0.64842945355E+01  0.34356842525E+02 -0.69556707136E+02  0.11197349338E+03  0.80482849156E+02 0.  0.
         25    2    1    2    0    0 -0.10647547890E+02  0.71497078643E+02  0.41616222339E+02  0.15034209678E+03  0.12508250705E+03 0.  0.
         24    2    1    2    0    0  0.41632533545E+01 -0.10585392117E+03  0.61679336312E+03  0.63108974944E+03  0.81350069156E+02 0.  0.
        -13    1    5    5    0    0  0.73219133985E+00 -0.15563048400E+02  0.33070500684E+03  0.33107181416E+03  0.00000000000E+00 0.  1.
         14    1    5    5    0    0  0.34310620146E+01 -0.90290872768E+02  0.28608835628E+03  0.30001793528E+03  0.00000000000E+00 0. -1.
         11    1    3    3    0    0  0.10999843993E+02  0.74802300367E+01  0.16794060775E+02  0.21424072595E+02  0.00000000000E+00 0. -1.
        -12    1    3    3    0    0 -0.45155494570E+01  0.26876612489E+02 -0.86350767911E+02  0.90549420785E+02  0.00000000000E+00 0.  1.
          5    1    4    4  501    0 -0.25064754915E+02 -0.31068898487E+02  0.18204206422E+02  0.44072484881E+02  0.41800000000E+01 0. -1.
         -5    1    4    4    0  501  0.14417207025E+02  0.10256597713E+03  0.23412015917E+02  0.10626961189E+03  0.41800000000E+01 0. -1.
</event>
<event>
11    1  0.6930157E-009  0.1373631E+03  0.7561462E-02  0.1110539E+00
         22   -1    0    0    0    0  0.00000000000E+00  0.00000000000E+00  0.21763256989E+03  0.21763256989E+03  0.00000000000E+00 0.  1.
         22   -1    0    0    0    0 -0.00000000000E+00 -0.00000000000E+00 -0.51895942060E+03  0.51895942060E+03  0.00000000000E+00 0.  1.
        -24    2    1    2    0    0 -0.40516693713E+02 -0.22962214906E+02 -0.34027999276E+03  0.35359182492E+03  0.84070443078E+02 0.  0.
         25    2    1    2    0    0 -0.67079446421E+01 -0.14673622297E+02 -0.13329612097E+03  0.18351130501E+03  0.12509289142E+03 0.  0.
         24    2    1    2    0    0  0.47224638355E+02  0.37635837203E+02  0.17224926302E+03  0.19948886056E+03  0.80494559842E+02 0.  0.
        -11    1    5    5    0    0  0.66283589560E+02  0.43095411495E+02  0.15087960165E+03  0.17033902351E+03  0.00000000000E+00 0.  1.
         12    1    5    5    0    0 -0.19058951206E+02 -0.54595742923E+01  0.21369661376E+02  0.29149837046E+02  0.00000000000E+00 0. -1.
         11    1    3    3    0    0 -0.38173598007E+02 -0.65780884575E+01 -0.52025280666E+02  0.64862351645E+02  0.00000000000E+00 0. -1.
        -12    1    3    3    0    0 -0.23430957056E+01 -0.16384126449E+02 -0.28825471209E+03  0.28872947328E+03  0.00000000000E+00 0.  1.
          5    1    4    4  501    0 -0.64436697867E+02 -0.20292957783E+02 -0.77888461957E+02  0.10318903563E+03  0.41800000000E+01 0.  1.
         -5    1    4    4    0  501  0.57728753225E+02  0.56193354860E+01 -0.55407659018E+02  0.80322269378E+02  0.41800000000E+01 0.  1.
</event>
<event>
11    1  0.6930157E-009  0.1360963E+03  0.7561462E-02  0.1111998E+00
         22   -1    0    0    0    0  0.00000000000E+00  0.00000000000E+00  0.89843470907E+03  0.89843470907E+03  0.00000000000E+00 0.  1.
         22   -1    0    0    0    0 -0.00000000000E+00 -0.00000000000E+00 -0.20009643951E+03  0.20009643951E+03  0.00000000000E+00 0.  1.
         24    2    1    2    0    0  0.45515345722E+02 -0.30206390837E+02 -0.14416279868E+03  0.17114082012E+03  0.74311473171E+02 0.  0.
         25    2    1    2    0    0 -0.19840826860E+02  0.49750508995E+02  0.75592624655E+02  0.15566181181E+03  0.12509030017E+03 0.  0.
        -24    2    1    2    0    0 -0.25674518862E+02 -0.19544118158E+02  0.76690844358E+03  0.77172851665E+03  0.79844781360E+02 0.  0.
        -13    1    3    3    0    0  0.41949781809E+02 -0.53319419544E+02 -0.11745758614E+03  0.13564302133E+03  0.00000000000E+00 0.  1.
         14    1    3    3    0    0  0.35655639137E+01  0.23113028707E+02 -0.26705212540E+02  0.35497798788E+02  0.00000000000E+00 0. -1.
         13    1    5    5    0    0 -0.41048659476E+02  0.18317528663E+02  0.43393722215E+03  0.43625913981E+03  0.00000000000E+00 0. -1.
        -14    1    5    5    0    0  0.15374140614E+02 -0.37861646820E+02  0.33297122143E+03  0.33546937685E+03  0.00000000000E+00 0.  1.
          5    1    4    4  501    0  0.19149777434E+02 -0.35389651316E+02  0.11328852924E+02  0.42011387797E+02  0.41800000000E+01 0.  1.
         -5    1    4    4    0  501 -0.38990604295E+02  0.85140160311E+02  0.64263771731E+02  0.11365042401E+03  0.41800000000E+01 0.  1.
</event>
<event>
11    1  0.6930157E-009  0.1271540E+03  0.7561462E-02  0.1122816E+00
         22   -1    0    0    0    0  0.00000000000E+00  0.00000000000E+00  0.20991543280E+03  0.20991543280E+03  0.00000000000E+00 0. -1.
         22   -1    0    0    0    0 -0.00000000000E+00 -0.00000000000E+00 -0.68654949869E+03  0.68654949869E+03  0.00000000000E+00 0. -1.
         24    2    1    2    0    0 -0.11588948866E+01  0.27981172036E+02 -0.47585069181E+03  0.48342052412E+03  0.80481259999E+02 0.  0.
         25    2    1    2    0    0 -0.79224662740E+01 -0.56344301892E+01 -0.17678147945E+03  0.21677845492E+03  0.12508674897E+03 0.  0.
        -24    2    1    2    0    0  0.90813611607E+01 -0.22346741847E+02  0.17599810537E+03  0.19626595245E+03  0.83445449262E+02 0.  0.
        -13    1    3    3    0    0  0.54953360815E+01 -0.66854919449E+01 -0.28600724656E+01  0.91145233392E+01  0.00000000000E+00 0.  1.
         14    1    3    3    0    0 -0.66542309681E+01  0.34666663981E+02 -0.47299061935E+03  0.47430600078E+03  0.00000000000E+00 0. -1.
         13    1    5    5    0    0 -0.19708189796E+02  0.89946733301E+01  0.13648470957E+03  0.13819331692E+03  0.00000000000E+00 0. -1.
        -14    1    5    5    0    0  0.28789550956E+02 -0.31341415177E+02  0.39513395803E+02  0.58072635530E+02  0.00000000000E+00 0.  1.
          5    1    4    4  501    0 -0.70005053318E+01  0.29523314791E+01 -0.19552754018E+03  0.19571973509E+03  0.41800000000E+01 0. -1.
         -5    1    4    4    0  501 -0.92196094227E+00 -0.85867616683E+01  0.18746060731E+02  0.21058719830E+02  0.41800000000E+01 0. -1.
</event>
<event>
11    1  0.6930157E-009  0.1309419E+03  0.7561462E-02  0.1118117E+00
         22   -1    0    0    0    0  0.00000000000E+00  0.00000000000E+00  0.18680159730E+04  0.18680159730E+04  0.00000000000E+00 0.  1.
         22   -1    0    0    0    0 -0.00000000000E+00 -0.00000000000E+00 -0.14706051559E+03  0.14706051559E+03  0.00000000000E+00 0.  1.
         24    2    1    2    0    0 -0.22777853704E+02 -0.65716450170E+01 -0.12685398604E+03  0.15223994878E+03  0.80765407782E+02 0.  0.
         25    2    1    2    0    0 -0.23858678838E+02 -0.11681736768E+02  0.10477965834E+04  0.10555715151E+04  0.12509134240E+03 0.  0.
        -24    2    1    2    0    0  0.46636532542E+02  0.18253381785E+02  0.80001286008E+03  0.80726502464E+03  0.95645656518E+02 0.  0.
        -11    1    3    3    0    0  0.14511067422E+02 -0.18152896489E+02 -0.10490353571E+03  0.10744696614E+03  0.00000000000E+00 0.  1.
         12    1    3    3    0    0 -0.37288921126E+02  0.11581251472E+02 -0.21950450331E+02  0.44792982643E+02  0.00000000000E+00 0. -1.
         13    1    5    5    0    0  0.63929939965E+02  0.24049920911E+02  0.33488773128E+03  0.34178242858E+03  0.00000000000E+00 0. -1.
        -14    1    5    5    0    0 -0.17293407423E+02 -0.57965391263E+01  0.46512512879E+03  0.46548259607E+03  0.00000000000E+00 0.  1.
          5    1    4    4  501    0  0.24958970719E+02  0.23865961650E+02  0.10062962979E+03  0.10647219889E+03  0.41800000000E+01 0. -1.
         -5    1    4    4    0  501 -0.48817649557E+02 -0.35547698417E+02  0.94716695357E+03  0.94909931625E+03  0.41800000000E+01 0. -1.
</event>
<event>
11    1  0.6930157E-009  0.1775007E+03  0.7561462E-02  0.1071683E+00
         22   -1    0    0    0    0  0.00000000000E+00  0.00000000000E+00  0.52186858217E+03  0.52186858217E+03  0.00000000000E+00 0.  1.
         22   -1    0    0    0    0 -0.00000000000E+00 -0.00000000000E+00 -0.47942808035E+03  0.47942808035E+03  0.00000000000E+00 0.  1.
         24    2    1    2    0    0  0.27051069090E+01 -0.40731498699E+02 -0.41650337110E+03  0.42616529143E+03  0.80470024819E+02 0.  0.
         25    2    1    2    0    0  0.12399711902E+03  0.30790864319E+02  0.15318112069E+03  0.23544966029E+03  0.12509485978E+03 0.  0.
        -24    2    1    2    0    0 -0.12670222593E+03  0.99406343800E+01  0.30576275222E+03  0.33968171079E+03  0.75766310002E+02 0.  0.
        -11    1    3    3    0    0  0.52550518014E+01 -0.64242292055E+02 -0.34123049432E+03  0.34726493907E+03  0.00000000000E+00 0.  1.
         12    1    3    3    0    0 -0.25499448924E+01  0.23510793356E+02 -0.75272876784E+02  0.78900352360E+02  0.00000000000E+00 0. -1.
         11    1    5    5    0    0 -0.42282481678E+02  0.14949468172E+02  0.37676473814E+02  0.58573129800E+02  0.00000000000E+00 0. -1.
        -12    1    5    5    0    0 -0.84419744250E+02 -0.50088337922E+01  0.26808627841E+03  0.28110858099E+03  0.00000000000E+00 0.  1.
          5    1    4    4  501    0  0.14428588736E+03  0.23449572355E+02  0.15536556340E+03  0.21336407951E+03  0.41800000000E+01 0. -1.
         -5    1    4    4    0  501 -0.20288768339E+02  0.73412919640E+01 -0.21844427103E+01  0.22085580779E+02  0.41800000000E+01 0. -1.
</event>
<event>
11    1  0.6930157E-009  0.1503776E+03  0.7561462E-02  0.1096494E+00
         22   -1    0    0    0    0  0.00000000000E+00  0.00000000000E+00  0.37203009590E+03  0.37203009590E+03  0.00000000000E+00 0. -1.
         22   -1    0    0    0    0 -0.00000000000E+00 -0.00000000000E+00 -0.91494947913E+03  0.91494947913E+03  0.00000000000E+00 0. -1.
         24    2    1    2    0    0 -0.37032210890E+02 -0.25809182244E+02 -0.79054663454E+03  0.79623464413E+03  0.83595027442E+02 0.  0.
         25    2    1    2    0    0 -0.35138981505E+01 -0.51286669213E+02 -0.69019388887E+02  0.15183642387E+03  0.12509178091E+03 0.  0.
        -24    2    1    2    0    0  0.40546109040E+02  0.77095851456E+02  0.31664664019E+03  0.33890850703E+03  0.83702593291E+02 0.  0.
        -11    1    3    3    0    0  0.10935841612E+01  0.19008228090E+02 -0.52493346280E+02  0.55839592273E+02  0.00000000000E+00 0.  1.
         12    1    3    3    0    0 -0.38125795051E+02 -0.44817410334E+02 -0.73805328826E+03  0.74039505186E+03  0.00000000000E+00 0. -1.
         11    1    5    5    0    0  0.62345338099E+02  0.75071052601E+02  0.27596112185E+03  0.29270658499E+03  0.00000000000E+00 0. -1.
        -12    1    5    5    0    0 -0.21799229059E+02  0.20247988555E+01  0.40685518333E+02  0.46201922038E+02  0.00000000000E+00 0.  1.
          5    1    4    4  501    0 -0.21430631895E+02 -0.78573178198E+02 -0.82746627863E+02  0.11617871207E+03  0.41800000000E+01 0.  1.
         -5    1    4    4    0  501  0.17916733745E+02  0.27286508985E+02  0.13727238976E+02  0.35657711796E+02  0.41800000000E+01 0.  1.
</event>
<event>
11    1  0.6930157E-009  0.1785335E+03  0.7561462E-02  0.1070835E+00
         22   -1    0    0    0    0  0.00000000000E+00  0.00000000000E+00  0.20956199546E+04  0.20956199546E+04  0.00000000000E+00 0. -1.
         22   -1    0    0    0    0 -0.00000000000E+00 -0.00000000000E+00 -0.85762166823E+02  0.85762166823E+02  0.00000000000E+00 0. -1.
         24    2    1    2    0    0 -0.23436237528E+02 -0.12594395665E+03 -0.50772743408E+00  0.15122197509E+03  0.80353534571E+02 0.  0.
         25    2    1    2    0    0  0.61235931113E+00  0.12013066788E+03  0.93425393209E+03  0.95021568220E+03  0.12509069005E+03 0.  0.
        -24    2    1    2    0    0  0.22823878217E+02  0.58132887713E+01  0.10761115831E+04  0.10799444641E+04  0.87801950561E+02 0.  0.
        -11    1    3    3    0    0  0.17686081322E+02 -0.84064931291E+02 -0.22067289358E+02  0.88694280565E+02  0.00000000000E+00 0.  1.
         12    1    3    3    0    0 -0.41122318850E+02 -0.41879025357E+02  0.21559561924E+02  0.62527694526E+02  0.00000000000E+00 0. -1.
         13    1    5    5    0    0 -0.30015051711E+02 -0.31968398557E+01  0.61272189159E+03  0.61346494565E+03  0.00000000000E+00 0. -1.
        -14    1    5    5    0    0  0.52838929928E+02  0.90101286270E+01  0.46338969154E+03  0.46647951847E+03  0.00000000000E+00 0.  1.
          5    1    4    4  501    0 -0.11970451600E+02  0.10887795406E+03  0.37501212438E+03  0.39070355312E+03  0.41800000000E+01 0. -1.
         -5    1    4    4    0  501  0.12582810912E+02  0.11252713813E+02  0.55924180771E+03  0.55951212908E+03  0.41800000000E+01 0. -1.
</event>
<event>
11    1  0.6930157E-009  0.1334420E+03  0.7561462E-02  0.1115111E+00
         22   -1    0    0    0    0  0.00000000000E+00  0.00000000000E+00  0.35756930899E+03  0.35756930899E+03  0.00000000000E+00 0.  1.
         22   -1    0    0    0    0 -0.00000000000E+00 -0.00000000000E+00 -0.26555097067E+04  0.26555097067E+04  0.00000000000E+00 0.  1.
        -24    2    1    2    0    0  0.44996363114E+02 -0.15078355868E+02 -0.23793526444E+04  0.23811671777E+04  0.79913029384E+02 0.  0.
         25    2    1    2    0    0 -0.20004474118E+02  0.31307133518E+02 -0.25448652564E+03  0.28599238092E+03  0.12509170483E+03 0.  0.
         24    2    1    2    0    0 -0.24991888996E+02 -0.16228777651E+02  0.33589877228E+03  0.34591945711E+03  0.77099402418E+02 0.  0.
        -11    1    5    5    0    0 -0.47679606434E+02 -0.16939575348E+02  0.29347283842E+03  0.29780295662E+03  0.00000000000E+00 0.  1.
         12    1    5    5    0    0  0.22687717438E+02  0.71079769736E+00  0.42425933856E+02  0.48116500491E+02  0.00000000000E+00 0. -1.
         13    1    3    3    0    0  0.45097908350E+01  0.20443970000E+02 -0.18961861896E+03  0.19077084363E+03  0.00000000000E+00 0. -1.
        -14    1    3    3    0    0  0.40486572279E+02 -0.35522325868E+02 -0.21897340254E+04  0.21903963340E+04  0.00000000000E+00 0.  1.
          5    1    4    4  501    0  0.44352896843E+02 -0.19214105346E+02 -0.98535933227E+02  0.10983243528E+03  0.41800000000E+01 0. -1.
         -5    1    4    4    0  501 -0.64357370961E+02  0.50521238865E+02 -0.15595059241E+03  0.17615994563E+03  0.41800000000E+01 0. -1.
</event>
<event>
11    1  0.6930157E-009  0.1650357E+03  0.7561462E-02  0.1082434E+00
         22   -1    0    0    0    0  0.00000000000E+00  0.00000000000E+00  0.46461176644E+03  0.46461176644E+03  0.00000000000E+00 0. -1.
         22   -1    0    0    0    0 -0.00000000000E+00 -0.00000000000E+00 -0.32371936594E+04  0.32371936594E+04  0.00000000000E+00 0.  1.
         24    2    1    2    0    0  0.51078206957E+02 -0.63445371229E+02 -0.29535846318E+04  0.29558083485E+04  0.80662986775E+02 0.  0.
         25    2    1    2    0    0 -0.78995952473E+02  0.16454953170E+03 -0.22706117395E+03  0.31704940331E+03  0.12508652420E+03 0.  0.
        -24    2    1    2    0    0  0.27917745516E+02 -0.10110416047E+03  0.40806391276E+03  0.42894767406E+03  0.80489119773E+02 0.  0.
        -13    1    3    3    0    0  0.10356787552E+02 -0.44013647278E+02 -0.23875932144E+04  0.23880213193E+04  0.00000000000E+00 0.  1.
         14    1    3    3    0    0  0.40721419405E+02 -0.19431723951E+02 -0.56599141736E+03  0.56778702910E+03  0.00000000000E+00 0. -1.
         11    1    5    5    0    0 -0.25173335471E+02 -0.15588650952E+02  0.12693246210E+03  0.13034014267E+03  0.00000000000E+00 0. -1.
        -12    1    5    5    0    0  0.53091080986E+02 -0.85515509519E+02  0.28113145067E+03  0.29860753139E+03  0.00000000000E+00 0.  1.
          5    1    4    4  501    0 -0.79040445883E+02  0.17853835647E+03 -0.17250677851E+03  0.26057512899E+03  0.41800000000E+01 0.  1.
         -5    1    4    4    0  501  0.44493410652E-01 -0.13988824774E+02 -0.54554395438E+02  0.56474274319E+02  0.41800000000E+01 0.  1.
</event>
<event>
11    1  0.6930157E-009  0.2155663E+03  0.7561462E-02  0.1044031E+00
         22   -1    0    0    0    0  0.00000000000E+00  0.00000000000E+00  0.13596435487E+04  0.13596435487E+04  0.00000000000E+00 0.  1.
         22   -1    0    0    0    0 -0.00000000000E+00 -0.00000000000E+00 -0.36839810563E+03  0.36839810563E+03  0.00000000000E+00 0. -1.
        -24    2    1    2    0    0 -0.86563118311E+02  0.12550089169E+02 -0.12306260746E+03  0.17043495582E+03  0.79075853583E+02 0.  0.
         25    2    1    2    0    0  0.70853543946E+02  0.16295208712E+03 -0.15924143875E+03  0.26940597863E+03  0.12509251823E+03 0.  0.
         24    2    1    2    0    0  0.15709574365E+02 -0.17550217629E+03  0.12735494893E+04  0.12882007198E+04  0.80529425704E+02 0.  0.
        -11    1    5    5    0    0 -0.15334915083E+02 -0.98287119446E+02  0.90068331083E+03  0.90615999905E+03  0.00000000000E+00 0.  1.
         12    1    5    5    0    0  0.31044489449E+02 -0.77215056845E+02  0.37286617843E+03  0.38204072080E+03  0.00000000000E+00 0. -1.
         13    1    3    3    0    0 -0.82139383263E+02  0.11399538733E+02 -0.13456081967E+03  0.15806151321E+03  0.00000000000E+00 0. -1.
        -14    1    3    3    0    0 -0.44237350476E+01  0.11505504361E+01  0.11498212210E+02  0.12373442613E+02  0.00000000000E+00 0.  1.
          5    1    4    4  501    0  0.70141883754E+02  0.31962878257E+02 -0.23432011226E+02  0.80672430192E+02  0.41800000000E+01 0.  1.
         -5    1    4    4    0  501  0.71166019181E+00  0.13098920886E+03 -0.13580942753E+03  0.18873354843E+03  0.41800000000E+01 0.  1.
</event>
<event>
11    1  0.6930157E-009  0.1449625E+03  0.7561462E-02  0.1102140E+00
         22   -1    0    0    0    0  0.00000000000E+00  0.00000000000E+00  0.29438537439E+03  0.29438537439E+03  0.00000000000E+00 0. -1.
         22   -1    0    0    0    0 -0.00000000000E+00 -0.00000000000E+00 -0.19624239030E+04  0.19624239030E+04  0.00000000000E+00 0. -1.
        -24    2    1    2    0    0  0.27190686912E+01 -0.40797800578E+01 -0.18239763275E+04  0.18256838426E+04  0.78789670616E+02 0.  0.
         25    2    1    2    0    0 -0.19921444944E+02  0.74941218647E+02 -0.85009345598E+02  0.16996182365E+03  0.12508949771E+03 0.  0.
         24    2    1    2    0    0  0.17202376253E+02 -0.70861438589E+02  0.24094714445E+03  0.26116361111E+03  0.69524385115E+02 0.  0.
        -13    1    5    5    0    0 -0.69800558514E+01  0.49024665903E+01  0.12544311625E+01  0.86214242384E+01  0.00000000000E+00 0.  1.
         14    1    5    5    0    0  0.24182432104E+02 -0.75763905180E+02  0.23969271328E+03  0.25254218687E+03  0.00000000000E+00 0. -1.
         13    1    3    3    0    0 -0.72782144977E+01 -0.20618657321E+02 -0.17056174059E+04  0.17057575551E+04  0.00000000000E+00 0. -1.
        -14    1    3    3    0    0  0.99972831889E+01  0.16538877264E+02 -0.11835892154E+03  0.11992628753E+03  0.00000000000E+00 0.  1.
          5    1    4    4  501    0  0.33254563472E+02 -0.18253884689E+02 -0.33867373306E+02  0.51024912275E+02  0.41800000000E+01 0.  1.
         -5    1    4    4    0  501 -0.53176008416E+02  0.93195103336E+02 -0.51141972291E+02  0.11893691137E+03  0.41800000000E+01 0.  1.
</event>
<event>
11    1  0.6930157E-009  0.1655217E+03  0.7561462E-02  0.1081996E+00
         22   -1    0    0    0    0  0.00000000000E+00  0.00000000000E+00  0.54700542390E+03  0.54700542390E+03  0.00000000000E+00 0.  1.
         22   -1    0    0    0    0 -0.00000000000E+00 -0.00000000000E+00 -0.40018836865E+03  0.40018836865E+03  0.00000000000E+00 0.  1.
        -24    2    1    2    0    0  0.51986388872E+02 -0.21816981500E+02 -0.17636397407E+03  0.20150580563E+03  0.79509578300E+02 0.  0.
         25    2    1    2    0    0  0.56883911302E+02  0.40268557320E+02 -0.17689363597E+03  0.22758681012E+03  0.12508821535E+03 0.  0.
         24    2    1    2    0    0 -0.10887030017E+03 -0.18451575820E+02  0.50007466529E+03  0.51810117680E+03  0.78491755190E+02 0.  0.
        -11    1    5    5    0    0 -0.34394100867E+02 -0.35628674752E+02  0.11034831896E+03  0.12095085009E+03  0.00000000000E+00 0.  1.
         12    1    5    5    0    0 -0.74476199307E+02  0.17177098932E+02  0.38972634632E+03  0.39715032671E+03  0.00000000000E+00 0. -1.
         11    1    3    3    0    0 -0.97995005921E+01  0.77374519682E+01 -0.91984468764E+02  0.92828017692E+02  0.00000000000E+00 0. -1.
        -12    1    3    3    0    0  0.61785889464E+02 -0.29554433468E+02 -0.84379505306E+02  0.10867778793E+03  0.00000000000E+00 0.  1.
          5    1    4    4  501    0 -0.11293320393E+02  0.35481728205E+01 -0.14199040331E+03  0.14254429364E+03  0.41800000000E+01 0. -1.
         -5    1    4    4    0  501  0.68177231695E+02  0.36720384500E+02 -0.34903232657E+02  0.85042516480E+02  0.41800000000E+01 0. -1.
</event>
<event>
11    1  0.6930157E-009  0.1449585E+03  0.7561462E-02  0.1102144E+00
         22   -1    0    0    0    0  0.00000000000E+00  0.00000000000E+00  0.24821813710E+03  0.24821813710E+03  0.00000000000E+00 0. -1.
         22   -1    0    0    0    0 -0.00000000000E+00 -0.00000000000E+00 -0.61027696638E+03  0.61027696638E+03  0.00000000000E+00 0. -1.
         24    2    1    2    0    0  0.73221190965E+02  0.80028622371E+01 -0.53325392403E+03  0.54400366685E+03  0.78452874003E+02 0.  0.
         25    2    1    2    0    0  0.24203328076E+01 -0.62709188235E+02  0.77318550169E+02  0.15988719175E+03  0.12508979010E+03 0.  0.
        -24    2    1    2    0    0 -0.75641523772E+02  0.54706325998E+02  0.93876544573E+02  0.15460424488E+03  0.79845129421E+02 0.  0.
        -13    1    3    3    0    0  0.67097684973E+02 -0.10067659470E+02 -0.22131369287E+03  0.23148046947E+03  0.00000000000E+00 0.  1.
         14    1    3    3    0    0  0.61235059920E+01  0.18070521707E+02 -0.31194023116E+03  0.31252319737E+03  0.00000000000E+00 0. -1.
         11    1    5    5    0    0 -0.38302924125E+02  0.69730786319E+02  0.45411957323E+02  0.91606454059E+02  0.00000000000E+00 0. -1.
        -12    1    5    5    0    0 -0.37338599647E+02 -0.15024460322E+02  0.48464587250E+02  0.62997790825E+02  0.00000000000E+00 0.  1.
          5    1    4    4  501    0 -0.11353375836E+01 -0.20870937688E+01 -0.33290223020E+02  0.33635640333E+02  0.41800000000E+01 0. -1.
         -5    1    4    4    0  501  0.35556703912E+01 -0.60622094466E+02  0.11060877319E+03  0.12625155142E+03  0.41800000000E+01 0. -1.
</event>
<event>
11    1  0.6930157E-009  0.1574250E+03  0.7561462E-02  0.1089524E+00
         22   -1    0    0    0    0  0.00000000000E+00  0.00000000000E+00  0.80986841165E+03  0.80986841165E+03  0.00000000000E+00 0. -1.
         22   -1    0    0    0    0 -0.00000000000E+00 -0.00000000000E+00 -0.42174636660E+03  0.42174636660E+03  0.00000000000E+00 0. -1.
        -24    2    1    2    0    0  0.69231695286E+02 -0.20923863644E+02 -0.37889066812E+03  0.39412808646E+03  0.80919555386E+02 0.  0.
         25    2    1    2    0    0  0.17407963056E+02  0.78770146096E+02  0.16874881237E+03  0.22501514096E+03  0.12509148208E+03 0.  0.
         24    2    1    2    0    0 -0.86639658342E+02 -0.57846282453E+02  0.59826390081E+03  0.61247155083E+03  0.79681131911E+02 0.  0.
        -13    1    5    5    0    0 -0.45135688035E+02  0.10171561941E+02  0.14333797952E+03  0.15062027546E+03  0.00000000000E+00 0.  1.
         14    1    5    5    0    0 -0.41503970307E+02 -0.68017844394E+02  0.45492592129E+03  0.46185127537E+03  0.00000000000E+00 0. -1.
         13    1    3    3    0    0  0.74402035530E+02 -0.40652109799E+02 -0.25924649472E+03  0.27275813818E+03  0.00000000000E+00 0. -1.
        -14    1    3    3    0    0 -0.51703402444E+01  0.19728246155E+02 -0.11964417341E+03  0.12136994828E+03  0.00000000000E+00 0.  1.
          5    1    4    4  501    0 -0.48608315930E+01 -0.30486593616E+02  0.67507962480E+02  0.74349562691E+02  0.41800000000E+01 0. -1.
         -5    1    4    4    0  501  0.22268794649E+02  0.10925673971E+03  0.10124084989E+03  0.15066557827E+03  0.41800000000E+01 0. -1.
</event>
<event>
11    1  0.6930157E-009  0.2361113E+03  0.7561462E-02  0.1031569E+00
         22   -1    0    0    0    0  0.00000000000E+00  0.00000000000E+00  0.12591130888E+04  0.12591130888E+04  0.00000000000E+00 0. -1.
         22   -1    0    0    0    0 -0.00000000000E+00 -0.00000000000E+00 -0.10062816461E+03  0.10062816461E+03  0.00000000000E+00 0.  1.
         24    2    1    2    0    0 -0.22776404702E+02 -0.90788505612E+02  0.31570334093E+02  0.12701297423E+03  0.79839164985E+02 0.  0.
         25    2    1    2    0    0 -0.20164830672E+02 -0.13215109859E+03  0.18425563270E+03  0.25974247241E+03  0.12508189532E+03 0.  0.
        -24    2    1    2    0    0  0.42941235374E+02  0.22293960421E+03  0.94265895736E+03  0.97298580673E+03  0.80928693126E+02 0.  0.
        -11    1    3    3    0    0 -0.49029950847E+02 -0.35914502494E+02  0.61593695905E+01  0.61087849882E+02  0.00000000000E+00 0.  1.
         12    1    3    3    0    0  0.26253546144E+02 -0.54874003118E+02  0.25410964503E+02  0.65925124348E+02  0.00000000000E+00 0. -1.
         13    1    5    5    0    0  0.15572341603E+02  0.19233353827E+03  0.85016274536E+03  0.87178631635E+03  0.00000000000E+00 0. -1.
        -14    1    5    5    0    0  0.27368893771E+02  0.30606065932E+02  0.92496212000E+02  0.10119949038E+03  0.00000000000E+00 0.  1.
          5    1    4    4  501    0 -0.52775390017E+02 -0.87197933667E+02  0.48391754826E+02  0.11290684551E+03  0.41800000000E+01 0.  1.
         -5    1    4    4    0  501  0.32610559345E+02 -0.44953164927E+02  0.13586387787E+03  0.14683562690E+03  0.41800000000E+01 0.  1.
</event>
<event>
11    1  0.6930157E-009  0.1596742E+03  0.7561462E-02  0.1087384E+00
         22   -1    0    0    0    0  0.00000000000E+00  0.00000000000E+00  0.22591457078E+03  0.22591457078E+03  0.00000000000E+00 0.  1.
         22   -1    0    0    0    0 -0.00000000000E+00 -0.00000000000E+00 -0.35200496036E+03  0.35200496036E+03  0.00000000000E+00 0.  1.
         24    2    1    2    0    0  0.26037523938E+02 -0.28544568553E+02 -0.24747149173E+03  0.26198127569E+03  0.76806930302E+02 0.  0.
         25    2    1    2    0    0  0.71010410726E+02  0.65489748096E+02  0.47896789883E+02  0.16514381658E+03  0.12508793762E+03 0.  0.
        -24    2    1    2    0    0 -0.97047934664E+02 -0.36945179542E+02  0.73484312279E+02  0.15079443887E+03  0.80967714121E+02 0.  0.
        -13    1    3    3    0    0  0.51705874695E+02 -0.27364982597E+02 -0.19448623876E+03  0.20309415751E+03  0.00000000000E+00 0.  1.
         14    1    3    3    0    0 -0.25668350757E+02 -0.11795859564E+01 -0.52985252977E+02  0.58887118172E+02  0.00000000000E+00 0. -1.
         11    1    5    5    0    0 -0.30705440229E+02 -0.16820019245E+02 -0.15250573093E+02  0.38187918072E+02  0.00000000000E+00 0. -1.
        -12    1    5    5    0    0 -0.66342494435E+02 -0.20125160298E+02  0.88734885371E+02  0.11260652080E+03  0.00000000000E+00 0.  1.
          5    1    4    4  501    0  0.25379117151E+02  0.29016320471E+02  0.86640974025E+02  0.94921953314E+02  0.41800000000E+01 0. -1.
         -5    1    4    4    0  501  0.45631293576E+02  0.36473427625E+02 -0.38744184142E+02  0.70221863269E+02  0.41800000000E+01 0. -1.
</event>
<event>
11    1  0.6930157E-009  0.1257971E+03  0.7561462E-02  0.1124544E+00
         22   -1    0    0    0    0  0.00000000000E+00  0.00000000000E+00  0.24320783096E+03  0.24320783096E+03  0.00000000000E+00 0. -1.
         22   -1    0    0    0    0 -0.00000000000E+00 -0.00000000000E+00 -0.72072167275E+03  0.72072167275E+03  0.00000000000E+00 0. -1.
         24    2    1    2    0    0 -0.11373948281E+02 -0.58373009549E+01 -0.63690735545E+03  0.64218267804E+03  0.81142909525E+02 0.  0.
         25    2    1    2    0    0  0.14688616287E+02  0.25155822971E+02 -0.14792655643E+02  0.12928592666E+03  0.12508979692E+03 0.  0.
        -24    2    1    2    0    0 -0.33146680068E+01 -0.19318522016E+02  0.17418616931E+03  0.19246089901E+03  0.79474421992E+02 0.  0.
        -11    1    3    3    0    0 -0.10711110311E+02 -0.31981361888E+02 -0.12099308345E+03  0.12560597770E+03  0.00000000000E+00 0.  1.
         12    1    3    3    0    0 -0.66283796957E+00  0.26144060933E+02 -0.51591427200E+03  0.51657670034E+03  0.00000000000E+00 0. -1.
         11    1    5    5    0    0  0.86141414879E+00 -0.49853779794E+02  0.12286367828E+03  0.13259571952E+03  0.00000000000E+00 0. -1.
        -12    1    5    5    0    0 -0.41760821556E+01  0.30535257778E+02  0.51322491032E+02  0.59865179491E+02  0.00000000000E+00 0.  1.
          5    1    4    4  501    0  0.45353225994E+02  0.62653065926E+02  0.29916647532E+01  0.77516090175E+02  0.41800000000E+01 0. -1.
         -5    1    4    4    0  501 -0.30664609707E+02 -0.37497242956E+02 -0.17784320396E+02  0.51769836485E+02  0.41800000000E+01 0. -1.
</event>
<event>
11    1  0.6930157E-009  0.1463475E+03  0.7561462E-02  0.1100670E+00
         22   -1    0    0    0    0  0.00000000000E+00  0.00000000000E+00  0.38615325022E+02  0.38615325022E+02  0.00000000000E+00 0. -1.
         22   -1    0    0    0    0 -0.00000000000E+00 -0.00000000000E+00 -0.14866140144E+04  0.14866140144E+04  0.00000000000E+00 0. -1.
        -24    2    1    2    0    0 -0.49446209836E+02 -0.33966782796E+02 -0.74520874089E+03  0.75199991497E+03  0.81050198102E+02 0.  0.
         25    2    1    2    0    0 -0.28633163171E+02 -0.13562166424E+01 -0.60947434082E+03  0.62283799124E+03  0.12508594588E+03 0.  0.
         24    2    1    2    0    0  0.78079373007E+02  0.35322999438E+02 -0.93315607614E+02  0.15039143316E+03  0.81028869952E+02 0.  0.
        -11    1    5    5    0    0  0.83280090476E+01 -0.24525473159E+02 -0.23507970733E+02  0.34978268344E+02  0.00000000000E+00 0.  1.
         12    1    5    5    0    0  0.69751363959E+02  0.59848472597E+02 -0.69807636881E+02  0.11541316482E+03  0.00000000000E+00 0. -1.
         13    1    3    3    0    0 -0.14078128066E+02  0.11727293955E+02 -0.48954314055E+03  0.48988591486E+03  0.00000000000E+00 0. -1.
        -14    1    3    3    0    0 -0.35368081770E+02 -0.45694076751E+02 -0.25566560034E+03  0.26211400011E+03  0.00000000000E+00 0.  1.
          5    1    4    4  501    0 -0.78089206525E+02 -0.23726443835E+01 -0.39776617979E+03  0.40538741939E+03  0.41800000000E+01 0. -1.
         -5    1    4    4    0  501  0.49456043354E+02  0.10164277411E+01 -0.21170816103E+03  0.21745057185E+03  0.41800000000E+01 0. -1.
</event>
<event>
11    1  0.6930157E-009  0.1284007E+03  0.7561462E-02  0.1121250E+00
         22   -1    0    0    0    0  0.00000000000E+00  0.00000000000E+00  0.92006457672E+03  0.92006457672E+03  0.00000000000E+00 0.  1.
         22   -1    0    0    0    0 -0.00000000000E+00 -0.00000000000E+00 -0.10386481789E+04  0.10386481789E+04  0.00000000000E+00 0. -1.
         24    2    1    2    0    0  0.13986741950E+01 -0.14431590132E+02 -0.95408138674E+03  0.95753804190E+03  0.79984886544E+02 0.  0.
         25    2    1    2    0    0 -0.11141513702E+02  0.41194326127E+02 -0.25484125480E+02  0.13460653426E+03  0.12509345539E+03 0.  0.
        -24    2    1    2    0    0  0.97428395074E+01 -0.26762735996E+02  0.86098191001E+03  0.86656817949E+03  0.94018048108E+02 0.  0.
        -13    1    3    3    0    0  0.57715045977E+01 -0.47357383154E+02 -0.51706993693E+03  0.51926616651E+03  0.00000000000E+00 0.  1.
         14    1    3    3    0    0 -0.43728304026E+01  0.32925793022E+02 -0.43701144981E+03  0.43827187539E+03  0.00000000000E+00 0. -1.
         11    1    5    5    0    0  0.15162424027E+02 -0.60466862621E+02  0.47361974481E+03  0.47770472392E+03  0.00000000000E+00 0. -1.
        -12    1    5    5    0    0 -0.54195845191E+01  0.33704126625E+02  0.38736216520E+03  0.38886345557E+03  0.00000000000E+00 0.  1.
          5    1    4    4  501    0  0.89721726458E+01 -0.33190054809E+02 -0.43260147969E+02  0.55416535642E+02  0.41800000000E+01 0. -1.
         -5    1    4    4    0  501 -0.20113686348E+02  0.74384380937E+02  0.17776022489E+02  0.79189998620E+02  0.41800000000E+01 0. -1.
</event>
<event>
11    1  0.6930157E-009  0.1464398E+03  0.7561462E-02  0.1100573E+00
         22   -1    0    0    0    0  0.00000000000E+00  0.00000000000E+00  0.64887521476E+03  0.64887521476E+03  0.00000000000E+00 0.  1.
         22   -1    0    0    0    0 -0.00000000000E+00 -0.00000000000E+00 -0.28267944580E+04  0.28267944580E+04  0.00000000000E+00 0.  1.
        -24    2    1    2    0    0  0.10615157410E+01 -0.75854440662E+02 -0.27534741911E+04  0.27558250365E+04  0.84832116796E+02 0.  0.
         25    2    1    2    0    0  0.71374983913E+02  0.10616754462E+03  0.55086800630E+02  0.18720794068E+03  0.12508525729E+03 0.  0.
         24    2    1    2    0    0 -0.72436499654E+02 -0.30313103956E+02  0.52046814722E+03  0.53263669554E+03  0.81540336148E+02 0.  0.
        -13    1    5    5    0    0 -0.26180749250E+02 -0.21894904489E+02  0.42348714399E+03  0.42486018830E+03  0.00000000000E+00 0.  1.
         14    1    5    5    0    0 -0.46255750403E+02 -0.84181994665E+01  0.96981003222E+02  0.10777650724E+03  0.00000000000E+00 0. -1.
         11    1    3    3    0    0  0.33628272649E+02 -0.22496732017E+02 -0.55972122453E+03  0.56118162200E+03  0.00000000000E+00 0. -1.
        -12    1    3    3    0    0 -0.32566756908E+02 -0.53357708645E+02 -0.21937529666E+04  0.21946434145E+04  0.00000000000E+00 0.  1.
          5    1    4    4  501    0  0.33717901244E+02  0.11772300933E+03  0.74182039962E+02  0.14323425304E+03  0.41800000000E+01 0.  1.
         -5    1    4    4    0  501  0.37657082669E+02 -0.11555464715E+02 -0.19095239331E+02  0.43973687644E+02  0.41800000000E+01 0.  1.
</event>
<event>
11    1  0.6930157E-009  0.3296979E+03  0.7561462E-02  0.9883510E-01
         22   -1    0    0    0    0  0.00000000000E+00  0.00000000000E+00  0.25250613829E+03  0.25250613829E+03  0.00000000000E+00 0.  1.
         22   -1    0    0    0    0 -0.00000000000E+00 -0.00000000000E+00 -0.95900278567E+03  0.95900278567E+03  0.00000000000E+00 0.  1.
         24    2    1    2    0    0  0.26991707711E+02 -0.10730565004E+03 -0.84360296107E+03  0.85443908661E+03  0.78467458060E+02 0.  0.
         25    2    1    2    0    0  0.16974932948E+01  0.70968989502E+01 -0.45488581813E+02  0.13329846946E+03  0.12508406544E+03 0.  0.
        -24    2    1    2    0    0 -0.28689201006E+02  0.10020875109E+03  0.18259489551E+03  0.22377136789E+03  0.76601991940E+02 0.  0.
        -13    1    3    3    0    0  0.21265604608E+02 -0.10797959519E+03 -0.84090034736E+03  0.84807146698E+03  0.00000000000E+00 0.  1.
         14    1    3    3    0    0  0.57261031032E+01  0.67394514549E+00 -0.27026137106E+01  0.63676196240E+01  0.00000000000E+00 0. -1.
         13    1    5    5    0    0  0.12899827632E+02  0.27267090607E+02  0.99023521783E+01  0.31748328487E+02  0.00000000000E+00 0. -1.
        -14    1    5    5    0    0 -0.41589028637E+02  0.72941660487E+02  0.17269254333E+03  0.19202303940E+03  0.00000000000E+00 0.  1.
          5    1    4    4  501    0  0.26591587272E+02 -0.67090452486E+01  0.36822933551E+02  0.46103412423E+02  0.41800000000E+01 0.  1.
         -5    1    4    4    0  501 -0.24894093977E+02  0.13805944199E+02 -0.82311515364E+02  0.87195057037E+02  0.41800000000E+01 0.  1.
</event>
<event>
11    1  0.6930157E-009  0.2147222E+03  0.7561462E-02  0.1044575E+00
         22   -1    0    0    0    0  0.00000000000E+00  0.00000000000E+00  0.93095641791E+03  0.93095641791E+03  0.00000000000E+00 0. -1.
         22   -1    0    0    0    0 -0.00000000000E+00 -0.00000000000E+00 -0.22778802447E+03  0.22778802447E+03  0.00000000000E+00 0. -1.
        -24    2    1    2    0    0  0.15740578328E+03  0.39631382837E+02  0.10349968669E+03  0.21021158822E+03  0.84436363980E+02 0.  0.
         25    2    1    2    0    0 -0.16660473526E+03 -0.69619281375E+02 -0.10153513715E+03  0.24199209630E+03  0.12508720336E+03 0.  0.
         24    2    1    2    0    0  0.91989519741E+01  0.29987898539E+02  0.70120384389E+03  0.70654075785E+03  0.80802951926E+02 0.  0.
        -11    1    5    5    0    0 -0.29471314804E+02  0.52136870276E+01  0.12597173164E+03  0.12947825339E+03  0.00000000000E+00 0.  1.
         12    1    5    5    0    0  0.38670266778E+02  0.24774211511E+02  0.57523211225E+03  0.57706250446E+03  0.00000000000E+00 0. -1.
         11    1    3    3    0    0  0.15451685581E+03  0.12412355583E+02  0.93728622031E+02  0.18114795027E+03  0.00000000000E+00 0. -1.
        -12    1    3    3    0    0  0.28889274789E+01  0.27219027253E+02  0.97710646589E+01  0.29063637955E+02  0.00000000000E+00 0.  1.
          5    1    4    4  501    0 -0.17028564420E+03 -0.39932664511E+02 -0.49494830564E+02  0.18182142054E+03  0.41800000000E+01 0.  1.
         -5    1    4    4    0  501  0.36809089408E+01 -0.29686616865E+02 -0.52040306587E+02  0.60170675758E+02  0.41800000000E+01 0.  1.
</event>
<event>
11    1  0.6930157E-009  0.1368818E+03  0.7561462E-02  0.1111091E+00
         22   -1    0    0    0    0  0.00000000000E+00  0.00000000000E+00  0.78915258923E+03  0.78915258923E+03  0.00000000000E+00 0.  1.
         22   -1    0    0    0    0 -0.00000000000E+00 -0.00000000000E+00 -0.72407502973E+03  0.72407502973E+03  0.00000000000E+00 0. -1.
        -24    2    1    2    0    0 -0.25876404320E+02  0.12729417373E+02 -0.57198989146E+03  0.57829643186E+03  0.80141754466E+02 0.  0.
         25    2    1    2    0    0  0.91762001694E+01 -0.65644689047E+02 -0.11138553166E+03  0.18013108390E+03  0.12508814042E+03 0.  0.
         24    2    1    2    0    0  0.16700204151E+02  0.52915271673E+02  0.74845298262E+03  0.75480010320E+03  0.80389090044E+02 0.  0.
        -11    1    5    5    0    0  0.40531360864E+02  0.59068224326E+02  0.60814372004E+03  0.61234845518E+03  0.00000000000E+00 0.  1.
         12    1    5    5    0    0 -0.23831156713E+02 -0.61529526531E+01  0.14030926258E+03  0.14245164802E+03  0.00000000000E+00 0. -1.
         11    1    3    3    0    0 -0.35822157707E+02  0.28412563023E+02 -0.17505920496E+03  0.18093155049E+03  0.00000000000E+00 0. -1.
        -12    1    3    3    0    0  0.99457533868E+01 -0.15683145650E+02 -0.39693068649E+03  0.39736488137E+03  0.00000000000E+00 0.  1.
          5    1    4    4  501    0 -0.48941180683E+02 -0.39322009769E+02 -0.95306863061E+02  0.11420302170E+03  0.41800000000E+01 0.  1.
         -5    1    4    4    0  501  0.58117380852E+02 -0.26322679277E+02 -0.16078668599E+02  0.65928062199E+02  0.41800000000E+01 0.  1.
</event>
<event>
11    1  0.6930157E-009  0.2331693E+03  0.7561462E-02  0.1033268E+00
         22   -1    0    0    0    0  0.00000000000E+00  0.00000000000E+00  0.23681340428E+03  0.23681340428E+03  0.00000000000E+00 0. -1.
         22   -1    0    0    0    0 -0.00000000000E+00 -0.00000000000E+00 -0.42185303649E+03  0.42185303649E+03  0.00000000000E+00 0. -1.
         24    2    1    2    0    0 -0.44793833180E+02 -0.23780480458E+02 -0.15256814308E+03  0.17998282523E+03  0.80899816779E+02 0.  0.
         25    2    1    2    0    0 -0.13732997435E+03 -0.84726909866E+02 -0.12047266263E+03  0.23706325521E+03  0.12508858229E+03 0.  0.
        -24    2    1    2    0    0  0.18212380752E+03  0.10850739032E+03  0.88001173500E+02  0.24162036034E+03  0.75453674326E+02 0.  0.
        -13    1    3    3    0    0  0.39917807749E+01  0.11289954719E+02 -0.98278754243E+02  0.99005610582E+02  0.00000000000E+00 0.  1.
         14    1    3    3    0    0 -0.48785613955E+02 -0.35070435176E+02 -0.54289388834E+02  0.80977214649E+02  0.00000000000E+00 0. -1.
         11    1    5    5    0    0  0.11139900762E+03  0.10563937337E+03  0.69099057397E+02  0.16835704867E+03  0.00000000000E+00 0. -1.
        -12    1    5    5    0    0  0.70724799905E+02  0.28680169556E+01  0.18902116103E+02  0.73263311664E+02  0.00000000000E+00 0.  1.
          5    1    4    4  501    0 -0.39257046609E+02 -0.12211062040E+02  0.24121856630E+02  0.47849368981E+02  0.41800000000E+01 0.  1.
         -5    1    4    4    0  501 -0.98072927736E+02 -0.72515847826E+02 -0.14459451926E+03  0.18921388623E+03  0.41800000000E+01 0.  1.
</event>
<event>
11    1  0.6930157E-009  0.1818898E+03  0.7561462E-02  0.1068124E+00
         22   -1    0    0    0    0  0.00000000000E+00  0.00000000000E+00  0.13170214221E+04  0.13170214221E+04  0.00000000000E+00 0. -1.
         22   -1    0    0    0    0 -0.00000000000E+00 -0.00000000000E+00 -0.45561268851E+03  0.45561268851E+03  0.00000000000E+00 0.  1.
         24    2    1    2    0    0  0.94296993509E+02 -0.89726066786E+02 -0.40900218562E+03  0.43667327872E+03  0.80362145677E+02 0.  0.
         25    2    1    2    0    0 -0.14950199662E+03  0.12222141331E+03  0.41569297796E+03  0.47511863255E+03  0.12509253457E+03 0.  0.
        -24    2    1    2    0    0  0.55205003111E+02 -0.32495346523E+02  0.85471794128E+03  0.86084219937E+03  0.80018704994E+02 0.  0.
        -11    1    3    3    0    0  0.35836232274E+02 -0.82656898774E+02 -0.29365936312E+03  0.30716806476E+03  0.00000000000E+00 0.  1.
         12    1    3    3    0    0  0.58460761235E+02 -0.70691680115E+01 -0.11534282250E+03  0.12950521396E+03  0.00000000000E+00 0. -1.
         13    1    5    5    0    0 -0.26037218676E+01 -0.40256034812E+02  0.24036187576E+03  0.24372352989E+03  0.00000000000E+00 0. -1.
        -14    1    5    5    0    0  0.57808724978E+02  0.77606882887E+01  0.61435606553E+03  0.61711866947E+03  0.00000000000E+00 0.  1.
          5    1    4    4  501    0 -0.12538136318E+03  0.74812886981E+02  0.17199649611E+03  0.22564955432E+03  0.41800000000E+01 0. -1.
         -5    1    4    4    0  501 -0.24120633440E+02  0.47408526329E+02  0.24369648185E+03  0.24946907823E+03  0.41800000000E+01 0. -1.
</event>
<event>
11    1  0.6930157E-009  0.1554214E+03  0.7561462E-02  0.1091464E+00
         22   -1    0    0    0    0  0.00000000000E+00  0.00000000000E+00  0.44600259962E+03  0.44600259962E+03  0.00000000000E+00 0. -1.
         22   -1    0    0    0    0 -0.00000000000E+00 -0.00000000000E+00 -0.78649676783E+03  0.78649676783E+03  0.00000000000E+00 0. -1.
         24    2    1    2    0    0 -0.32892712635E+02  0.62108154270E+02 -0.72887366718E+03  0.73672500513E+03  0.81040465813E+02 0.  0.
         25    2    1    2    0    0  0.10330237330E+03 -0.92917517631E+02  0.18196966676E+03  0.26092212646E+03  0.12514931500E+03 0.  0.
        -24    2    1    2    0    0 -0.70409660661E+02  0.30809363360E+02  0.20640983221E+03  0.23485223587E+03  0.81509610942E+02 0.  0.
        -13    1    3    3    0    0 -0.27095333620E+02 -0.13875798209E+02 -0.17398923006E+03  0.17663223674E+03  0.00000000000E+00 0.  1.
         14    1    3    3    0    0 -0.57973790152E+01  0.75983952480E+02 -0.55488443712E+03  0.56009276839E+03  0.00000000000E+00 0. -1.
         13    1    5    5    0    0 -0.31720607074E+02  0.57052921472E+02  0.11976357536E+03  0.13639848513E+03  0.00000000000E+00 0. -1.
        -14    1    5    5    0    0 -0.38689053587E+02 -0.26243558111E+02  0.86646256847E+02  0.98453750743E+02  0.00000000000E+00 0.  1.
          5    1    4    4  501    0  0.35631234906E+02  0.21795514410E+02  0.89122597804E+02  0.98513649758E+02  0.41800000000E+01 0. -1.
         -5    1    4    4    0  501  0.67671138390E+02 -0.11471303204E+03  0.92847068955E+02  0.16240847670E+03  0.41800000000E+01 0. -1.
</event>
<event>
11    1  0.6930157E-009  0.2017471E+03  0.7561462E-02  0.1053295E+00
         22   -1    0    0    0    0  0.00000000000E+00  0.00000000000E+00  0.13790776056E+04  0.13790776056E+04  0.00000000000E+00 0.  1.
         22   -1    0    0    0    0 -0.00000000000E+00 -0.00000000000E+00 -0.40601522229E+03  0.40601522229E+03  0.00000000000E+00 0.  1.
        -24    2    1    2    0    0 -0.15937594174E+03  0.15398828526E+02 -0.35042595176E+03  0.39364774328E+03  0.80761274113E+02 0.  0.
         25    2    1    2    0    0  0.13711352947E+03  0.84890784412E+01  0.23521546687E+03  0.29973674499E+03  0.12507444196E+03 0.  0.
         24    2    1    2    0    0  0.22262412275E+02 -0.23887906967E+02  0.10882728682E+04  0.10917083396E+04  0.80143720995E+02 0.  0.
        -13    1    5    5    0    0 -0.17841681673E+02 -0.17582812912E+01  0.76463781104E+03  0.76484795825E+03  0.00000000000E+00 0.  1.
         14    1    5    5    0    0  0.40104093947E+02 -0.22129625676E+02  0.32363505714E+03  0.32686038135E+03  0.00000000000E+00 0. -1.
         13    1    3    3    0    0 -0.22916453051E+02 -0.14717869092E+02 -0.16959426329E+02  0.32084289496E+02  0.00000000000E+00 0. -1.
        -14    1    3    3    0    0 -0.13645948869E+03  0.30116697618E+02 -0.33346652543E+03  0.36156345379E+03  0.00000000000E+00 0.  1.
          5    1    4    4  501    0  0.10427831226E+03  0.29799179340E+02  0.68285504924E+02  0.12822768843E+03  0.41800000000E+01 0.  1.
         -5    1    4    4    0  501  0.32835217201E+02 -0.21310100899E+02  0.16692996194E+03  0.17150905656E+03  0.41800000000E+01 0.  1.
</event>
<event>
11    1  0.6930157E-009  0.2333116E+03  0.7561462E-02  0.1033185E+00
         22   -1    0    0    0    0  0.00000000000E+00  0.00000000000E+00  0.13877105933E+04  0.13877105933E+04  0.00000000000E+00 0.  1.
         22   -1    0    0    0    0 -0.00000000000E+00 -0.00000000000E+00 -0.11363081946E+03  0.11363081946E+03  0.00000000000E+00 0. -1.
        -24    2    1    2    0    0 -0.96329827719E+02 -0.19841148890E+03  0.10666063767E+03  0.25786309421E+03  0.80438355839E+02 0.  0.
         25    2    1    2    0    0  0.86691522150E+02  0.13454376972E+03  0.25605201967E+03  0.32682738848E+03  0.12504422857E+03 0.  0.
         24    2    1    2    0    0  0.96383055683E+01  0.63867719185E+02  0.91136711645E+03  0.91665093003E+03  0.74073774629E+02 0.  0.
        -11    1    5    5    0    0 -0.19656517166E+02  0.58132592641E+02  0.75290414701E+03  0.75540084166E+03  0.00000000000E+00 0.  1.
         12    1    5    5    0    0  0.29294822734E+02  0.57351265439E+01  0.15846296944E+03  0.16125008837E+03  0.00000000000E+00 0. -1.
         13    1    3    3    0    0 -0.34536270402E+02 -0.93382912867E+01  0.13886640865E+02  0.38377030265E+02  0.00000000000E+00 0. -1.
        -14    1    3    3    0    0 -0.61793557317E+02 -0.18907319761E+03  0.92773996809E+02  0.21948606394E+03  0.00000000000E+00 0.  1.
          5    1    4    4  501    0  0.11687853791E+03  0.98991745005E+02  0.17000914864E+03  0.22886795587E+03  0.41800000000E+01 0. -1.
         -5    1    4    4    0  501 -0.30187015757E+02  0.35552024712E+02  0.86042871032E+02  0.97959432608E+02  0.41800000000E+01 0. -1.
</event>
<event>
11    1  0.6930157E-009  0.2906958E+03  0.7561462E-02  0.1004208E+00
         22   -1    0    0    0    0  0.00000000000E+00  0.00000000000E+00  0.98939709404E+02  0.98939709404E+02  0.00000000000E+00 0. -1.
         22   -1    0    0    0    0 -0.00000000000E+00 -0.00000000000E+00 -0.64870554913E+03  0.64870554913E+03  0.00000000000E+00 0. -1.
        -24    2    1    2    0    0  0.71064466215E+02 -0.11135875590E+03 -0.31878307579E+03  0.35307966296E+03  0.74777457260E+02 0.  0.
         25    2    1    2    0    0  0.40365965301E+02  0.26512737472E+02 -0.18371873616E+03  0.22744780760E+03  0.12509034640E+03 0.  0.
         24    2    1    2    0    0 -0.11143043152E+03  0.84846018428E+02 -0.47264027776E+02  0.16711778797E+03  0.77967165039E+02 0.  0.
        -11    1    5    5    0    0 -0.53208818862E+02  0.72371445867E+00  0.26624620580E+01  0.53280304724E+02  0.00000000000E+00 0.  1.
         12    1    5    5    0    0 -0.58221612654E+02  0.84122303969E+02 -0.49926489834E+02  0.11383748325E+03  0.00000000000E+00 0. -1.
         13    1    3    3    0    0  0.28181225248E+02 -0.33777946063E+01 -0.27672718470E+02  0.39640513372E+02  0.00000000000E+00 0. -1.
        -14    1    3    3    0    0  0.42883240967E+02 -0.10798096129E+03 -0.29111035732E+03  0.31343914959E+03  0.00000000000E+00 0.  1.
          5    1    4    4  501    0  0.47377743826E+02  0.33690825211E+02 -0.19974929075E+03  0.20807924901E+03  0.41800000000E+01 0.  1.
         -5    1    4    4    0  501 -0.70117785257E+01 -0.71780877392E+01  0.16030554585E+02  0.19368558594E+02  0.41800000000E+01 0.  1.
</event>
<event>
11    1  0.6930157E-009  0.1397514E+03  0.7561462E-02  0.1107836E+00
         22   -1    0    0    0    0  0.00000000000E+00  0.00000000000E+00  0.42267577906E+03  0.42267577906E+03  0.00000000000E+00 0. -1.
         22   -1    0    0    0    0 -0.00000000000E+00 -0.00000000000E+00 -0.16147562276E+04  0.16147562276E+04  0.00000000000E+00 0. -1.
        -24    2    1    2    0    0 -0.51089152286E+02 -0.35345417303E+02 -0.15614832883E+04  0.15646226085E+04  0.77165067297E+02 0.  0.
         25    2    1    2    0    0  0.41383244444E+02  0.77048193716E+02  0.86745036938E+02  0.17556012700E+03  0.12509060590E+03 0.  0.
         24    2    1    2    0    0  0.97059078414E+01 -0.41702776414E+02  0.28265780277E+03  0.29724927115E+03  0.81414799182E+02 0.  0.
        -11    1    5    5    0    0 -0.18065886778E+02  0.10891830729E+02  0.24508160550E+02  0.32336638280E+02  0.00000000000E+00 0.  1.
         12    1    5    5    0    0  0.27771794620E+02 -0.52594607142E+02  0.25814964222E+03  0.26491263287E+03  0.00000000000E+00 0. -1.
         11    1    3    3    0    0  0.57341627229E+01 -0.20752280668E+02 -0.96957422085E+03  0.96981323331E+03  0.00000000000E+00 0. -1.
        -12    1    3    3    0    0 -0.56823315008E+02 -0.14593136635E+02 -0.59190906742E+03  0.59480937523E+03  0.00000000000E+00 0.  1.
          5    1    4    4  501    0  0.50184965624E+02 -0.14066107007E+02  0.61074067874E+02  0.80398384982E+02  0.41800000000E+01 0. -1.
         -5    1    4    4    0  501 -0.88017211802E+01  0.91114300723E+02  0.25670969064E+02  0.95161742022E+02  0.41800000000E+01 0. -1.
</event>
<event>
11    1  0.6930157E-009  0.1375284E+03  0.7561462E-02  0.1110350E+00
         22   -1    0    0    0    0  0.00000000000E+00  0.00000000000E+00  0.10448780189E+04  0.10448780189E+04  0.00000000000E+00 0. -1.
         22   -1    0    0    0    0 -0.00000000000E+00 -0.00000000000E+00 -0.77479747789E+03  0.77479747789E+03  0.00000000000E+00 0.  1.
         24    2    1    2    0    0  0.45294422983E+01  0.56291028956E+02 -0.72257232494E+03  0.72920349970E+03  0.80235798836E+02 0.  0.
         25    2    1    2    0    0 -0.36769431139E+02 -0.79895738018E+02  0.77003977925E+02  0.17120735645E+03  0.12508807404E+03 0.  0.
        -24    2    1    2    0    0  0.32239988841E+02  0.23604709061E+02  0.91564888801E+03  0.91926464064E+03  0.70978829507E+02 0.  0.
        -11    1    3    3    0    0  0.28472358969E+02  0.63334398358E+02 -0.60750343568E+03  0.61145919373E+03  0.00000000000E+00 0.  1.
         12    1    3    3    0    0 -0.23942916670E+02 -0.70433694018E+01 -0.11506888926E+03  0.11774430597E+03  0.00000000000E+00 0. -1.
         13    1    5    5    0    0  0.51825223947E+02  0.31143279881E+02  0.68376873977E+03  0.68643677583E+03  0.00000000000E+00 0. -1.
        -14    1    5    5    0    0 -0.19585235106E+02 -0.75385708195E+01  0.23188014824E+03  0.23282786481E+03  0.00000000000E+00 0.  1.
          5    1    4    4  501    0  0.11585346517E+02 -0.99219206182E+02  0.42741039419E+02  0.10873334346E+03  0.41800000000E+01 0.  1.
         -5    1    4    4    0  501 -0.48354777656E+02  0.19323468165E+02  0.34262938506E+02  0.62474012990E+02  0.41800000000E+01 0.  1.
</event>
<event>
11    1  0.6930157E-009  0.1899873E+03  0.7561462E-02  0.1061839E+00
         22   -1    0    0    0    0  0.00000000000E+00  0.00000000000E+00  0.14072385950E+04  0.14072385950E+04  0.00000000000E+00 0. -1.
         22   -1    0    0    0    0 -0.00000000000E+00 -0.00000000000E+00 -0.28815816388E+03  0.28815816388E+03  0.00000000000E+00 0.  1.
         24    2    1    2    0    0 -0.10980454490E+02  0.14160367562E+03 -0.23620362229E+03  0.28759925311E+03  0.82152345544E+02 0.  0.
         25    2    1    2    0    0 -0.74518754483E+02 -0.16969106576E+03  0.55189781762E+03  0.59547196465E+03  0.12509019554E+03 0.  0.
        -24    2    1    2    0    0  0.85499208972E+02  0.28087390141E+02  0.80338623581E+03  0.81232554114E+03  0.79651269185E+02 0.  0.
        -13    1    3    3    0    0 -0.22020847560E+02  0.12055625971E+03 -0.23346429616E+03  0.26367462347E+03  0.00000000000E+00 0.  1.
         14    1    3    3    0    0  0.11040393070E+02  0.21047415911E+02 -0.27393261276E+01  0.23924629638E+02  0.00000000000E+00 0. -1.
         11    1    5    5    0    0  0.93902144626E+02  0.29688618804E+02  0.79191883514E+03  0.79801909019E+03  0.00000000000E+00 0. -1.
        -12    1    5    5    0    0 -0.84029356540E+01 -0.16012286629E+01  0.11467400671E+02  0.14306450957E+02  0.00000000000E+00 0.  1.
          5    1    4    4  501    0  0.33599739511E+02 -0.21921568387E+02  0.10710978437E+03  0.11445294213E+03  0.41800000000E+01 0. -1.
         -5    1    4    4    0  501 -0.10811849399E+03 -0.14776949737E+03  0.44478803326E+03  0.48101902252E+03  0.41800000000E+01 0. -1.
</event>
<event>
11    1  0.6930157E-009  0.1460517E+03  0.7561462E-02  0.1100983E+00
         22   -1    0    0    0    0  0.00000000000E+00  0.00000000000E+00  0.35371522837E+03  0.35371522837E+03  0.00000000000E+00 0.  1.
         22   -1    0    0    0    0 -0.00000000000E+00 -0.00000000000E+00 -0.55753432351E+03  0.55753432351E+03  0.00000000000E+00 0. -1.
        -24    2    1    2    0    0  0.43477468940E+02  0.10482574431E+02 -0.50464372817E+03  0.51322131811E+03  0.82040564998E+02 0.  0.
         25    2    1    2    0    0 -0.56869432161E+02  0.62393979541E+02  0.17196382955E+03  0.22879092194E+03  0.12508631536E+03 0.  0.
         24    2    1    2    0    0  0.13391963222E+02 -0.72876553972E+02  0.12886080347E+03  0.16923731183E+03  0.80906268279E+02 0.  0.
        -11    1    5    5    0    0  0.45409236493E+02 -0.59887597107E+02  0.87924784707E+02  0.11566888437E+03  0.00000000000E+00 0.  1.
         12    1    5    5    0    0 -0.32017273271E+02 -0.12988956865E+02  0.40936018766E+02  0.53568427460E+02  0.00000000000E+00 0. -1.
         11    1    3    3    0    0 -0.33363924606E+01 -0.13296947000E+02 -0.34278217829E+03  0.34305620832E+03  0.00000000000E+00 0. -1.
        -12    1    3    3    0    0  0.46813861400E+02  0.23779521431E+02 -0.16186154988E+03  0.17016510978E+03  0.00000000000E+00 0.  1.
          5    1    4    4  501    0 -0.61661715430E+02 -0.22175667003E+02  0.83763383181E+02  0.10643168757E+03  0.41800000000E+01 0.  1.
         -5    1    4    4    0  501  0.47922832688E+01  0.84569646544E+02  0.88200446372E+02  0.12235923437E+03  0.41800000000E+01 0.  1.
</event>
<event>
11    1  0.6930157E-009  0.1469145E+03  0.7561462E-02  0.1100074E+00
         22   -1    0    0    0    0  0.00000000000E+00  0.00000000000E+00  0.13215349070E+03  0.13215349070E+03  0.00000000000E+00 0.  1.
         22   -1    0    0    0    0 -0.00000000000E+00 -0.00000000000E+00 -0.64348584844E+03  0.64348584844E+03  0.00000000000E+00 0. -1.
         24    2    1    2    0    0 -0.42545512076E+01 -0.79143382531E+02 -0.51238363667E+03  0.52346353374E+03  0.72078456002E+02 0.  0.
         25    2    1    2    0    0  0.46865594428E+02  0.51849243147E+02 -0.40695116296E+02  0.14895727929E+03  0.12508977019E+03 0.  0.
        -24    2    1    2    0    0 -0.42611043221E+02  0.27294139384E+02  0.41746395229E+02  0.10321852610E+03  0.79690849958E+02 0.  0.
        -11    1    3    3    0    0 -0.28235557405E+01 -0.13483368497E+01 -0.24421567598E+03  0.24423571990E+03  0.00000000000E+00 0.  1.
         12    1    3    3    0    0 -0.14309954670E+01 -0.77795045681E+02 -0.26816796069E+03  0.27922781384E+03  0.00000000000E+00 0. -1.
         11    1    5    5    0    0 -0.38687524846E+02 -0.57738283682E+00 -0.13693070943E+02  0.41043369032E+02  0.00000000000E+00 0. -1.
        -12    1    5    5    0    0 -0.39235183740E+01  0.27871522221E+02  0.55439466171E+02  0.62175157070E+02  0.00000000000E+00 0.  1.
          5    1    4    4  501    0 -0.26680813968E+02  0.59197680745E+02 -0.36962159715E+02  0.74832512255E+02  0.41800000000E+01 0. -1.
         -5    1    4    4    0  501  0.73546408397E+02 -0.73484375980E+01 -0.37329565805E+01  0.74124767035E+02  0.41800000000E+01 0. -1.
</event>
<event>
11    1  0.6930157E-009  0.2164597E+03  0.7561462E-02  0.1043458E+00
         22   -1    0    0    0    0  0.00000000000E+00  0.00000000000E+00  0.82630296130E+03  0.82630296130E+03  0.00000000000E+00 0.  1.
         22   -1    0    0    0    0 -0.00000000000E+00 -0.00000000000E+00 -0.37444591565E+03  0.37444591565E+03  0.00000000000E+00 0. -1.
         24    2    1    2    0    0  0.11756668253E+03 -0.13230772176E+03 -0.22883287914E+03  0.30038943591E+03  0.80883054797E+02 0.  0.
         25    2    1    2    0    0  0.15734431071E+02  0.23073922202E+03  0.82402199046E+02  0.27554708489E+03  0.12509161717E+03 0.  0.
        -24    2    1    2    0    0 -0.13330111360E+03 -0.98431500255E+02  0.59828772574E+03  0.62481235616E+03  0.70599791095E+02 0.  0.
        -11    1    3    3    0    0  0.63907471517E+02 -0.30037711737E+02 -0.46476614360E+02  0.84537002103E+02  0.00000000000E+00 0.  1.
         12    1    3    3    0    0  0.53659211010E+02 -0.10227001003E+03 -0.18235626478E+03  0.21585243381E+03  0.00000000000E+00 0. -1.
         13    1    5    5    0    0 -0.77775624345E+02 -0.20582306820E+02  0.20893481861E+03  0.22388934214E+03  0.00000000000E+00 0. -1.
        -14    1    5    5    0    0 -0.55525489253E+02 -0.77849193436E+02  0.38935290714E+03  0.40092301402E+03  0.00000000000E+00 0.  1.
          5    1    4    4  501    0 -0.51686621036E+02  0.11404714289E+03  0.59835219217E+02  0.13883797555E+03  0.41800000000E+01 0. -1.
         -5    1    4    4    0  501  0.67421052107E+02  0.11669207913E+03  0.22566979829E+02  0.13670910934E+03  0.41800000000E+01 0. -1.
</event>
<event>
11    1  0.6930157E-009  0.2052587E+03  0.7561462E-02  0.1050866E+00
         22   -1    0    0    0    0  0.00000000000E+00  0.00000000000E+00  0.27102015498E+04  0.27102015498E+04  0.00000000000E+00 0. -1.
         22   -1    0    0    0    0 -0.00000000000E+00 -0.00000000000E+00 -0.33746864156E+03  0.33746864156E+03  0.00000000000E+00 0. -1.
         24    2    1    2    0    0 -0.20712455502E+02 -0.21694933702E+02 -0.31716238320E+03  0.32832420779E+03  0.79404862230E+02 0.  0.
         25    2    1    2    0    0  0.17203500573E+03  0.50249945503E+02  0.12458291868E+04  0.12648551412E+04  0.12508822992E+03 0.  0.
        -24    2    1    2    0    0 -0.15132255023E+03 -0.28555011802E+02  0.14440661046E+04  0.14544908424E+04  0.80639897866E+02 0.  0.
        -13    1    3    3    0    0  0.16707793588E+02  0.18438471909E+02 -0.53372270311E+02  0.58887408255E+02  0.00000000000E+00 0.  1.
         14    1    3    3    0    0 -0.37420249090E+02 -0.40133405611E+02 -0.26379011288E+03  0.26943679953E+03  0.00000000000E+00 0. -1.
         13    1    5    5    0    0 -0.15355807255E+03 -0.23610422296E+02  0.14379328017E+04  0.14463015854E+04  0.00000000000E+00 0. -1.
        -14    1    5    5    0    0  0.22355223165E+01 -0.49445895059E+01  0.61333029490E+01  0.81892570160E+01  0.00000000000E+00 0.  1.
          5    1    4    4  501    0  0.17928945419E+03  0.23872524604E+02  0.11743704043E+04  0.11882246946E+04  0.41800000000E+01 0.  1.
         -5    1    4    4    0  501 -0.72544484629E+01  0.26377420899E+02  0.71458782489E+02  0.76630446629E+02  0.41800000000E+01 0.  1.
</event>
<event>
11    1  0.6930157E-009  0.2061105E+03  0.7561462E-02  0.1050285E+00
         22   -1    0    0    0    0  0.00000000000E+00  0.00000000000E+00  0.19810165928E+04  0.19810165928E+04  0.00000000000E+00 0.  1.
         22   -1    0    0    0    0 -0.00000000000E+00 -0.00000000000E+00 -0.64368752065E+03  0.64368752065E+03  0.00000000000E+00 0.  1.
        -24    2    1    2    0    0  0.56847576062E+02 -0.15330779700E+03 -0.58615266820E+03  0.61369379804E+03  0.79436765960E+02 0.  0.
         25    2    1    2    0    0 -0.46226006954E+02  0.16362307475E+03  0.21752842014E+03  0.30311016948E+03  0.12509119459E+03 0.  0.
         24    2    1    2    0    0 -0.10621569108E+02 -0.10315277742E+02  0.17059533202E+04  0.17079001460E+04  0.80168292293E+02 0.  0.
        -11    1    5    5    0    0  0.16303787229E+01  0.22518636685E+02  0.13577447297E+04  0.13579324350E+04  0.00000000000E+00 0.  1.
         12    1    5    5    0    0 -0.12251947830E+02 -0.32833914427E+02  0.34820859052E+03  0.34996771090E+03  0.00000000000E+00 0. -1.
         11    1    3    3    0    0  0.18647180901E+02 -0.36770277325E+02 -0.55991512324E+02  0.69532870661E+02  0.00000000000E+00 0. -1.
        -12    1    3    3    0    0  0.38200395161E+02 -0.11653751968E+03 -0.53016115588E+03  0.54416092738E+03  0.00000000000E+00 0.  1.
          5    1    4    4  501    0 -0.52138825441E+02  0.16843526439E+03  0.14022860665E+03  0.22532294586E+03  0.41800000000E+01 0.  1.
         -5    1    4    4    0  501  0.59128184867E+01 -0.48121896475E+01  0.77299813495E+02  0.77787223617E+02  0.41800000000E+01 0.  1.
</event>
<event>
11    1  0.6930157E-009  0.1408795E+03  0.7561462E-02  0.1106580E+00
         22   -1    0    0    0    0  0.00000000000E+00  0.00000000000E+00  0.22254663924E+03  0.22254663924E+03  0.00000000000E+00 0. -1.
         22   -1    0    0    0    0 -0.00000000000E+00 -0.00000000000E+00 -0.79200876107E+03  0.79200876107E+03  0.00000000000E+00 0. -1.
        -24    2    1    2    0    0  0.80153524772E+01 -0.22996434474E+02 -0.56730281240E+03  0.57296888597E+03  0.76601445581E+02 0.  0.
         25    2    1    2    0    0  0.30749101097E+02  0.73872636330E+02 -0.18145760934E+03  0.23446840293E+03  0.12508354955E+03 0.  0.
         24    2    1    2    0    0 -0.38764453575E+02 -0.50876201856E+02  0.17929829990E+03  0.20711811141E+03  0.81602456760E+02 0.  0.
        -13    1    5    5    0    0 -0.29075830681E+02  0.16922402212E+02  0.43152130632E+02  0.54716341293E+02  0.00000000000E+00 0.  1.
         14    1    5    5    0    0 -0.96886228936E+01 -0.67798604069E+02  0.13614616927E+03  0.15240177011E+03  0.00000000000E+00 0. -1.
         11    1    3    3    0    0  0.26620180767E+02 -0.62387563565E+01 -0.50615685142E+03  0.50689477641E+03  0.00000000000E+00 0. -1.
        -12    1    3    3    0    0 -0.18604828290E+02 -0.16757678118E+02 -0.61145960973E+02  0.66074109566E+02  0.00000000000E+00 0.  1.
          5    1    4    4  501    0  0.36903314491E+02  0.41017381271E+02 -0.19148595006E+03  0.19932039950E+03  0.41800000000E+01 0. -1.
         -5    1    4    4    0  501 -0.61542133939E+01  0.32855255059E+02  0.10028340720E+02  0.35148003430E+02  0.41800000000E+01 0. -1.
</event>
<event>
11    1  0.6930157E-009  0.1340153E+03  0.7561462E-02  0.1114432E+00
         22   -1    0    0    0    0  0.00000000000E+00  0.00000000000E+00  0.29145160309E+03  0.29145160309E+03  0.00000000000E+00 0.  1.
         22   -1    0    0    0    0 -0.00000000000E+00 -0.00000000000E+00 -0.41866705705E+03  0.41866705705E+03  0.00000000000E+00 0. -1.
         24    2    1    2    0    0 -0.24405028062E+02 -0.39705862952E+02 -0.35649666878E+03  0.37096017485E+03  0.91375136259E+02 0.  0.
         25    2    1    2    0    0  0.40769500160E+02  0.79954469320E+02  0.17294776214E+03  0.23154605182E+03  0.12509107234E+03 0.  0.
        -24    2    1    2    0    0 -0.16364472097E+02 -0.40248606368E+02  0.56333452687E+02  0.10761243346E+03  0.80741759215E+02 0.  0.
        -11    1    3    3    0    0  0.16881977716E+02  0.12767642341E+02 -0.24774511183E+02  0.32585123399E+02  0.00000000000E+00 0.  1.
         12    1    3    3    0    0 -0.41287005778E+02 -0.52473505293E+02 -0.33172215760E+03  0.33837505146E+03  0.00000000000E+00 0. -1.
         11    1    5    5    0    0 -0.31146340651E+02  0.13288310923E+02  0.10069912573E+02  0.35328131600E+02  0.00000000000E+00 0. -1.
        -12    1    5    5    0    0  0.14781868553E+02 -0.53536917291E+02  0.46263540114E+02  0.72284301856E+02  0.00000000000E+00 0.  1.
          5    1    4    4  501    0  0.33886962488E+02 -0.18456783784E+02  0.85015752516E+01  0.39733213765E+02  0.41800000000E+01 0. -1.
         -5    1    4    4    0  501  0.68825376711E+01  0.98411253104E+02  0.16444618689E+03  0.19181283806E+03  0.41800000000E+01 0. -1.
</event>
<event>
11    1  0.6930157E-009  0.1833099E+03  0.7561462E-02  0.1066997E+00
         22   -1    0    0    0    0  0.00000000000E+00  0.00000000000E+00  0.18127914602E+04  0.18127914602E+04  0.00000000000E+00 0. -1.
         22   -1    0    0    0    0 -0.00000000000E+00 -0.00000000000E+00 -0.47594135747E+03  0.47594135747E+03  0.00000000000E+00 0.  1.
        -24    2    1    2    0    0  0.24885887335E+02 -0.48953226297E+00 -0.44192767107E+03  0.44991684292E+03  0.80657002517E+02 0.  0.
         25    2    1    2    0    0 -0.49588970813E+02 -0.13058855875E+03  0.31404372797E+03  0.36576251384E+03  0.12508523394E+03 0.  0.
         24    2    1    2    0    0  0.24703083478E+02  0.13107809101E+03  0.14647340458E+04  0.14730534609E+04  0.81541188228E+02 0.  0.
        -13    1    5    5    0    0 -0.15078209409E+02  0.82399409177E+01  0.42287227356E+03  0.42322122911E+03  0.00000000000E+00 0.  1.
         14    1    5    5    0    0  0.39781292887E+02  0.12283815009E+03  0.10418617723E+04  0.10498322318E+04  0.00000000000E+00 0. -1.
         11    1    3    3    0    0 -0.10684809803E+02 -0.57779396029E+01 -0.80972150365E+01  0.14598446422E+02  0.00000000000E+00 0. -1.
        -12    1    3    3    0    0  0.35570697138E+02  0.52884073399E+01 -0.43383045604E+03  0.43531839650E+03  0.00000000000E+00 0.  1.
          5    1    4    4  501    0 -0.87573944641E+02 -0.11852869373E+03  0.24591850919E+03  0.28672570966E+03  0.41800000000E+01 0.  1.
         -5    1    4    4    0  501  0.37984973828E+02 -0.12059865018E+02  0.68125218776E+02  0.79036804175E+02  0.41800000000E+01 0.  1.
</event>
<event>
11    1  0.6930157E-009  0.1660093E+03  0.7561462E-02  0.1081558E+00
         22   -1    0    0    0    0  0.00000000000E+00  0.00000000000E+00  0.25077998937E+03  0.25077998937E+03  0.00000000000E+00 0. -1.
         22   -1    0    0    0    0 -0.00000000000E+00 -0.00000000000E+00 -0.23257289074E+03  0.23257289074E+03  0.00000000000E+00 0. -1.
        -24    2    1    2    0    0 -0.89978472822E+02 -0.87210036863E+02 -0.29749100491E+02  0.15171527977E+03  0.80192275398E+02 0.  0.
         25    2    1    2    0    0  0.79735033362E+02 -0.52079536747E+02 -0.18924910984E+02  0.15835289970E+03  0.12509010710E+03 0.  0.
         24    2    1    2    0    0  0.10243439460E+02  0.13928957361E+03  0.66881110106E+02  0.17328470065E+03  0.77768831935E+02 0.  0.
        -13    1    5    5    0    0  0.51182297946E+01  0.75286257030E+01 -0.15377438503E+02  0.17870145386E+02  0.00000000000E+00 0.  1.
         14    1    5    5    0    0  0.51252096655E+01  0.13176094791E+03  0.82258548609E+02  0.15541455526E+03  0.00000000000E+00 0. -1.
         13    1    3    3    0    0 -0.16912223037E+02 -0.18907028720E+02  0.26729819485E+02  0.36850811019E+02  0.00000000000E+00 0. -1.
        -14    1    3    3    0    0 -0.73066249786E+02 -0.68303008143E+02 -0.56478919976E+02  0.11486446875E+03  0.00000000000E+00 0.  1.
          5    1    4    4  501    0  0.10189600056E+02  0.21513755089E+02 -0.47297560237E+02  0.53114981047E+02  0.41800000000E+01 0. -1.
         -5    1    4    4    0  501  0.69545433306E+02 -0.73593291836E+02  0.28372649252E+02  0.10523791865E+03  0.41800000000E+01 0. -1.
</event>
<event>
11    1  0.6930157E-009  0.1506340E+03  0.7561462E-02  0.1096233E+00
         22   -1    0    0    0    0  0.00000000000E+00  0.00000000000E+00  0.14420377382E+04  0.14420377382E+04  0.00000000000E+00 0. -1.
         22   -1    0    0    0    0 -0.00000000000E+00 -0.00000000000E+00 -0.51345800380E+03  0.51345800380E+03  0.00000000000E+00 0. -1.
        -24    2    1    2    0    0 -0.52026115000E+02 -0.65856497430E+02 -0.47670230677E+03  0.49062170919E+03  0.80129753246E+02 0.  0.
         25    2    1    2    0    0  0.13034592579E+02  0.97053618735E+02  0.20020859798E+03  0.25556966900E+03  0.12507224910E+03 0.  0.
         24    2    1    2    0    0  0.38991522421E+02 -0.31197121305E+02  0.12050734432E+04  0.12093043638E+04  0.87871734110E+02 0.  0.
        -13    1    5    5    0    0  0.23670293351E+02 -0.18802281218E+02  0.11069182656E+03  0.11474532249E+03  0.00000000000E+00 0.  1.
         14    1    5    5    0    0  0.15321229070E+02 -0.12394840087E+02  0.10943816166E+04  0.10945590413E+04  0.00000000000E+00 0. -1.
         13    1    3    3    0    0 -0.61173064225E+02 -0.59484236868E+02 -0.46985325183E+03  0.47753805762E+03  0.00000000000E+00 0. -1.
        -14    1    3    3    0    0  0.91469492255E+01 -0.63722605616E+01 -0.68490549371E+01  0.13083651567E+02  0.00000000000E+00 0.  1.
          5    1    4    4  501    0  0.22408034354E+02  0.99475474530E+02  0.67307369361E+02  0.12225074399E+03  0.41800000000E+01 0. -1.
         -5    1    4    4    0  501 -0.93734417745E+01 -0.24218557952E+01  0.13290122862E+03  0.13331892501E+03  0.41800000000E+01 0. -1.
</event>
<event>
11    1  0.6930157E-009  0.1401560E+03  0.7561462E-02  0.1107384E+00
         22   -1    0    0    0    0  0.00000000000E+00  0.00000000000E+00  0.18280926564E+04  0.18280926564E+04  0.00000000000E+00 0.  1.
         22   -1    0    0    0    0 -0.00000000000E+00 -0.00000000000E+00 -0.65534358254E+03  0.65534358254E+03  0.00000000000E+00 0.  1.
        -24    2    1    2    0    0  0.63403366135E+02  0.80568486479E+00 -0.64165850703E+03  0.64967720429E+03  0.79587650820E+02 0.  0.
         25    2    1    2    0    0 -0.33458288525E+02 -0.38431513744E+02  0.56928753099E+03  0.58509270310E+03  0.12509492384E+03 0.  0.
         24    2    1    2    0    0 -0.29945077610E+02  0.37625828879E+02  0.12451200499E+04  0.12486663315E+04  0.80816200093E+02 0.  0.
        -13    1    5    5    0    0 -0.31824660050E+02  0.11573462729E+01  0.10282770163E+04  0.10287700281E+04  0.00000000000E+00 0.  1.
         14    1    5    5    0    0  0.18795824405E+01  0.36468482606E+02  0.21684303361E+03  0.21989630347E+03  0.00000000000E+00 0. -1.
         13    1    3    3    0    0  0.29800704464E+02  0.19615056294E+02 -0.92061346565E+02  0.98732588092E+02  0.00000000000E+00 0. -1.
        -14    1    3    3    0    0  0.33602661671E+02 -0.18809371429E+02 -0.54959716046E+03  0.55094461619E+03  0.00000000000E+00 0.  1.
          5    1    4    4  501    0 -0.28101575224E+02  0.14858159055E+02  0.47871014330E+03  0.47978259360E+03  0.41800000000E+01 0. -1.
         -5    1    4    4    0  501 -0.53567133012E+01 -0.53289672798E+02  0.90577387683E+02  0.10531010950E+03  0.41800000000E+01 0. -1.
</event>
<event>
11    1  0.6930157E-009  0.1391649E+03  0.7561462E-02  0.1108495E+00
         22   -1    0    0    0    0  0.00000000000E+00  0.00000000000E+00  0.14632560239E+04  0.14632560239E+04  0.00000000000E+00 0.  1.
         22   -1    0    0    0    0 -0.00000000000E+00 -0.00000000000E+00 -0.63999166694E+02  0.63999166694E+02  0.00000000000E+00 0. -1.
        -24    2    1    2    0    0  0.36579325040E+02  0.15839965294E+01 -0.10886091744E+02  0.88313368749E+02  0.79625297745E+02 0.  0.
         25    2    1    2    0    0 -0.91164345079E+02 -0.49111658385E+00  0.49228283220E+03  0.51604325071E+03  0.12508825170E+03 0.  0.
         24    2    1    2    0    0  0.54585020040E+02 -0.10928799455E+01  0.91786011675E+03  0.92289857114E+03  0.79333850838E+02 0.  0.
        -13    1    5    5    0    0  0.20291863157E+02 -0.34258627130E+02  0.61661242014E+03  0.61789666605E+03  0.00000000000E+00 0.  1.
         14    1    5    5    0    0  0.34293156883E+02  0.33165747184E+02  0.30124769662E+03  0.30500190509E+03  0.00000000000E+00 0. -1.
         13    1    3    3    0    0  0.56639444311E+02 -0.24462738509E+01 -0.26495450814E+02  0.62578109763E+02  0.00000000000E+00 0. -1.
        -14    1    3    3    0    0 -0.20060119272E+02  0.40302703802E+01  0.15609359070E+02  0.25735258986E+02  0.00000000000E+00 0.  1.
          5    1    4    4  501    0 -0.19377065511E+02 -0.25124962891E+02  0.37448742499E+03  0.37585241559E+03  0.41800000000E+01 0. -1.
         -5    1    4    4    0  501 -0.71787279568E+02  0.24633846307E+02  0.11779540721E+03  0.14019083512E+03  0.41800000000E+01 0. -1.
</event>
<event>
11    1  0.6930157E-009  0.1279758E+03  0.7561462E-02  0.1121781E+00
         22   -1    0    0    0    0  0.00000000000E+00  0.00000000000E+00  0.30267375027E+03  0.30267375027E+03  0.00000000000E+00 0.  1.
         22   -1    0    0    0    0 -0.00000000000E+00 -0.00000000000E+00 -0.20958152427E+04  0.20958152427E+04  0.00000000000E+00 0.  1.
         24    2    1    2    0    0 -0.15722987036E+02  0.22029590068E+02 -0.18596928996E+04  0.18622486222E+04  0.93700238314E+02 0.  0.
         25    2    1    2    0    0 -0.20307133291E+02 -0.44436953338E+02 -0.20769334492E+03  0.24732782010E+03  0.12508997797E+03 0.  0.
        -24    2    1    2    0    0  0.36030120327E+02  0.22407363270E+02  0.27424475214E+03  0.28891255067E+03  0.80374239399E+02 0.  0.
        -11    1    3    3    0    0 -0.76289011345E+01 -0.10822269983E+02 -0.16321765511E+04  0.16322302582E+04  0.00000000000E+00 0.  1.
         12    1    3    3    0    0 -0.80940859015E+01  0.32851860051E+02 -0.22751634851E+03  0.23001836399E+03  0.00000000000E+00 0. -1.
         13    1    5    5    0    0  0.10972290846E+02 -0.14518977815E+02  0.96846531482E+01  0.20615149522E+02  0.00000000000E+00 0. -1.
        -14    1    5    5    0    0  0.25057829481E+02  0.36926341086E+02  0.26456009900E+03  0.26829740115E+03  0.00000000000E+00 0.  1.
          5    1    4    4  501    0 -0.21906795219E+01 -0.22534829345E+02  0.11862715605E+02  0.25900077836E+02  0.41800000000E+01 0. -1.
         -5    1    4    4    0  501 -0.18116453769E+02 -0.21902123993E+02 -0.21955606052E+03  0.22142774227E+03  0.41800000000E+01 0. -1.
</event>
<event>
11    1  0.6930157E-009  0.1733823E+03  0.7561462E-02  0.1075125E+00
         22   -1    0    0    0    0  0.00000000000E+00  0.00000000000E+00  0.37027079742E+04  0.37027079742E+04  0.00000000000E+00 0. -1.
         22   -1    0    0    0    0 -0.00000000000E+00 -0.00000000000E+00 -0.14605103124E+03  0.14605103124E+03  0.00000000000E+00 0. -1.
        -24    2    1    2    0    0  0.12435839780E+03 -0.31984358460E+02 -0.75292633850E+02  0.16887029001E+03  0.79750760796E+02 0.  0.
         25    2    1    2    0    0 -0.34770681833E+02  0.10518983241E+03  0.28839562878E+03  0.33330570018E+03  0.12508696941E+03 0.  0.
         24    2    1    2    0    0 -0.89587715964E+02 -0.73205473953E+02  0.33435539481E+04  0.33465830153E+04  0.82945007161E+02 0.  0.
        -11    1    5    5    0    0 -0.17599978737E+02  0.55584850609E+01  0.13507031952E+03  0.13632551934E+03  0.00000000000E+00 0.  1.
         12    1    5    5    0    0 -0.71987737226E+02 -0.78763959014E+02  0.32084836285E+04  0.32102574959E+04  0.00000000000E+00 0. -1.
         11    1    3    3    0    0  0.12161783790E+03 -0.26776000526E+02 -0.89590198831E+02  0.15340878862E+03  0.00000000000E+00 0. -1.
        -12    1    3    3    0    0  0.27405599015E+01 -0.52083579334E+01  0.14297564981E+02  0.15461501393E+02  0.00000000000E+00 0.  1.
          5    1    4    4  501    0 -0.43467118881E+02  0.83883771726E+02  0.80770394944E+02  0.12436722511E+03  0.41800000000E+01 0.  1.
         -5    1    4    4    0  501  0.86964370472E+01  0.21306060686E+02  0.20762523383E+03  0.20893847507E+03  0.41800000000E+01 0.  1.
</event>
<event>
11    1  0.6930157E-009  0.1332183E+03  0.7561462E-02  0.1115377E+00
         22   -1    0    0    0    0  0.00000000000E+00  0.00000000000E+00  0.37419019871E+03  0.37419019871E+03  0.00000000000E+00 0.  1.
         22   -1    0    0    0    0 -0.00000000000E+00 -0.00000000000E+00 -0.81014474845E+03  0.81014474845E+03  0.00000000000E+00 0. -1.
         24    2    1    2    0    0 -0.59841700987E+01  0.24624785475E+02 -0.35422704828E+03  0.36413979716E+03  0.80490992022E+02 0.  0.
         25    2    1    2    0    0 -0.37883039758E+02 -0.10727985011E+02 -0.43542552735E+03  0.45474269191E+03  0.12508122005E+03 0.  0.
        -24    2    1    2    0    0  0.43867209857E+02 -0.13896800463E+02  0.35369802590E+03  0.36545245809E+03  0.79597439881E+02 0.  0.
        -11    1    3    3    0    0  0.88207128245E+01  0.13823641575E+02 -0.95508412320E+01  0.18976738639E+02  0.00000000000E+00 0.  1.
         12    1    3    3    0    0 -0.14804882923E+02  0.10801143899E+02 -0.34467620704E+03  0.34516305852E+03  0.00000000000E+00 0. -1.
         11    1    5    5    0    0  0.34551360669E+02 -0.15628172768E+02  0.56163335526E+02  0.67766928258E+02  0.00000000000E+00 0. -1.
        -12    1    5    5    0    0  0.93158491880E+01  0.17313723042E+01  0.29753469037E+03  0.29768552983E+03  0.00000000000E+00 0.  1.
          5    1    4    4  501    0 -0.45811583435E+01 -0.49426719259E+02 -0.36082786958E+03  0.36425020447E+03  0.41800000000E+01 0. -1.
         -5    1    4    4    0  501 -0.33301881415E+02  0.38698734247E+02 -0.74597657773E+02  0.90492487441E+02  0.41800000000E+01 0. -1.
</event>
<event>
11    1  0.6930157E-009  0.1382155E+03  0.7561462E-02  0.1109568E+00
         22   -1    0    0    0    0  0.00000000000E+00  0.00000000000E+00  0.21737537226E+03  0.21737537226E+03  0.00000000000E+00 0.  1.
         22   -1    0    0    0    0 -0.00000000000E+00 -0.00000000000E+00 -0.58626726858E+03  0.58626726858E+03  0.00000000000E+00 0. -1.
         24    2    1    2    0    0 -0.47952965571E+02 -0.32021164798E+02 -0.51127108585E+03  0.52086561617E+03  0.81105024350E+02 0.  0.
         25    2    1    2    0    0  0.66210692795E+02  0.53675963553E+02  0.59629156963E+02  0.16269020611E+03  0.12508997522E+03 0.  0.
        -24    2    1    2    0    0 -0.18257727224E+02 -0.21654798755E+02  0.82750032572E+02  0.12008681856E+03  0.82286093528E+02 0.  0.
        -13    1    3    3    0    0 -0.26805746708E+02 -0.11337703863E+02 -0.44590670977E+02  0.53248657482E+02  0.00000000000E+00 0.  1.
         14    1    3    3    0    0 -0.21147218863E+02 -0.20683460935E+02 -0.46668041487E+03  0.46761695868E+03  0.00000000000E+00 0. -1.
         11    1    5    5    0    0  0.36105473311E+01  0.14245790663E+02 -0.10324087363E+02  0.17960105332E+02  0.00000000000E+00 0. -1.
        -12    1    5    5    0    0 -0.21868274555E+02 -0.35900589418E+02  0.93074119935E+02  0.10212671323E+03  0.00000000000E+00 0.  1.
          5    1    4    4  501    0  0.29590427712E+02  0.63588041364E+02 -0.21127678251E+02  0.73368137532E+02  0.41800000000E+01 0. -1.
         -5    1    4    4    0  501  0.36620265083E+02 -0.99120778110E+01  0.80756835215E+02  0.89322068579E+02  0.41800000000E+01 0. -1.
</event>
<event>
11    1  0.6930157E-009  0.1414940E+03  0.7561462E-02  0.1105901E+00
         22   -1    0    0    0    0  0.00000000000E+00  0.00000000000E+00  0.27700542483E+03  0.27700542483E+03  0.00000000000E+00 0.  1.
         22   -1    0    0    0    0 -0.00000000000E+00 -0.00000000000E+00 -0.26593606242E+03  0.26593606242E+03  0.00000000000E+00 0. -1.
         24    2    1    2    0    0  0.50836257501E+01  0.16049145582E+02 -0.16059467814E+03  0.17972989771E+03  0.78922538979E+02 0.  0.
         25    2    1    2    0    0 -0.62658808096E+02  0.17397136370E+02 -0.22608882419E+02  0.14278766822E+03  0.12509344526E+03 0.  0.
        -24    2    1    2    0    0  0.57575182346E+02 -0.33446281951E+02  0.19427292297E+03  0.22042392131E+03  0.80069851307E+02 0.  0.
        -11    1    3    3    0    0  0.34279896299E+02  0.29422573825E+02 -0.67240579914E+02  0.81006757298E+02  0.00000000000E+00 0.  1.
         12    1    3    3    0    0 -0.29196270549E+02 -0.13373428243E+02 -0.93354098226E+02  0.98723140411E+02  0.00000000000E+00 0. -1.
         13    1    5    5    0    0  0.63329630640E+02  0.53801779724E+01  0.10244861961E+03  0.12056246552E+03  0.00000000000E+00 0. -1.
        -14    1    5    5    0    0 -0.57544482936E+01 -0.38826459924E+02  0.91824303362E+02  0.99861455794E+02  0.00000000000E+00 0.  1.
          5    1    4    4  501    0 -0.35697480529E+02 -0.46960983301E+02  0.18163993223E+02  0.61863132143E+02  0.41800000000E+01 0. -1.
         -5    1    4    4    0  501 -0.26961327567E+02  0.64358119671E+02 -0.40772875642E+02  0.80924536081E+02  0.41800000000E+01 0. -1.
</event>
<event>
11    1  0.6930157E-009  0.1824884E+03  0.7561462E-02  0.1067648E+00
         22   -1    0    0    0    0  0.00000000000E+00  0.00000000000E+00  0.78365389856E+03  0.78365389856E+03  0.00000000000E+00 0.  1.
         22   -1    0    0    0    0 -0.00000000000E+00 -0.00000000000E+00 -0.46192031012E+03  0.46192031012E+03  0.00000000000E+00 0. -1.
        -24    2    1    2    0    0  0.32332358257E+01  0.77978559501E+02 -0.37367885548E+03  0.39010296585E+03  0.80332604701E+02 0.  0.
         25    2    1    2    0    0 -0.90291473067E+02  0.32710320229E+02  0.20990637562E+02  0.15909203690E+03  0.12508858534E+03 0.  0.
         24    2    1    2    0    0  0.87058237241E+02 -0.11068887973E+03  0.67442180636E+03  0.69637920593E+03  0.10133144029E+03 0.  0.
        -13    1    5    5    0    0  0.37331057074E+00 -0.31804276642E+02  0.34986757233E+03  0.35131036070E+03  0.00000000000E+00 0.  1.
         14    1    5    5    0    0  0.86684926671E+02 -0.78884603088E+02  0.32455423403E+03  0.34506884522E+03  0.00000000000E+00 0. -1.
         11    1    3    3    0    0  0.39616359727E+02  0.58125891194E+02 -0.24654889937E+03  0.25638727536E+03  0.00000000000E+00 0. -1.
        -12    1    3    3    0    0 -0.36383123901E+02  0.19852668307E+02 -0.12712995611E+03  0.13371569049E+03  0.00000000000E+00 0.  1.
          5    1    4    4  501    0 -0.87148706848E+02 -0.11077030868E+02  0.54711670639E+02  0.10357816866E+03  0.41800000000E+01 0. -1.
         -5    1    4    4    0  501 -0.31427662188E+01  0.43787351098E+02 -0.33721033077E+02  0.55513868244E+02  0.41800000000E+01 0. -1.
</event>
<event>
11    1  0.6930157E-009  0.1324322E+03  0.7561462E-02  0.1116316E+00
         22   -1    0    0    0    0  0.00000000000E+00  0.00000000000E+00  0.65051020395E+02  0.65051020395E+02  0.00000000000E+00 0. -1.
         22   -1    0    0    0    0 -0.00000000000E+00 -0.00000000000E+00 -0.25894660884E+04  0.25894660884E+04  0.00000000000E+00 0. -1.
        -24    2    1    2    0    0 -0.89935255171E+01  0.36452864869E+01 -0.20196132438E+04  0.20211818932E+04  0.79021639122E+02 0.  0.
         25    2    1    2    0    0  0.20564621102E+02  0.38337180502E+02 -0.52337430928E+03  0.53987147620E+03  0.12509156705E+03 0.  0.
         24    2    1    2    0    0 -0.11571095585E+02 -0.41982466989E+02  0.18572485083E+02  0.93463739342E+02  0.80586075610E+02 0.  0.
        -11    1    5    5    0    0  0.22362389670E+02  0.30561866346E+01 -0.15682435680E+02  0.27483732232E+02  0.00000000000E+00 0.  1.
         12    1    5    5    0    0 -0.33933485255E+02 -0.45038653624E+02  0.34254920763E+02  0.65980007111E+02  0.00000000000E+00 0. -1.
         11    1    3    3    0    0 -0.33174246193E+02 -0.23721032895E+02 -0.82078972740E+03  0.82180228438E+03  0.00000000000E+00 0. -1.
        -12    1    3    3    0    0  0.24180720676E+02  0.27366319382E+02 -0.11988235164E+04  0.11993796088E+04  0.00000000000E+00 0.  1.
          5    1    4    4  501    0  0.24367731702E+02 -0.43684362065E+02 -0.20393995975E+03  0.21002640173E+03  0.41800000000E+01 0.  1.
         -5    1    4    4    0  501 -0.38031106000E+01  0.82021542567E+02 -0.31943434953E+03  0.32984507447E+03  0.41800000000E+01 0.  1.
</event>
<event>
11    1  0.6930157E-009  0.1382846E+03  0.7561462E-02  0.1109489E+00
         22   -1    0    0    0    0  0.00000000000E+00  0.00000000000E+00  0.16663763229E+04  0.16663763229E+04  0.00000000000E+00 0.  1.
         22   -1    0    0    0    0 -0.00000000000E+00 -0.00000000000E+00 -0.19153928969E+03  0.19153928969E+03  0.00000000000E+00 0. -1.
        -24    2    1    2    0    0  0.14151522992E+02 -0.16959091581E+02 -0.15741987703E+03  0.17865449052E+03  0.81538536344E+02 0.  0.
         25    2    1    2    0    0 -0.42337681498E+02 -0.35499364588E+02  0.19331197048E+03  0.23678972557E+03  0.12508865674E+03 0.  0.
         24    2    1    2    0    0  0.28186158506E+02  0.52458456168E+02  0.14389449398E+04  0.14424713965E+04  0.81331672282E+02 0.  0.
        -13    1    5    5    0    0 -0.20920009474E+00  0.25565045623E+02  0.12056490066E+04  0.12059200398E+04  0.00000000000E+00 0.  1.
         14    1    5    5    0    0  0.28395358601E+02  0.26893410545E+02  0.23329593325E+03  0.23655135677E+03  0.00000000000E+00 0. -1.
         13    1    3    3    0    0  0.23409058485E+02 -0.22044951822E+02 -0.16338825189E+03  0.16652232516E+03  0.00000000000E+00 0. -1.
        -14    1    3    3    0    0 -0.92575354931E+01  0.50858602415E+01  0.59683748648E+01  0.12132165360E+02  0.00000000000E+00 0.  1.
          5    1    4    4  501    0  0.78229668024E+01 -0.63118820303E+02  0.15546405968E+03  0.16802300598E+03  0.41800000000E+01 0. -1.
         -5    1    4    4    0  501 -0.50160648300E+02  0.27619455715E+02  0.37847910798E+02  0.68766719594E+02  0.41800000000E+01 0. -1.
</event>
<event>
11    1  0.6930157E-009  0.2148874E+03  0.7561462E-02  0.1044468E+00
         22   -1    0    0    0    0  0.00000000000E+00  0.00000000000E+00  0.19590500424E+04  0.19590500424E+04  0.00000000000E+00 0. -1.
         22   -1    0    0    0    0 -0.00000000000E+00 -0.00000000000E+00 -0.14463713533E+04  0.14463713533E+04  0.00000000000E+00 0. -1.
         24    2    1    2    0    0  0.17263059496E+02 -0.16280370357E+03 -0.11058119632E+04  0.11211674297E+04  0.85984001179E+02 0.  0.
         25    2    1    2    0    0 -0.80719455935E+02  0.27073390102E+03 -0.25759409595E+03  0.40226096315E+03  0.12508672384E+03 0.  0.
        -24    2    1    2    0    0  0.63456396439E+02 -0.10793019745E+03  0.18760847482E+04  0.18819930029E+04  0.80796280017E+02 0.  0.
        -13    1    3    3    0    0 -0.32576629543E+02 -0.88877657685E+02 -0.63042871427E+03  0.63749575575E+03  0.00000000000E+00 0.  1.
         14    1    3    3    0    0  0.49839689039E+02 -0.73926045888E+02 -0.47538324888E+03  0.48367167395E+03  0.00000000000E+00 0. -1.
         13    1    5    5    0    0  0.79554648545E+02 -0.10013750202E+03  0.17470103089E+04  0.17516853258E+04  0.00000000000E+00 0. -1.
        -14    1    5    5    0    0 -0.16098252106E+02 -0.77926954316E+01  0.12907443933E+03  0.13030767710E+03  0.00000000000E+00 0.  1.
          5    1    4    4  501    0 -0.75683453863E+02  0.18818002675E+03 -0.10450156449E+03  0.22820551491E+03  0.41800000000E+01 0. -1.
         -5    1    4    4    0  501 -0.50360020720E+01  0.82553874277E+02 -0.15309253146E+03  0.17405544825E+03  0.41800000000E+01 0. -1.
</event>
<event>
11    1  0.6930157E-009  0.2167370E+03  0.7561462E-02  0.1043281E+00
         22   -1    0    0    0    0  0.00000000000E+00  0.00000000000E+00  0.86093261666E+03  0.86093261666E+03  0.00000000000E+00 0. -1.
         22   -1    0    0    0    0 -0.00000000000E+00 -0.00000000000E+00 -0.12380257445E+04  0.12380257445E+04  0.00000000000E+00 0.  1.
        -24    2    1    2    0    0  0.95429300673E+02  0.14452614479E+03 -0.10047686591E+04  0.10221752486E+04  0.72716040410E+02 0.  0.
         25    2    1    2    0    0 -0.67111825579E+02 -0.20299686819E+03 -0.15146607845E+03  0.29034686546E+03  0.12509038228E+03 0.  0.
         24    2    1    2    0    0 -0.28317475094E+02  0.58470723395E+02  0.77914160973E+03  0.78643624710E+03  0.84850561870E+02 0.  0.
        -11    1    5    5    0    0 -0.31802574891E+02 -0.78722687223E+01  0.13680874585E+03  0.14067696800E+03  0.00000000000E+00 0.  1.
         12    1    5    5    0    0  0.34850997968E+01  0.66342992118E+02  0.64233286388E+03  0.64575927910E+03  0.00000000000E+00 0. -1.
         13    1    3    3    0    0  0.41078100409E+02  0.57947035393E+02 -0.23074021254E+03  0.24142558880E+03  0.00000000000E+00 0. -1.
        -14    1    3    3    0    0  0.54351200264E+02  0.86579109399E+02 -0.77402844659E+03  0.78074965980E+03  0.00000000000E+00 0.  1.
          5    1    4    4  501    0 -0.76143914174E+02 -0.20889506700E+03 -0.11155162273E+03  0.24878963326E+03  0.41800000000E+01 0. -1.
         -5    1    4    4    0  501  0.90320885957E+01  0.58981988103E+01 -0.39914455716E+02  0.41557232207E+02  0.41800000000E+01 0. -1.
</event>
<event>
11    1  0.6930157E-009  0.2067805E+03  0.7561462E-02  0.1049830E+00
         22   -1    0    0    0    0  0.00000000000E+00  0.00000000000E+00  0.17869076071E+04  0.17869076071E+04  0.00000000000E+00 0. -1.
         22   -1    0    0    0    0 -0.00000000000E+00 -0.00000000000E+00 -0.64336274766E+03  0.64336274766E+03  0.00000000000E+00 0. -1.
        -24    2    1    2    0    0  0.58120523414E+02 -0.15475295451E+03 -0.61909829360E+03  0.64582316288E+03  0.80488436510E+02 0.  0.
         25    2    1    2    0    0 -0.45365297814E+02  0.11205089783E+03  0.88756447590E+03  0.90445087864E+03  0.12508908444E+03 0.  0.
         24    2    1    2    0    0 -0.12755225600E+02  0.42702056683E+02  0.87507867709E+03  0.87999631318E+03  0.81514775890E+02 0.  0.
        -13    1    5    5    0    0  0.30741925790E+02  0.35222297033E+02  0.54070693810E+03  0.54272430305E+03  0.00000000000E+00 0.  1.
         14    1    5    5    0    0 -0.43497151390E+02  0.74797596503E+01  0.33437173899E+03  0.33727201013E+03  0.00000000000E+00 0. -1.
         11    1    3    3    0    0  0.61212481766E+02 -0.11244935522E+03 -0.55032342365E+03  0.56502008463E+03  0.00000000000E+00 0. -1.
        -12    1    3    3    0    0 -0.30919583524E+01 -0.42303599296E+02 -0.68774869942E+02  0.80803078254E+02  0.00000000000E+00 0.  1.
          5    1    4    4  501    0  0.96451523411E+01  0.31815381995E+02  0.44103887180E+02  0.55388381088E+02  0.41800000000E+01 0.  1.
         -5    1    4    4    0  501 -0.55010450155E+02  0.80235515835E+02  0.84346058872E+03  0.84906249755E+03  0.41800000000E+01 0.  1.
</event>
<event>
11    1  0.6930157E-009  0.3449757E+03  0.7561462E-02  0.9827701E-01
         22   -1    0    0    0    0  0.00000000000E+00  0.00000000000E+00  0.23562604870E+03  0.23562604870E+03  0.00000000000E+00 0.  1.
         22   -1    0    0    0    0 -0.00000000000E+00 -0.00000000000E+00 -0.66293988735E+03  0.66293988735E+03  0.00000000000E+00 0.  1.
         24    2    1    2    0    0 -0.60018072125E+02  0.25882529802E+02 -0.10163324426E+03  0.14479054351E+03  0.79767855811E+02 0.  0.
         25    2    1    2    0    0 -0.28055266785E+03 -0.92035325726E+02 -0.18889557637E+03  0.37216673133E+03  0.12508491722E+03 0.  0.
        -24    2    1    2    0    0  0.34057073997E+03  0.66152795924E+02 -0.13678501801E+03  0.38160866121E+03  0.80934589786E+02 0.  0.
        -13    1    3    3    0    0 -0.76127364910E+02  0.49085469341E+01 -0.80817280084E+02  0.11113461334E+03  0.00000000000E+00 0.  1.
         14    1    3    3    0    0  0.16109292784E+02  0.20973982868E+02 -0.20815964175E+02  0.33655930174E+02  0.00000000000E+00 0. -1.
         13    1    5    5    0    0  0.20313496137E+03  0.58780568756E+02 -0.11949076286E+03  0.24289300155E+03  0.00000000000E+00 0. -1.
        -14    1    5    5    0    0  0.13743577860E+03  0.73722271681E+01 -0.17294255157E+02  0.13871565966E+03  0.00000000000E+00 0.  1.
          5    1    4    4  501    0 -0.22016357100E+03 -0.23481481681E+02 -0.16900495788E+03  0.27857409457E+03  0.41800000000E+01 0. -1.
         -5    1    4    4    0  501 -0.60389096851E+02 -0.68553844045E+02 -0.19890618493E+02  0.93592636761E+02  0.41800000000E+01 0. -1.
</event>
<event>
11    1  0.1222416E-008  0.2090589E+03  0.7561462E-02  0.1048296E+00
         22   -1    0    0    0    0  0.00000000000E+00  0.00000000000E+00  0.55198875189E+03  0.55198875189E+03  0.00000000000E+00 0.  1.
         22   -1    0    0    0    0 -0.00000000000E+00 -0.00000000000E+00 -0.19006408044E+04  0.19006408044E+04  0.00000000000E+00 0.  1.
        -24    2    1    2    0    0  0.65507885854E+02 -0.65505774988E+02 -0.83495001116E+03  0.84402989936E+03  0.81625119995E+02 0.  0.
         25    2    1    2    0    0 -0.21751431699E+03 -0.36722075153E+01 -0.10297118936E+04  0.10598477005E+04  0.12507838106E+03 0.  0.
         24    2    1    2    0    0  0.15200643113E+03  0.69177982503E+02  0.51600985218E+03  0.54875195641E+03  0.83492477195E+02 0.  0.
        -11    1    5    5    0    0  0.12138714775E+03  0.61970919476E+02  0.48785863816E+03  0.50653853292E+03  0.00000000000E+00 0.  1.
         12    1    5    5    0    0  0.30619283382E+02  0.72070630272E+01  0.28151214015E+02  0.42213423491E+02  0.00000000000E+00 0. -1.
         11    1    3    3    0    0  0.18208991026E+02  0.78516336561E+01 -0.43800615194E+02  0.48080239149E+02  0.00000000000E+00 0. -1.
        -12    1    3    3    0    0  0.47298894828E+02 -0.73357408644E+02 -0.79114939597E+03  0.79594966022E+03  0.00000000000E+00 0.  1.
          5    1    4    4  501    0 -0.24479689829E+02  0.22130664297E+02 -0.44475816688E+02  0.55539105020E+02  0.41800000000E+01 0.  1.
         -5    1    4    4    0  501 -0.19303462716E+03 -0.25802871812E+02 -0.98523607687E+03  0.10043085955E+04  0.41800000000E+01 0.  1.
</event>
<event>
11    1  0.6930157E-009  0.1323956E+03  0.7561462E-02  0.1116360E+00
         22   -1    0    0    0    0  0.00000000000E+00  0.00000000000E+00  0.13316758353E+04  0.13316758353E+04  0.00000000000E+00 0.  1.
         22   -1    0    0    0    0 -0.00000000000E+00 -0.00000000000E+00 -0.40228932004E+02  0.40228932004E+02  0.00000000000E+00 0.  1.
         24    2    1    2    0    0  0.27591754342E+02  0.13234014424E+02  0.34121184581E+02  0.91089176299E+02  0.78718096751E+02 0.  0.
         25    2    1    2    0    0 -0.61921824245E+02 -0.25021102665E+02  0.54873649615E+03  0.56676209016E+03  0.12508859558E+03 0.  0.
        -24    2    1    2    0    0  0.34330069903E+02  0.11787088241E+02  0.70858922252E+03  0.71405350080E+03  0.80350647649E+02 0.  0.
        -13    1    3    3    0    0  0.43742864476E+02  0.31597767153E+02  0.38442301581E+02  0.66254566880E+02  0.00000000000E+00 0.  1.
         14    1    3    3    0    0 -0.16151110134E+02 -0.18363752729E+02 -0.43211169998E+01  0.24834609419E+02  0.00000000000E+00 0. -1.
         13    1    5    5    0    0  0.41322605953E+02  0.63546188306E+00  0.15826582888E+03  0.16357271828E+03  0.00000000000E+00 0. -1.
        -14    1    5    5    0    0 -0.69925360495E+01  0.11151626358E+02  0.55032339364E+03  0.55048078252E+03  0.00000000000E+00 0.  1.
          5    1    4    4  501    0  0.33868962317E+02 -0.29049382440E+02  0.20773392644E+03  0.21251312859E+03  0.41800000000E+01 0. -1.
         -5    1    4    4    0  501 -0.95790786562E+02  0.40282797748E+01  0.34100256971E+03  0.35424896157E+03  0.41800000000E+01 0. -1.
</event>
<event>
11    1  0.7670097E-009  0.1650147E+03  0.7561462E-02  0.1082453E+00
         22   -1    0    0    0    0  0.00000000000E+00  0.00000000000E+00  0.32852595060E+03  0.32852595060E+03  0.00000000000E+00 0.  1.
         22   -1    0    0    0    0 -0.00000000000E+00 -0.00000000000E+00 -0.17188296265E+04  0.17188296265E+04  0.00000000000E+00 0.  1.
         24    2    1    2    0    0  0.44433008137E+02 -0.41447396578E+02 -0.11008411928E+04  0.11055172359E+04  0.81393170428E+02 0.  0.
         25    2    1    2    0    0  0.38588542346E+02 -0.29234516716E+02 -0.59384314763E+03  0.60880277946E+03  0.12508959876E+03 0.  0.
        -24    2    1    2    0    0 -0.83021550483E+02  0.70681913294E+02  0.30438066448E+03  0.33303556180E+03  0.79853527181E+02 0.  0.
        -11    1    3    3    0    0 -0.49636366911E+01 -0.33983050602E+02 -0.78487595027E+03  0.78562697429E+03  0.00000000000E+00 0.  1.
         12    1    3    3    0    0  0.49396644828E+02 -0.74643459759E+01 -0.31596524249E+03  0.31989026156E+03  0.00000000000E+00 0. -1.
         11    1    5    5    0    0  0.13674012701E+02  0.18219179862E+02  0.32019024572E+02  0.39295484126E+02  0.00000000000E+00 0. -1.
        -12    1    5    5    0    0 -0.96695563184E+02  0.52462733432E+02  0.27236163991E+03  0.29374007768E+03  0.00000000000E+00 0.  1.
          5    1    4    4  501    0 -0.27517458221E+02 -0.33908711215E+02 -0.42674980922E+03  0.42899869845E+03  0.41800000000E+01 0. -1.
         -5    1    4    4    0  501  0.66106000567E+02  0.46741944986E+01 -0.16709333841E+03  0.17980408100E+03  0.41800000000E+01 0. -1.
</event>
<event>
11    1  0.6930157E-009  0.1837767E+03  0.7561462E-02  0.1066628E+00
         22   -1    0    0    0    0  0.00000000000E+00  0.00000000000E+00  0.59905926369E+02  0.59905926369E+02  0.00000000000E+00 0. -1.
         22   -1    0    0    0    0 -0.00000000000E+00 -0.00000000000E+00 -0.18138278379E+04  0.18138278379E+04  0.00000000000E+00 0.  1.
         24    2    1    2    0    0 -0.12665504043E+02 -0.33520441930E+02 -0.12512791494E+04  0.12537138017E+04  0.69388412897E+02 0.  0.
         25    2    1    2    0    0 -0.12254016890E+03  0.52823542750E+02 -0.37036308835E+03  0.41306482610E+03  0.12508922289E+03 0.  0.
        -24    2    1    2    0    0  0.13520567295E+03 -0.19303100820E+02 -0.13227967380E+03  0.20695513648E+03  0.81727184698E+02 0.  0.
        -13    1    3    3    0    0 -0.49376600183E+01 -0.99351475963E+01 -0.11230523340E+04  0.11231071331E+04  0.00000000000E+00 0.  1.
         14    1    3    3    0    0 -0.77278440251E+01 -0.23585294334E+02 -0.12822681544E+03  0.13060666859E+03  0.00000000000E+00 0. -1.
         13    1    5    5    0    0  0.34439621711E+02  0.29807502476E+02 -0.51699522204E+02  0.68901490140E+02  0.00000000000E+00 0. -1.
        -14    1    5    5    0    0  0.10076605124E+03 -0.49110603296E+02 -0.80580151595E+02  0.13805364634E+03  0.00000000000E+00 0.  1.
          5    1    4    4  501    0 -0.12724490266E+03  0.47390169264E+02 -0.37806527602E+03  0.40173115229E+03  0.41800000000E+01 0.  1.
         -5    1    4    4    0  501  0.47047337556E+01  0.54333734862E+01  0.77021876614E+01  0.11333673805E+02  0.41800000000E+01 0.  1.
</event>
<event>
11    1  0.6930157E-009  0.1402356E+03  0.7561462E-02  0.1107296E+00
         22   -1    0    0    0    0  0.00000000000E+00  0.00000000000E+00  0.48179778596E+03  0.48179778596E+03  0.00000000000E+00 0. -1.
         22   -1    0    0    0    0 -0.00000000000E+00 -0.00000000000E+00 -0.63411604292E+03  0.63411604292E+03  0.00000000000E+00 0.  1.
         24    2    1    2    0    0  0.30529251939E+02  0.55553176712E+02 -0.60057106100E+03  0.60896806805E+03  0.78347418152E+02 0.  0.
         25    2    1    2    0    0 -0.64046890301E+02 -0.36274470586E+02  0.31551004692E+03  0.34729414821E+03  0.12509514100E+03 0.  0.
        -24    2    1    2    0    0  0.33517638363E+02 -0.19278706126E+02  0.13274275712E+03  0.15965161262E+03  0.79830428115E+02 0.  0.
        -11    1    3    3    0    0  0.46465209761E+02  0.66681682673E+02 -0.47555025455E+03  0.48244534107E+03  0.00000000000E+00 0.  1.
         12    1    3    3    0    0 -0.15935957822E+02 -0.11128505961E+02 -0.12502080645E+03  0.12652272698E+03  0.00000000000E+00 0. -1.
         13    1    5    5    0    0  0.49371802525E+02 -0.30471480249E+02  0.12665677579E+03  0.13931268731E+03  0.00000000000E+00 0. -1.
        -14    1    5    5    0    0 -0.15854164162E+02  0.11192774123E+02  0.60859813299E+01  0.20338925306E+02  0.00000000000E+00 0.  1.
          5    1    4    4  501    0 -0.61093186281E+02  0.17706097074E+02  0.65218281267E+02  0.91196380931E+02  0.41800000000E+01 0. -1.
         -5    1    4    4    0  501 -0.29537040208E+01 -0.53980567660E+02  0.25029176565E+03  0.25609776728E+03  0.41800000000E+01 0. -1.
</event>
<event>
11    1  0.6930157E-009  0.1663973E+03  0.7561462E-02  0.1081210E+00
         22   -1    0    0    0    0  0.00000000000E+00  0.00000000000E+00  0.17651800802E+03  0.17651800802E+03  0.00000000000E+00 0. -1.
         22   -1    0    0    0    0 -0.00000000000E+00 -0.00000000000E+00 -0.37408448222E+03  0.37408448222E+03  0.00000000000E+00 0. -1.
        -24    2    1    2    0    0 -0.11538537760E+03 -0.36647128197E+02 -0.24565434358E+03  0.28566455594E+03  0.81248905414E+02 0.  0.
         25    2    1    2    0    0  0.75761347306E+02  0.62408678580E+00 -0.17360232973E+02  0.14727058074E+03  0.12508826897E+03 0.  0.
         24    2    1    2    0    0  0.39624030290E+02  0.36023041411E+02  0.65448102353E+02  0.11766735356E+03  0.81819488525E+02 0.  0.
        -13    1    5    5    0    0  0.63263319364E+02  0.18661153324E+02  0.32417285207E+02  0.73493990234E+02  0.00000000000E+00 0.  1.
         14    1    5    5    0    0 -0.23639289074E+02  0.17361888087E+02  0.33030817147E+02  0.44173363323E+02  0.00000000000E+00 0. -1.
         13    1    3    3    0    0 -0.36130885438E+02  0.96459407431E+01 -0.20783848416E+02  0.42783798456E+02  0.00000000000E+00 0. -1.
        -14    1    3    3    0    0 -0.79254492158E+02 -0.46293068940E+02 -0.22487049517E+03  0.24288075748E+03  0.00000000000E+00 0.  1.
          5    1    4    4  501    0  0.57115730842E+02 -0.59222435657E+02 -0.11554359327E+01  0.82391207219E+02  0.41800000000E+01 0. -1.
         -5    1    4    4    0  501  0.18645616464E+02  0.59846522443E+02 -0.16204797040E+02  0.64879373525E+02  0.41800000000E+01 0. -1.
</event>
<event>
11    1  0.6930157E-009  0.1394593E+03  0.7561462E-02  0.1108164E+00
         22   -1    0    0    0    0  0.00000000000E+00  0.00000000000E+00  0.48789233242E+03  0.48789233242E+03  0.00000000000E+00 0.  1.
         22   -1    0    0    0    0 -0.00000000000E+00 -0.00000000000E+00 -0.26779101686E+03  0.26779101686E+03  0.00000000000E+00 0. -1.
        -24    2    1    2    0    0 -0.63205939009E+02  0.19829822864E+02 -0.21684268956E+03  0.24224796628E+03  0.85294270313E+02 0.  0.
         25    2    1    2    0    0  0.20626581212E+02  0.34525048764E+02  0.11551759809E+03  0.17492266988E+03  0.12504475248E+03 0.  0.
         24    2    1    2    0    0  0.42579357797E+02 -0.54354871628E+02  0.32142640704E+03  0.33851271313E+03  0.80675076897E+02 0.  0.
        -13    1    5    5    0    0  0.44645557710E+02 -0.66904958162E+02  0.18802688410E+03  0.20450821107E+03  0.00000000000E+00 0.  1.
         14    1    5    5    0    0 -0.20661999129E+01  0.12550086533E+02  0.13339952294E+03  0.13400450207E+03  0.00000000000E+00 0. -1.
         11    1    3    3    0    0 -0.78176941617E+02  0.26865277465E+02 -0.20724626397E+03  0.22312416110E+03  0.00000000000E+00 0. -1.
        -12    1    3    3    0    0  0.14971002609E+02 -0.70354546011E+01 -0.95964255900E+01  0.19123805182E+02  0.00000000000E+00 0.  1.
          5    1    4    4  501    0 -0.29233800862E+01  0.56731038723E+02  0.12790431160E+03  0.14001407869E+03  0.41800000000E+01 0. -1.
         -5    1    4    4    0  501  0.23549961298E+02 -0.22205989959E+02 -0.12386713509E+02  0.34908591188E+02  0.41800000000E+01 0. -1.
</event>
<event>
11    1  0.6930157E-009  0.1283275E+03  0.7561462E-02  0.1121341E+00
         22   -1    0    0    0    0  0.00000000000E+00  0.00000000000E+00  0.56881399333E+03  0.56881399333E+03  0.00000000000E+00 0.  1.
         22   -1    0    0    0    0 -0.00000000000E+00 -0.00000000000E+00 -0.43421422829E+03  0.43421422829E+03  0.00000000000E+00 0. -1.
         24    2    1    2    0    0 -0.13868161401E+02  0.17601844593E+02 -0.38316468354E+03  0.39226707974E+03  0.80969971609E+02 0.  0.
         25    2    1    2    0    0 -0.45929452052E+01  0.67386824773E+01  0.49829479535E+02  0.13489704741E+03  0.12509089248E+03 0.  0.
        -24    2    1    2    0    0  0.18461106606E+02 -0.24340527071E+02  0.46793496905E+03  0.47586409447E+03  0.80933475343E+02 0.  0.
        -11    1    3    3    0    0 -0.12292519037E+02 -0.31821804637E+02 -0.13683875103E+03  0.14102686644E+03  0.00000000000E+00 0.  1.
         12    1    3    3    0    0 -0.15756423637E+01  0.49423649231E+02 -0.24632593251E+03  0.25124021330E+03  0.00000000000E+00 0. -1.
         11    1    5    5    0    0 -0.46578832706E+01  0.17085704906E+02  0.26410807922E+02  0.31798552857E+02  0.00000000000E+00 0. -1.
        -12    1    5    5    0    0  0.23118989877E+02 -0.41426231977E+02  0.44152416113E+03  0.44406554161E+03  0.00000000000E+00 0.  1.
          5    1    4    4  501    0  0.69216467998E+00 -0.26706550429E+02  0.83011514086E+02  0.87304655080E+02  0.41800000000E+01 0. -1.
         -5    1    4    4    0  501 -0.52851098852E+01  0.33445232907E+02 -0.33182034551E+02  0.47592392330E+02  0.41800000000E+01 0. -1.
</event>
<event>
11    1  0.6930157E-009  0.1477530E+03  0.7561462E-02  0.1099197E+00
         22   -1    0    0    0    0  0.00000000000E+00  0.00000000000E+00  0.40357111286E+03  0.40357111286E+03  0.00000000000E+00 0.  1.
         22   -1    0    0    0    0 -0.00000000000E+00 -0.00000000000E+00 -0.37794951913E+03  0.37794951913E+03  0.00000000000E+00 0.  1.
         24    2    1    2    0    0  0.27076020035E+02  0.72944133455E+02 -0.32430765177E+03  0.34336906401E+03  0.81687842761E+02 0.  0.
         25    2    1    2    0    0 -0.45847706395E+02 -0.82533420849E+02  0.13357251480E+03  0.20591919368E+03  0.12508924764E+03 0.  0.
        -24    2    1    2    0    0  0.18771686360E+02  0.95892873941E+01  0.21635673070E+03  0.23223237430E+03  0.81714809646E+02 0.  0.
        -13    1    3    3    0    0  0.23900907981E+02  0.88724114445E+02 -0.30324091900E+03  0.31685687123E+03  0.00000000000E+00 0.  1.
         14    1    3    3    0    0  0.31751120535E+01 -0.15779980990E+02 -0.21066732771E+02  0.26512192785E+02  0.00000000000E+00 0. -1.
         13    1    5    5    0    0 -0.17941524916E+02 -0.26133143034E+01  0.71682883561E+01  0.19496463421E+02  0.00000000000E+00 0. -1.
        -14    1    5    5    0    0  0.36713211276E+02  0.12202601697E+02  0.20918844234E+03  0.21273591088E+03  0.00000000000E+00 0.  1.
          5    1    4    4  501    0 -0.31116115091E+02 -0.45238799101E+02  0.15194418831E+03  0.16161457336E+03  0.41800000000E+01 0.  1.
         -5    1    4    4    0  501 -0.14731591304E+02 -0.37294621748E+02 -0.18371673506E+02  0.44304620313E+02  0.41800000000E+01 0.  1.
</event>
<event>
11    1  0.6930157E-009  0.1579046E+03  0.7561462E-02  0.1089065E+00
         22   -1    0    0    0    0  0.00000000000E+00  0.00000000000E+00  0.19062251806E+03  0.19062251806E+03  0.00000000000E+00 0. -1.
         22   -1    0    0    0    0 -0.00000000000E+00 -0.00000000000E+00 -0.56479039209E+03  0.56479039209E+03  0.00000000000E+00 0. -1.
        -24    2    1    2    0    0 -0.50012587520E+02  0.13244443191E+02 -0.42693621300E+03  0.43762611920E+03  0.81027254935E+02 0.  0.
         25    2    1    2    0    0  0.18504015680E+02 -0.10437795360E+03 -0.29796929439E+02  0.16665057910E+03  0.12508957877E+03 0.  0.
         24    2    1    2    0    0  0.31508571840E+02  0.91133510404E+02  0.82565268414E+02  0.15113621185E+03  0.82018437958E+02 0.  0.
        -13    1    5    5    0    0 -0.20167875888E+02 -0.99443880111E+00  0.74616436391E+01  0.21526919244E+02  0.00000000000E+00 0.  1.
         14    1    5    5    0    0  0.51676447728E+02  0.92127949205E+02  0.75103624775E+02  0.12960929260E+03  0.00000000000E+00 0. -1.
         11    1    3    3    0    0 -0.60717346600E+02  0.35986714778E+02 -0.33192882338E+03  0.33934994270E+03  0.00000000000E+00 0. -1.
        -12    1    3    3    0    0  0.10704759080E+02 -0.22742271587E+02 -0.95007389624E+02  0.98276176498E+02  0.00000000000E+00 0.  1.
          5    1    4    4  501    0 -0.38283434530E+00  0.25475983575E+02  0.12543530974E+02  0.28705136658E+02  0.41800000000E+01 0. -1.
         -5    1    4    4    0  501  0.18886850025E+02 -0.12985393717E+03 -0.42340460413E+02  0.13794544244E+03  0.41800000000E+01 0. -1.
</event>
<event>
11    1  0.6930157E-009  0.1351902E+03  0.7561462E-02  0.1113051E+00
         22   -1    0    0    0    0  0.00000000000E+00  0.00000000000E+00  0.19921358446E+03  0.19921358446E+03  0.00000000000E+00 0.  1.
         22   -1    0    0    0    0 -0.00000000000E+00 -0.00000000000E+00 -0.99725385072E+03  0.99725385072E+03  0.00000000000E+00 0.  1.
         24    2    1    2    0    0 -0.16781942573E+01 -0.76145891821E+01 -0.38326750936E+03  0.39170574537E+03  0.80489806309E+02 0.  0.
         25    2    1    2    0    0  0.17225573819E+02 -0.41383858340E+02 -0.59083706745E+03  0.60559452985E+03  0.12508776991E+03 0.  0.
        -24    2    1    2    0    0 -0.15547379561E+02  0.48998447522E+02  0.17606431055E+03  0.19916715996E+03  0.77629551629E+02 0.  0.
        -13    1    3    3    0    0 -0.13887893146E+02  0.19150305552E+02 -0.33006366736E+03  0.33091030853E+03  0.00000000000E+00 0.  1.
         14    1    3    3    0    0  0.12209698889E+02 -0.26764894734E+02 -0.53203841997E+02  0.60795436838E+02  0.00000000000E+00 0. -1.
         13    1    5    5    0    0  0.24500899110E+02  0.32636519858E+01  0.20382387222E+02  0.32037278135E+02  0.00000000000E+00 0. -1.
        -14    1    5    5    0    0 -0.40048278671E+02  0.45734795537E+02  0.15568192333E+03  0.16712988183E+03  0.00000000000E+00 0.  1.
          5    1    4    4  501    0 -0.22556945285E+02  0.24846988027E+02 -0.57762727050E+02  0.66934248564E+02  0.41800000000E+01 0. -1.
         -5    1    4    4    0  501  0.39782519104E+02 -0.66230846368E+02 -0.53307434040E+03  0.53866028128E+03  0.41800000000E+01 0. -1.
</event>
<event>
11    1  0.6930157E-009  0.1424531E+03  0.7561462E-02  0.1104850E+00
         22   -1    0    0    0    0  0.00000000000E+00  0.00000000000E+00  0.73991909477E+03  0.73991909477E+03  0.00000000000E+00 0. -1.
         22   -1    0    0    0    0 -0.00000000000E+00 -0.00000000000E+00 -0.14552452835E+04  0.14552452835E+04  0.00000000000E+00 0.  1.
         24    2    1    2    0    0  0.14869167493E+00 -0.39689839042E+02 -0.12724154578E+04  0.12756254688E+04  0.81264592529E+02 0.  0.
         25    2    1    2    0    0  0.31214928447E+02 -0.21757512486E+02 -0.15286939721E+03  0.20115421189E+03  0.12508478424E+03 0.  0.
        -24    2    1    2    0    0 -0.31363620122E+02  0.61447351528E+02  0.70995866630E+03  0.71838469755E+03  0.85298371215E+02 0.  0.
        -13    1    3    3    0    0 -0.18489484407E+01 -0.41215440843E+02 -0.12724430804E+04  0.12731117485E+04  0.00000000000E+00 0.  1.
         14    1    3    3    0    0  0.19976401157E+01  0.15256018009E+01  0.27622635051E-01  0.25137203298E+01  0.00000000000E+00 0. -1.
         11    1    5    5    0    0 -0.44019461909E+02  0.67246631314E+02  0.68586605975E+03  0.69055924754E+03  0.00000000000E+00 0. -1.
        -12    1    5    5    0    0  0.12655841787E+02 -0.57992797853E+01  0.24092606556E+02  0.27825450006E+02  0.00000000000E+00 0.  1.
          5    1    4    4  501    0 -0.32252698688E+02 -0.49109754343E+02 -0.50599922008E+02  0.77651973906E+02  0.41800000000E+01 0.  1.
         -5    1    4    4    0  501  0.63467627134E+02  0.27352241857E+02 -0.10226947520E+03  0.12350223798E+03  0.41800000000E+01 0.  1.
</event>
<event>
11    1  0.6930157E-009  0.1525571E+03  0.7561462E-02  0.1094294E+00
         22   -1    0    0    0    0  0.00000000000E+00  0.00000000000E+00  0.10154039022E+04  0.10154039022E+04  0.00000000000E+00 0. -1.
         22   -1    0    0    0    0 -0.00000000000E+00 -0.00000000000E+00 -0.17276533718E+04  0.17276533718E+04  0.00000000000E+00 0. -1.
        -24    2    1    2    0    0  0.26805381424E+02 -0.83050031460E+02 -0.17089183408E+04  0.17130424938E+04  0.80603063640E+02 0.  0.
         25    2    1    2    0    0 -0.50907047381E+02  0.89607514286E+02  0.47944504130E+03  0.50609927354E+03  0.12509153831E+03 0.  0.
         24    2    1    2    0    0  0.24101665957E+02 -0.65574828267E+01  0.51722382987E+03  0.52391550659E+03  0.79643436455E+02 0.  0.
        -13    1    5    5    0    0  0.40210863122E+02 -0.30285440646E+02  0.24065761898E+03  0.24586624616E+03  0.00000000000E+00 0.  1.
         14    1    5    5    0    0 -0.16109197165E+02  0.23727957819E+02  0.27656621090E+03  0.27804926043E+03  0.00000000000E+00 0. -1.
         13    1    3    3    0    0  0.53797827515E+02 -0.65116439665E+02 -0.10847949667E+04  0.10880783413E+04  0.00000000000E+00 0. -1.
        -14    1    3    3    0    0 -0.26992446090E+02 -0.17933591795E+02 -0.62412337409E+03  0.62496415253E+03  0.00000000000E+00 0.  1.
          5    1    4    4  501    0  0.33496671353E+02  0.52067820220E+02  0.12183314546E+03  0.13672553759E+03  0.41800000000E+01 0.  1.
         -5    1    4    4    0  501 -0.84403718734E+02  0.37539694066E+02  0.35761189584E+03  0.36937373595E+03  0.41800000000E+01 0.  1.
</event>
<event>
11    1  0.6930157E-009  0.2580206E+03  0.7561462E-02  0.1019711E+00
         22   -1    0    0    0    0  0.00000000000E+00  0.00000000000E+00  0.38225571469E+03  0.38225571469E+03  0.00000000000E+00 0. -1.
         22   -1    0    0    0    0 -0.00000000000E+00 -0.00000000000E+00 -0.98847188610E+03  0.98847188610E+03  0.00000000000E+00 0.  1.
         24    2    1    2    0    0 -0.22638948681E+02 -0.20828169532E+02 -0.65974430356E+03  0.66502564609E+03  0.77783219515E+02 0.  0.
         25    2    1    2    0    0  0.21144159300E+03 -0.10078733382E+03 -0.21896535026E+03  0.34417476647E+03  0.12507922031E+03 0.  0.
        -24    2    1    2    0    0 -0.18880264432E+03  0.12161550335E+03  0.27249348241E+03  0.36152718823E+03  0.77539929794E+02 0.  0.
        -13    1    3    3    0    0 -0.48752179314E+02 -0.22670713258E+02 -0.52620426002E+03  0.52894390959E+03  0.00000000000E+00 0.  1.
         14    1    3    3    0    0  0.26113230633E+02  0.18425437255E+01 -0.13354004354E+03  0.13608173650E+03  0.00000000000E+00 0. -1.
         13    1    5    5    0    0 -0.17650587193E+03  0.79740070608E+02  0.21557763914E+03  0.28980427910E+03  0.00000000000E+00 0. -1.
        -14    1    5    5    0    0 -0.12296772394E+02  0.41875432747E+02  0.56915843268E+02  0.71722909129E+02  0.00000000000E+00 0.  1.
          5    1    4    4  501    0  0.12266329808E+03 -0.24208763138E+02 -0.42208714007E+02  0.13202801539E+03  0.41800000000E+01 0. -1.
         -5    1    4    4    0  501  0.88778294920E+02 -0.76578570683E+02 -0.17675663625E+03  0.21214675109E+03  0.41800000000E+01 0. -1.
</event>
<event>
11    1  0.6930157E-009  0.2541704E+03  0.7561462E-02  0.1021701E+00
         22   -1    0    0    0    0  0.00000000000E+00  0.00000000000E+00  0.12692127138E+04  0.12692127138E+04  0.00000000000E+00 0.  1.
         22   -1    0    0    0    0 -0.00000000000E+00 -0.00000000000E+00 -0.16666135942E+04  0.16666135942E+04  0.00000000000E+00 0.  1.
        -24    2    1    2    0    0  0.20628588265E+02  0.13654738251E+03 -0.14629422261E+04  0.14716574734E+04  0.80653801069E+02 0.  0.
         25    2    1    2    0    0 -0.15754581757E+03 -0.30118437594E+03 -0.12321091556E+02  0.36239647179E+03  0.12508669206E+03 0.  0.
         24    2    1    2    0    0  0.13691722930E+03  0.16463699343E+03  0.10778624373E+04  0.11017723628E+04  0.79140623985E+02 0.  0.
        -11    1    5    5    0    0  0.49876866281E+02  0.54674857830E+02  0.57420188522E+03  0.57895150648E+03  0.00000000000E+00 0.  1.
         12    1    5    5    0    0  0.87040363020E+02  0.10996213560E+03  0.50366055206E+03  0.52282085629E+03  0.00000000000E+00 0. -1.
         13    1    3    3    0    0  0.15917357914E+02  0.13021339773E+02 -0.63074430963E+02  0.66342304857E+02  0.00000000000E+00 0. -1.
        -14    1    3    3    0    0  0.47112303519E+01  0.12352604274E+03 -0.13998677952E+04  0.14053151685E+04  0.00000000000E+00 0.  1.
          5    1    4    4  501    0 -0.16402718469E+03 -0.30941688864E+03 -0.15814884883E+02  0.35058709514E+03  0.41800000000E+01 0.  1.
         -5    1    4    4    0  501  0.64813671274E+01  0.82325126998E+01  0.34937933270E+01  0.11809376656E+02  0.41800000000E+01 0.  1.
</event>
<event>
11    1  0.6930157E-009  0.1325532E+03  0.7561462E-02  0.1116171E+00
         22   -1    0    0    0    0  0.00000000000E+00  0.00000000000E+00  0.15249319687E+04  0.15249319687E+04  0.00000000000E+00 0.  1.
         22   -1    0    0    0    0 -0.00000000000E+00 -0.00000000000E+00 -0.27287702068E+04  0.27287702068E+04  0.00000000000E+00 0.  1.
        -24    2    1    2    0    0 -0.22483287226E+01 -0.23182635448E+01 -0.22682981841E+04  0.22697103664E+04  0.79987912586E+02 0.  0.
         25    2    1    2    0    0 -0.39286725460E+02 -0.11785077810E+02 -0.44892365561E+03  0.46782672493E+03  0.12508821344E+03 0.  0.
         24    2    1    2    0    0  0.41535054183E+02  0.14103341355E+02  0.15133836016E+04  0.15161650841E+04  0.80638523626E+02 0.  0.
        -13    1    5    5    0    0 -0.17385523524E+02  0.25464629338E+02  0.62226165936E+03  0.62302510101E+03  0.00000000000E+00 0.  1.
         14    1    5    5    0    0  0.58920577706E+02 -0.11361287984E+02  0.89112194226E+03  0.89313998305E+03  0.00000000000E+00 0. -1.
         11    1    3    3    0    0  0.12658081601E+02  0.26363524275E+02 -0.37581802075E+03  0.37695417117E+03  0.00000000000E+00 0. -1.
        -12    1    3    3    0    0 -0.14906410323E+02 -0.28681787820E+02 -0.18924801634E+04  0.18927561953E+04  0.00000000000E+00 0.  1.
          5    1    4    4  501    0 -0.42354122288E+02  0.51248275072E+02 -0.26843989216E+03  0.27658218575E+03  0.41800000000E+01 0.  1.
         -5    1    4    4    0  501  0.30673968281E+01 -0.63033352882E+02 -0.18048376345E+03  0.19124453918E+03  0.41800000000E+01 0.  1.
</event>
<event>
11    1  0.6930157E-009  0.1627556E+03  0.7561462E-02  0.1084514E+00
         22   -1    0    0    0    0  0.00000000000E+00  0.00000000000E+00  0.10649678467E+04  0.10649678467E+04  0.00000000000E+00 0.  1.
         22   -1    0    0    0    0 -0.00000000000E+00 -0.00000000000E+00 -0.60188630636E+03  0.60188630636E+03  0.00000000000E+00 0. -1.
        -24    2    1    2    0    0  0.34256355980E+02  0.97984248169E+02 -0.55959709140E+03  0.57462164513E+03  0.79162614530E+02 0.  0.
         25    2    1    2    0    0  0.10526610344E+02 -0.12528523546E+03  0.21636924887E+03  0.27976488368E+03  0.12508212716E+03 0.  0.
         24    2    1    2    0    0 -0.44782966324E+02  0.27300987291E+02  0.80630938291E+03  0.81246762429E+03  0.84958587446E+02 0.  0.
        -11    1    5    5    0    0 -0.36171486983E+02  0.48891411062E+02  0.73397176273E+03  0.73648713162E+03  0.00000000000E+00 0.  1.
         12    1    5    5    0    0 -0.86114793407E+01 -0.21590423771E+02  0.72337620175E+02  0.75980492678E+02  0.00000000000E+00 0. -1.
         13    1    3    3    0    0 -0.11876216631E+02  0.54150302848E+02 -0.38128968073E+03  0.38529874182E+03  0.00000000000E+00 0. -1.
        -14    1    3    3    0    0  0.46132572611E+02  0.43833945321E+02 -0.17830741067E+03  0.18932290331E+03  0.00000000000E+00 0.  1.
          5    1    4    4  501    0 -0.14367179684E+02 -0.13092964376E+03  0.11422175857E+03  0.17439343450E+03  0.41800000000E+01 0.  1.
         -5    1    4    4    0  501  0.24893790028E+02  0.56444082994E+01  0.10214749030E+03  0.10537144918E+03  0.41800000000E+01 0.  1.
</event>
<event>
11    1  0.6930157E-009  0.1575422E+03  0.7561462E-02  0.1089412E+00
         22   -1    0    0    0    0  0.00000000000E+00  0.00000000000E+00  0.19727217665E+03  0.19727217665E+03  0.00000000000E+00 0. -1.
         22   -1    0    0    0    0 -0.00000000000E+00 -0.00000000000E+00 -0.45957700300E+03  0.45957700300E+03  0.00000000000E+00 0. -1.
         24    2    1    2    0    0  0.58554866263E+02  0.74314884025E+02 -0.30924583276E+03  0.33869399029E+03  0.10064422302E+03 0.  0.
         25    2    1    2    0    0 -0.15784457480E+02 -0.11150645307E+03 -0.53853143198E+02  0.17672223226E+03  0.12509095958E+03 0.  0.
        -24    2    1    2    0    0 -0.42770408783E+02  0.37191569041E+02  0.10079414960E+03  0.14143295711E+03  0.81432794909E+02 0.  0.
        -11    1    3    3    0    0  0.39790635428E+01  0.45408560090E+01  0.75953720848E+01  0.97026798916E+01  0.00000000000E+00 0.  1.
         12    1    3    3    0    0  0.54575802720E+02  0.69774028016E+02 -0.31684120485E+03  0.32899131040E+03  0.00000000000E+00 0. -1.
         13    1    5    5    0    0  0.15162227141E+02 -0.63330032336E+01  0.50819608367E+02  0.53410042655E+02  0.00000000000E+00 0. -1.
        -14    1    5    5    0    0 -0.57932635924E+02  0.43524572275E+02  0.49974541234E+02  0.88022914451E+02  0.00000000000E+00 0.  1.
          5    1    4    4  501    0 -0.68827215184E+02 -0.80275911010E+02 -0.25667022271E+02  0.10889295602E+03  0.41800000000E+01 0.  1.
         -5    1    4    4    0  501  0.53042757704E+02 -0.31230542056E+02 -0.28186120927E+02  0.67829276238E+02  0.41800000000E+01 0.  1.
</event>
<event>
11    1  0.6930157E-009  0.1469710E+03  0.7561462E-02  0.1100015E+00
         22   -1    0    0    0    0  0.00000000000E+00  0.00000000000E+00  0.65212022073E+03  0.65212022073E+03  0.00000000000E+00 0. -1.
         22   -1    0    0    0    0 -0.00000000000E+00 -0.00000000000E+00 -0.70187246693E+03  0.70187246693E+03  0.00000000000E+00 0.  1.
        -24    2    1    2    0    0  0.34110021317E+02 -0.12441818286E+02 -0.55123049967E+03  0.55776924185E+03  0.77027079578E+02 0.  0.
         25    2    1    2    0    0  0.39413924637E+02  0.38777066671E+02 -0.10954466645E+03  0.17522661366E+03  0.12508882378E+03 0.  0.
         24    2    1    2    0    0 -0.73523945954E+02 -0.26335248384E+02  0.61102291991E+03  0.62099683215E+03  0.78668551266E+02 0.  0.
        -11    1    5    5    0    0  0.85341722482E+01  0.90991580213E+01  0.22515804834E+02  0.25740789421E+02  0.00000000000E+00 0.  1.
         12    1    5    5    0    0 -0.82058118203E+02 -0.35434406406E+02  0.58850711507E+03  0.59525604273E+03  0.00000000000E+00 0. -1.
         13    1    3    3    0    0  0.11205598775E+02 -0.37384182303E+02 -0.14599865496E+03  0.15112494758E+03  0.00000000000E+00 0. -1.
        -14    1    3    3    0    0  0.22904422542E+02  0.24942364017E+02 -0.40523184471E+03  0.40664429427E+03  0.00000000000E+00 0.  1.
          5    1    4    4  501    0  0.45214921243E+01 -0.45207708890E+02 -0.39725143523E+02  0.60495787143E+02  0.41800000000E+01 0. -1.
         -5    1    4    4    0  501  0.34892432513E+02  0.83984775561E+02 -0.69819522922E+02  0.11473082652E+03  0.41800000000E+01 0. -1.
</event>
<event>
11    1  0.6930157E-009  0.1333476E+03  0.7561462E-02  0.1115223E+00
         22   -1    0    0    0    0  0.00000000000E+00  0.00000000000E+00  0.23920864277E+04  0.23920864277E+04  0.00000000000E+00 0. -1.
         22   -1    0    0    0    0 -0.00000000000E+00 -0.00000000000E+00 -0.11976597813E+04  0.11976597813E+04  0.00000000000E+00 0.  1.
         24    2    1    2    0    0  0.40256953114E+02 -0.17778017016E+02 -0.11699417661E+04  0.11722474103E+04  0.58852143895E+02 0.  0.
         25    2    1    2    0    0 -0.80785766068E+02  0.36472039965E+02  0.20371921510E+03  0.25496198799E+03  0.12509015556E+03 0.  0.
        -24    2    1    2    0    0  0.40528812955E+02 -0.18694022949E+02  0.21606491973E+04  0.21625368108E+04  0.78539499006E+02 0.  0.
        -11    1    3    3    0    0  0.42460441017E+02 -0.27407377905E+02 -0.11290097138E+04  0.11301402512E+04  0.00000000000E+00 0.  1.
         12    1    3    3    0    0 -0.22034879031E+01  0.96293608898E+01 -0.40932052212E+02  0.42107159110E+02  0.00000000000E+00 0. -1.
         11    1    5    5    0    0  0.56361156127E+02 -0.79578475001E+01  0.19908405411E+04  0.19916540783E+04  0.00000000000E+00 0. -1.
        -12    1    5    5    0    0 -0.15832343172E+02 -0.10736175449E+02  0.16980865621E+03  0.17088273253E+03  0.00000000000E+00 0.  1.
          5    1    4    4  501    0  0.16675629546E+02  0.42682273146E+02  0.11131504638E+03  0.12045067461E+03  0.41800000000E+01 0.  1.
         -5    1    4    4    0  501 -0.97461395614E+02 -0.62102331815E+01  0.92404168717E+02  0.13451131338E+03  0.41800000000E+01 0.  1.
</event>
<event>
11    1  0.6930157E-009  0.1505450E+03  0.7561462E-02  0.1096323E+00
         22   -1    0    0    0    0  0.00000000000E+00  0.00000000000E+00  0.78962606536E+03  0.78962606536E+03  0.00000000000E+00 0.  1.
         22   -1    0    0    0    0 -0.00000000000E+00 -0.00000000000E+00 -0.40790279718E+03  0.40790279718E+03  0.00000000000E+00 0.  1.
         24    2    1    2    0    0 -0.69135219312E+01 -0.81191527186E+02 -0.30114001201E+03  0.32236055949E+03  0.81185975447E+02 0.  0.
         25    2    1    2    0    0  0.24228583099E+01  0.98332256776E+02 -0.26238851556E+02  0.16128293737E+03  0.12509438673E+03 0.  0.
        -24    2    1    2    0    0  0.44906636212E+01 -0.17140729590E+02  0.70910213174E+03  0.71388536569E+03  0.80576121919E+02 0.  0.
        -13    1    3    3    0    0 -0.40118570770E+02 -0.60951314192E+02 -0.22984065229E+03  0.24114578136E+03  0.00000000000E+00 0.  1.
         14    1    3    3    0    0  0.33205048839E+02 -0.20240212993E+02 -0.71299359723E+02  0.81214778134E+02  0.00000000000E+00 0. -1.
         13    1    5    5    0    0 -0.20045218568E+02 -0.22039592183E+02  0.10184342774E+03  0.10611144229E+03  0.00000000000E+00 0. -1.
        -14    1    5    5    0    0  0.24535882189E+02  0.48988625926E+01  0.60725870400E+03  0.60777392340E+03  0.00000000000E+00 0.  1.
          5    1    4    4  501    0  0.94988584378E+01  0.94077625174E+02 -0.69256750514E+02  0.11728084994E+03  0.41800000000E+01 0. -1.
         -5    1    4    4    0  501 -0.70760001279E+01  0.42546316018E+01  0.43017898958E+02  0.44002087435E+02  0.41800000000E+01 0. -1.
</event>
<event>
11    1  0.6930157E-009  0.1448618E+03  0.7561462E-02  0.1102248E+00
         22   -1    0    0    0    0  0.00000000000E+00  0.00000000000E+00  0.79411944823E+02  0.79411944823E+02  0.00000000000E+00 0. -1.
         22   -1    0    0    0    0 -0.00000000000E+00 -0.00000000000E+00 -0.31740746076E+04  0.31740746076E+04  0.00000000000E+00 0. -1.
         24    2    1    2    0    0 -0.65525916993E+02 -0.31866010508E+02 -0.25864782754E+04  0.25887507251E+04  0.80320353513E+02 0.  0.
         25    2    1    2    0    0  0.89877601072E+02 -0.18160103258E+02 -0.54932628182E+03  0.57080150684E+03  0.12508886358E+03 0.  0.
        -24    2    1    2    0    0 -0.24351684079E+02  0.50026113766E+02  0.41141894396E+02  0.93934320524E+02  0.63524676479E+02 0.  0.
        -13    1    3    3    0    0 -0.14740076570E+02 -0.22877038801E+01 -0.69333750449E+02  0.70920183288E+02  0.00000000000E+00 0.  1.
         14    1    3    3    0    0 -0.50785840424E+02 -0.29578306628E+02 -0.25171445249E+04  0.25178305418E+04  0.00000000000E+00 0. -1.
         11    1    5    5    0    0 -0.34600285959E+02  0.27600897935E+02  0.50869022214E+02  0.67428827487E+02  0.00000000000E+00 0. -1.
        -12    1    5    5    0    0  0.10248601880E+02  0.22425215831E+02 -0.97271278180E+01  0.26505493037E+02  0.00000000000E+00 0.  1.
          5    1    4    4  501    0 -0.28649815993E+02  0.68579316515E+01 -0.16986264765E+03  0.17244893346E+03  0.41800000000E+01 0. -1.
         -5    1    4    4    0  501  0.11852741707E+03 -0.25018034910E+02 -0.37946363416E+03  0.39835257338E+03  0.41800000000E+01 0. -1.
</event>
<event>
11    1  0.6930157E-009  0.1677546E+03  0.7561462E-02  0.1080002E+00
         22   -1    0    0    0    0  0.00000000000E+00  0.00000000000E+00  0.11386837471E+04  0.11386837471E+04  0.00000000000E+00 0. -1.
         22   -1    0    0    0    0 -0.00000000000E+00 -0.00000000000E+00 -0.11685789300E+03  0.11685789300E+03  0.00000000000E+00 0.  1.
        -24    2    1    2    0    0  0.70917059717E+02  0.68093786530E+02 -0.48981387862E+02  0.13655759755E+03  0.81134505418E+02 0.  0.
         25    2    1    2    0    0 -0.92367076578E+01 -0.14871335120E+03  0.61269631381E+03  0.64284251051E+03  0.12509493507E+03 0.  0.
         24    2    1    2    0    0 -0.61680352059E+02  0.80619564672E+02  0.45811092811E+03  0.47614153200E+03  0.80877413397E+02 0.  0.
        -13    1    5    5    0    0 -0.18741600666E+02 -0.14635813445E+02  0.59810028457E+02  0.64363764144E+02  0.00000000000E+00 0.  1.
         14    1    5    5    0    0 -0.42938751393E+02  0.95255378117E+02  0.39830089966E+03  0.41177776785E+03  0.00000000000E+00 0. -1.
         13    1    3    3    0    0  0.49397999143E+00 -0.13790060745E+02  0.63697240863E+01  0.15198130692E+02  0.00000000000E+00 0. -1.
        -14    1    3    3    0    0  0.70423079726E+02  0.81883847276E+02 -0.55351111948E+02  0.12135946686E+03  0.00000000000E+00 0.  1.
          5    1    4    4  501    0 -0.15505571542E+02 -0.17062443813E+03  0.54043825986E+03  0.56696041022E+03  0.41800000000E+01 0. -1.
         -5    1    4    4    0  501  0.62688638843E+01  0.21911086932E+02  0.72258053946E+02  0.75882100294E+02  0.41800000000E+01 0. -1.
</event>
<event>
11    1  0.6930157E-009  0.1457246E+03  0.7561462E-02  0.1101329E+00
         22   -1    0    0    0    0  0.00000000000E+00  0.00000000000E+00  0.63702874666E+03  0.63702874666E+03  0.00000000000E+00 0. -1.
         22   -1    0    0    0    0 -0.00000000000E+00 -0.00000000000E+00 -0.29676687982E+04  0.29676687982E+04  0.00000000000E+00 0. -1.
         24    2    1    2    0    0  0.17512088636E+02  0.84711883211E+01 -0.27160048504E+04  0.27172278836E+04  0.79161793170E+02 0.  0.
         25    2    1    2    0    0 -0.20896760046E+02 -0.82969760889E+02 -0.22291444760E+03  0.26955341327E+03  0.12509011093E+03 0.  0.
        -24    2    1    2    0    0  0.33846714103E+01  0.74498572568E+02  0.60827924652E+03  0.61791624797E+03  0.79090798725E+02 0.  0.
        -13    1    3    3    0    0  0.27061002989E+02  0.24160903775E+02 -0.57448726794E+03  0.57563153855E+03  0.00000000000E+00 0.  1.
         14    1    3    3    0    0 -0.95489143530E+01 -0.15689715454E+02 -0.21415175825E+04  0.21415963450E+04  0.00000000000E+00 0. -1.
         13    1    5    5    0    0 -0.14108780451E+02  0.46307805264E+02  0.53828058628E+03  0.54045301376E+03  0.00000000000E+00 0. -1.
        -14    1    5    5    0    0  0.17493451861E+02  0.28190767304E+02  0.69998660242E+02  0.77463234214E+02  0.00000000000E+00 0.  1.
          5    1    4    4  501    0  0.30681621635E+02 -0.93285369174E+02 -0.15522625233E+03  0.18372856017E+03  0.41800000000E+01 0. -1.
         -5    1    4    4    0  501 -0.51578381682E+02  0.10315608285E+02 -0.67688195262E+02  0.85824853096E+02  0.41800000000E+01 0. -1.
</event>
<event>
11    1  0.6930157E-009  0.1678071E+03  0.7561462E-02  0.1079956E+00
         22   -1    0    0    0    0  0.00000000000E+00  0.00000000000E+00  0.16478945225E+03  0.16478945225E+03  0.00000000000E+00 0. -1.
         22   -1    0    0    0    0 -0.00000000000E+00 -0.00000000000E+00 -0.19793390997E+04  0.19793390997E+04  0.00000000000E+00 0.  1.
         24    2    1    2    0    0 -0.49258877031E+02 -0.33211376603E+02 -0.17115577378E+04  0.17145318604E+04  0.81609912156E+02 0.  0.
         25    2    1    2    0    0  0.49943461182E+02  0.14024333654E+03 -0.18846567419E+03  0.27079466813E+03  0.12509156318E+03 0.  0.
        -24    2    1    2    0    0 -0.68458415070E+00 -0.10703195994E+03  0.85473764580E+02  0.15880202346E+03  0.80349294464E+02 0.  0.
        -11    1    3    3    0    0 -0.35635281206E+02 -0.40110830976E+02 -0.16572389145E+04  0.16581072257E+04  0.00000000000E+00 0.  1.
         12    1    3    3    0    0 -0.13623595825E+02  0.68994543722E+01 -0.54318823310E+02  0.56424634688E+02  0.00000000000E+00 0. -1.
         13    1    5    5    0    0  0.94952240153E+01 -0.46145810184E+02  0.84867871820E+02  0.97067763670E+02  0.00000000000E+00 0. -1.
        -14    1    5    5    0    0 -0.10179808166E+02 -0.60886149752E+02  0.60589275945E+00  0.61734259791E+02  0.00000000000E+00 0.  1.
          5    1    4    4  501    0 -0.40200741214E+01  0.11366660537E+03 -0.59499915815E+02  0.12842885406E+03  0.41800000000E+01 0.  1.
         -5    1    4    4    0  501  0.53963535303E+02  0.26576731167E+02 -0.12896575837E+03  0.14236581407E+03  0.41800000000E+01 0.  1.
</event>
<event>
11    1  0.6930157E-009  0.1311188E+03  0.7561462E-02  0.1117902E+00
         22   -1    0    0    0    0  0.00000000000E+00  0.00000000000E+00  0.15045596544E+03  0.15045596544E+03  0.00000000000E+00 0. -1.
         22   -1    0    0    0    0 -0.00000000000E+00 -0.00000000000E+00 -0.71227823133E+03  0.71227823133E+03  0.00000000000E+00 0.  1.
        -24    2    1    2    0    0  0.20812839080E+02  0.36989944947E+02 -0.58612354279E+03  0.59305666647E+03  0.79837158869E+02 0.  0.
         25    2    1    2    0    0 -0.40532562449E+01  0.61587470210E+01 -0.63853933573E+02  0.14063860204E+03  0.12509009753E+03 0.  0.
         24    2    1    2    0    0 -0.16759582835E+02 -0.43148691968E+02  0.88155210473E+02  0.12903892826E+03  0.82079294814E+02 0.  0.
        -11    1    5    5    0    0 -0.17226199733E+02 -0.24655774526E+02 -0.79978299732E+01  0.31122571536E+02  0.00000000000E+00 0.  1.
         12    1    5    5    0    0  0.46661689790E+00 -0.18492917442E+02  0.96153040446E+02  0.97916356723E+02  0.00000000000E+00 0. -1.
         13    1    3    3    0    0 -0.77673418075E+01 -0.24171497317E+01 -0.43021206635E+01  0.92023069816E+01  0.00000000000E+00 0. -1.
        -14    1    3    3    0    0  0.28580180888E+02  0.39407094679E+02 -0.58182142212E+03  0.58385435949E+03  0.00000000000E+00 0.  1.
          5    1    4    4  501    0 -0.61418643609E+01  0.74266139868E+01 -0.10182231773E+03  0.10236275632E+03  0.41800000000E+01 0. -1.
         -5    1    4    4    0  501  0.20886081161E+01 -0.12678669658E+01  0.37968384157E+02  0.38275845726E+02  0.41800000000E+01 0. -1.
</event>
<event>
11    1  0.6930157E-009  0.1552019E+03  0.7561462E-02  0.1091679E+00
         22   -1    0    0    0    0  0.00000000000E+00  0.00000000000E+00  0.13830244889E+03  0.13830244889E+03  0.00000000000E+00 0.  1.
         22   -1    0    0    0    0 -0.00000000000E+00 -0.00000000000E+00 -0.77812335964E+03  0.77812335964E+03  0.00000000000E+00 0. -1.
        -24    2    1    2    0    0  0.34891383591E+02  0.39931750262E+02 -0.42179933448E+03  0.43319461153E+03  0.83252264600E+02 0.  0.
         25    2    1    2    0    0 -0.63624680830E+02 -0.12224475058E+03 -0.29008552869E+03  0.34465802907E+03  0.12509062312E+03 0.  0.
         24    2    1    2    0    0  0.28733297239E+02  0.82313000322E+02  0.72063952417E+02  0.13857316793E+03  0.80051716033E+02 0.  0.
        -11    1    5    5    0    0  0.48945777293E+02  0.79062367238E+02  0.41596780681E+02  0.10186677177E+03  0.00000000000E+00 0.  1.
         12    1    5    5    0    0 -0.20212480054E+02  0.32506330844E+01  0.30467171735E+02  0.36706396158E+02  0.00000000000E+00 0. -1.
         11    1    3    3    0    0  0.22746228531E+02  0.11779831760E+02 -0.38246827768E+03  0.38332510846E+03  0.00000000000E+00 0. -1.
        -12    1    3    3    0    0  0.12145155060E+02  0.28151918502E+02 -0.39331056807E+02  0.49869503069E+02  0.00000000000E+00 0.  1.
          5    1    4    4  501    0 -0.20895453293E+02 -0.54278311144E+01 -0.17099248600E+03  0.17240064961E+03  0.41800000000E+01 0.  1.
         -5    1    4    4    0  501 -0.42729227537E+02 -0.11681691947E+03 -0.11909304269E+03  0.17225737946E+03  0.41800000000E+01 0.  1.
</event>
<event>
11    1  0.1656745E-008  0.1781517E+03  0.7561462E-02  0.1071148E+00
         22   -1    0    0    0    0  0.00000000000E+00  0.00000000000E+00  0.97948029688E+03  0.97948029688E+03  0.00000000000E+00 0.  1.
         22   -1    0    0    0    0 -0.00000000000E+00 -0.00000000000E+00 -0.50163565166E+03  0.50163565166E+03  0.00000000000E+00 0. -1.
         24    2    1    2    0    0 -0.31309110326E+02  0.34754753983E+02 -0.20887321062E+03  0.22813627282E+03  0.78930270171E+02 0.  0.
         25    2    1    2    0    0 -0.40189026846E+01 -0.15603305817E+03 -0.24100498543E+03  0.31319966712E+03  0.12509261233E+03 0.  0.
        -24    2    1    2    0    0  0.35328013011E+02  0.12127830418E+03  0.92772284127E+03  0.93978000859E+03  0.80995671301E+02 0.  0.
        -11    1    3    3    0    0 -0.16400192548E+02 -0.14311386659E+02 -0.12336418935E+02  0.25019379206E+02  0.00000000000E+00 0.  1.
         12    1    3    3    0    0 -0.14908917779E+02  0.49066140642E+02 -0.19653679169E+03  0.20311689362E+03  0.00000000000E+00 0. -1.
         13    1    5    5    0    0  0.32425828777E+02  0.10285888530E+03  0.49305579320E+03  0.50471318574E+03  0.00000000000E+00 0. -1.
        -14    1    5    5    0    0  0.29021842340E+01  0.18419418882E+02  0.43466704807E+03  0.43506682285E+03  0.00000000000E+00 0.  1.
          5    1    4    4  501    0 -0.46640448915E+02 -0.14440944061E+03 -0.15822769073E+03  0.21927811684E+03  0.41800000000E+01 0. -1.
         -5    1    4    4    0  501  0.42621546231E+02 -0.11623617557E+02 -0.82777294699E+02  0.93921550274E+02  0.41800000000E+01 0. -1.
</event>
<event>
11    1  0.6930157E-009  0.1504508E+03  0.7561462E-02  0.1096419E+00
         22   -1    0    0    0    0  0.00000000000E+00  0.00000000000E+00  0.66237211464E+02  0.66237211464E+02  0.00000000000E+00 0.  1.
         22   -1    0    0    0    0 -0.00000000000E+00 -0.00000000000E+00 -0.25008796484E+04  0.25008796484E+04  0.00000000000E+00 0. -1.
         24    2    1    2    0    0 -0.12988481747E+02  0.11661984302E+01 -0.13103900373E+04  0.13130078398E+04  0.81838113896E+02 0.  0.
         25    2    1    2    0    0 -0.70619217779E+02  0.88991912898E+01 -0.11280637345E+04  0.11372079671E+04  0.12509157406E+03 0.  0.
        -24    2    1    2    0    0  0.83607699526E+02 -0.10065389720E+02  0.38113348074E+01  0.11690105297E+03  0.80992409653E+02 0.  0.
        -11    1    3    3    0    0 -0.10236645977E+02 -0.37309017650E+02 -0.89346347841E+03  0.89430069830E+03  0.00000000000E+00 0.  1.
         12    1    3    3    0    0 -0.27518357695E+01  0.38475216080E+02 -0.41692655887E+03  0.41870714150E+03  0.00000000000E+00 0. -1.
         11    1    5    5    0    0 -0.12735469379E+02  0.83153968987E+01 -0.94821083332E+01  0.17923403258E+02  0.00000000000E+00 0. -1.
        -12    1    5    5    0    0  0.96343168905E+02 -0.18380786619E+02  0.13293443141E+02  0.98977649709E+02  0.00000000000E+00 0.  1.
          5    1    4    4  501    0 -0.87222375000E+02 -0.35479709043E+02 -0.65273914823E+03  0.65950922699E+03  0.41800000000E+01 0.  1.
         -5    1    4    4    0  501  0.16603157221E+02  0.44378900332E+02 -0.47532458623E+03  0.47769874011E+03  0.41800000000E+01 0.  1.
</event>
<event>
11    1  0.6930157E-009  0.1374147E+03  0.7561462E-02  0.1110480E+00
         22   -1    0    0    0    0  0.00000000000E+00  0.00000000000E+00  0.28223482101E+02  0.28223482101E+02  0.00000000000E+00 0. -1.
         22   -1    0    0    0    0 -0.00000000000E+00 -0.00000000000E+00 -0.20774928070E+04  0.20774928070E+04  0.00000000000E+00 0. -1.
         24    2    1    2    0    0  0.44374958911E+02 -0.22837768384E+02 -0.14819594588E+04  0.14846074394E+04  0.73244187830E+02 0.  0.
         25    2    1    2    0    0 -0.78674825898E+02  0.49358885847E+02 -0.41705991391E+03  0.44521061810E+03  0.12508994697E+03 0.  0.
        -24    2    1    2    0    0  0.34299866986E+02 -0.26521117463E+02 -0.15024995222E+03  0.17589823160E+03  0.80531293245E+02 0.  0.
        -11    1    3    3    0    0 -0.50650306820E+01  0.21528660113E+02 -0.34253499600E+03  0.34324825015E+03  0.00000000000E+00 0.  1.
         12    1    3    3    0    0  0.49439989593E+02 -0.44366428497E+02 -0.11394244628E+04  0.11413591893E+04  0.00000000000E+00 0. -1.
         13    1    5    5    0    0  0.54060563073E+02  0.11139729843E+01 -0.67788046638E+02  0.86712194543E+02  0.00000000000E+00 0. -1.
        -14    1    5    5    0    0 -0.19760696087E+02 -0.27635090447E+02 -0.82461905585E+02  0.89186037061E+02  0.00000000000E+00 0.  1.
          5    1    4    4  501    0 -0.63359351737E+02  0.48914907948E+02 -0.10187880334E+03  0.12962962100E+03  0.41800000000E+01 0. -1.
         -5    1    4    4    0  501 -0.15315474161E+02  0.44397789913E+00 -0.31518111057E+03  0.31558099709E+03  0.41800000000E+01 0. -1.
</event>
<event>
11    1  0.6930157E-009  0.1505153E+03  0.7561462E-02  0.1096353E+00
         22   -1    0    0    0    0  0.00000000000E+00  0.00000000000E+00  0.60861244697E+03  0.60861244697E+03  0.00000000000E+00 0.  1.
         22   -1    0    0    0    0 -0.00000000000E+00 -0.00000000000E+00 -0.53325028253E+03  0.53325028253E+03  0.00000000000E+00 0.  1.
         24    2    1    2    0    0  0.79204433173E+02  0.20453359309E+02 -0.41989080492E+03  0.43566663736E+03  0.82495143542E+02 0.  0.
         25    2    1    2    0    0 -0.10242614750E+03  0.16767277077E+01 -0.37881642517E+02  0.16605974953E+03  0.12508754721E+03 0.  0.
        -24    2    1    2    0    0  0.23221714332E+02 -0.22130087016E+02  0.53313461188E+03  0.54013634261E+03  0.80534250184E+02 0.  0.
        -11    1    3    3    0    0  0.45216734858E+02  0.10506541747E+02 -0.37788191070E+03  0.38072257480E+03  0.00000000000E+00 0.  1.
         12    1    3    3    0    0  0.33987698315E+02  0.99468175619E+01 -0.42008894224E+02  0.54944062557E+02  0.00000000000E+00 0. -1.
         11    1    5    5    0    0  0.36713244665E+01 -0.40823940458E+02  0.13503508894E+03  0.14111891433E+03  0.00000000000E+00 0. -1.
        -12    1    5    5    0    0  0.19550389866E+02  0.18693853441E+02  0.39809952294E+03  0.39901742828E+03  0.00000000000E+00 0.  1.
          5    1    4    4  501    0 -0.27764743713E+02  0.61162739262E+01 -0.76544479041E+02  0.81760745299E+02  0.41800000000E+01 0. -1.
         -5    1    4    4    0  501 -0.74661403792E+02 -0.44395462185E+01  0.38662836524E+02  0.84299004234E+02  0.41800000000E+01 0. -1.
</event>
<event>
11    1  0.6930157E-009  0.1826611E+03  0.7561462E-02  0.1067510E+00
         22   -1    0    0    0    0  0.00000000000E+00  0.00000000000E+00  0.47415991591E+03  0.47415991591E+03  0.00000000000E+00 0.  1.
         22   -1    0    0    0    0 -0.00000000000E+00 -0.00000000000E+00 -0.36917097523E+03  0.36917097523E+03  0.00000000000E+00 0.  1.
        -24    2    1    2    0    0  0.18594853163E+02 -0.37869491802E+02 -0.10105557808E+03  0.13698147454E+03  0.82291114550E+02 0.  0.
         25    2    1    2    0    0  0.11557784262E+03  0.34843793064E+02 -0.20373591125E+03  0.26782133634E+03  0.12509044347E+03 0.  0.
         24    2    1    2    0    0 -0.13417269578E+03  0.30256987379E+01  0.40978043001E+03  0.43852808025E+03  0.79846159582E+02 0.  0.
        -13    1    5    5    0    0 -0.13402468342E+03  0.68577306061E+01  0.41252992349E+03  0.43380938442E+03  0.00000000000E+00 0.  1.
         14    1    5    5    0    0 -0.14801236570E+00 -0.38320318682E+01 -0.27494934828E+01  0.47186958274E+01  0.00000000000E+00 0. -1.
         13    1    3    3    0    0  0.19437705948E+02 -0.45873262669E+02 -0.17149746316E+02  0.52690553605E+02  0.00000000000E+00 0. -1.
        -14    1    3    3    0    0 -0.84285278524E+00  0.80037708677E+01 -0.83905831763E+02  0.84290920940E+02  0.00000000000E+00 0.  1.
          5    1    4    4  501    0  0.12028303766E+03  0.15377601400E+02 -0.86988219078E+02  0.14929468320E+03  0.41800000000E+01 0. -1.
         -5    1    4    4    0  501 -0.47051950358E+01  0.19466191664E+02 -0.11674769217E+03  0.11852665315E+03  0.41800000000E+01 0. -1.
</event>
<event>
11    1  0.6930157E-009  0.3325033E+03  0.7561462E-02  0.9873022E-01
         22   -1    0    0    0    0  0.00000000000E+00  0.00000000000E+00  0.56595110482E+03  0.56595110482E+03  0.00000000000E+00 0. -1.
         22   -1    0    0    0    0 -0.00000000000E+00 -0.00000000000E+00 -0.11554214305E+04  0.11554214305E+04  0.00000000000E+00 0. -1.
        -24    2    1    2    0    0 -0.24369344514E+02  0.21505505946E+02 -0.91550336494E+03  0.92015498512E+03  0.86501061838E+02 0.  0.
         25    2    1    2    0    0 -0.26292458135E+03  0.11071775868E+03 -0.36473246718E+02  0.31363224254E+03  0.12508848176E+03 0.  0.
         24    2    1    2    0    0  0.28729392587E+03 -0.13222326463E+03  0.36250628597E+03  0.48758530765E+03  0.79421869237E+02 0.  0.
        -13    1    5    5    0    0  0.10414628114E+03 -0.84580969462E+01  0.12975113426E+03  0.16659334957E+03  0.00000000000E+00 0.  1.
         14    1    5    5    0    0  0.18314764473E+03 -0.12376516768E+03  0.23275515171E+03  0.32099195808E+03  0.00000000000E+00 0. -1.
         13    1    3    3    0    0  0.13918750114E+02  0.44470660846E+02 -0.53995832677E+03  0.54196528112E+03  0.00000000000E+00 0. -1.
        -14    1    3    3    0    0 -0.38288094629E+02 -0.22965154900E+02 -0.37554503816E+03  0.37818970401E+03  0.00000000000E+00 0.  1.
          5    1    4    4  501    0 -0.21082783233E+03  0.26835329365E+02 -0.28630117457E+02  0.21448931398E+03  0.41800000000E+01 0. -1.
         -5    1    4    4    0  501 -0.52096749023E+02  0.83882429318E+02 -0.78431292615E+01  0.99142928561E+02  0.41800000000E+01 0. -1.
</event>
<event>
11    1  0.6930157E-009  0.1942777E+03  0.7561462E-02  0.1058646E+00
         22   -1    0    0    0    0  0.00000000000E+00  0.00000000000E+00  0.88715794703E+03  0.88715794703E+03  0.00000000000E+00 0.  1.
         22   -1    0    0    0    0 -0.00000000000E+00 -0.00000000000E+00 -0.27000563572E+03  0.27000563572E+03  0.00000000000E+00 0.  1.
         24    2    1    2    0    0  0.14074136654E+03  0.45742849312E+02 -0.21075219376E+03  0.26990923447E+03  0.80832958371E+02 0.  0.
         25    2    1    2    0    0 -0.15537108423E+03 -0.30742230845E+02  0.36395444073E+03  0.41616785492E+03  0.12509032727E+03 0.  0.
        -24    2    1    2    0    0  0.14629717685E+02 -0.15000618467E+02  0.46395006433E+03  0.47108649336E+03  0.78954257878E+02 0.  0.
        -11    1    3    3    0    0  0.11352885310E+03  0.64639215410E+02 -0.19078624105E+03  0.23122806583E+03  0.00000000000E+00 0.  1.
         12    1    3    3    0    0  0.27212513440E+02 -0.18896366098E+02 -0.19965952707E+02  0.38681168634E+02  0.00000000000E+00 0. -1.
         11    1    5    5    0    0  0.42802309656E+02 -0.11133178311E+02  0.16627633023E+03  0.17205755830E+03  0.00000000000E+00 0. -1.
        -12    1    5    5    0    0 -0.28172591971E+02 -0.38674401560E+01  0.29767373410E+03  0.29902893506E+03  0.00000000000E+00 0.  1.
          5    1    4    4  501    0  0.94815332198E+01  0.17525754698E+02  0.93922835764E+02  0.96104230020E+02  0.41800000000E+01 0. -1.
         -5    1    4    4    0  501 -0.16485261745E+03 -0.48267985543E+02  0.27003160496E+03  0.32006362490E+03  0.41800000000E+01 0. -1.
</event>
<event>
11    1  0.6930157E-009  0.1682730E+03  0.7561462E-02  0.1079544E+00
         22   -1    0    0    0    0  0.00000000000E+00  0.00000000000E+00  0.90005579812E+02  0.90005579812E+02  0.00000000000E+00 0. -1.
         22   -1    0    0    0    0 -0.00000000000E+00 -0.00000000000E+00 -0.28120902948E+04  0.28120902948E+04  0.00000000000E+00 0.  1.
        -24    2    1    2    0    0 -0.83581229401E+02  0.64754188689E+02 -0.15801630949E+04  0.15856735107E+04  0.79159012082E+02 0.  0.
         25    2    1    2    0    0  0.82085366756E+02 -0.10358444104E+03 -0.11978149843E+04  0.12115584984E+04  0.12508203072E+03 0.  0.
         24    2    1    2    0    0  0.14958626452E+01  0.38830252353E+02  0.55893364297E+02  0.10486386549E+03  0.79764252713E+02 0.  0.
        -11    1    5    5    0    0 -0.11941188480E+02  0.25708467045E+02 -0.14618328074E+02  0.31893773307E+02  0.00000000000E+00 0.  1.
         12    1    5    5    0    0  0.13437051125E+02  0.13121785308E+02  0.70511692371E+02  0.72970092186E+02  0.00000000000E+00 0. -1.
         13    1    3    3    0    0 -0.14901776657E+02  0.15046342241E+02 -0.89970814945E+03  0.89995733762E+03  0.00000000000E+00 0. -1.
        -14    1    3    3    0    0 -0.68679452744E+02  0.49707846448E+02 -0.68045494549E+03  0.68571617311E+03  0.00000000000E+00 0.  1.
          5    1    4    4  501    0  0.88031101434E+02 -0.12033131931E+03 -0.83029822733E+03  0.84358859637E+03  0.41800000000E+01 0.  1.
         -5    1    4    4    0  501 -0.59457346785E+01  0.16746878272E+02 -0.36751675702E+03  0.36796990201E+03  0.41800000000E+01 0.  1.
</event>
<event>
11    1  0.6930157E-009  0.4277200E+03  0.7561462E-02  0.9571333E-01
         22   -1    0    0    0    0  0.00000000000E+00  0.00000000000E+00  0.42080524052E+03  0.42080524052E+03  0.00000000000E+00 0. -1.
         22   -1    0    0    0    0 -0.00000000000E+00 -0.00000000000E+00 -0.47411379019E+03  0.47411379019E+03  0.00000000000E+00 0.  1.
        -24    2    1    2    0    0 -0.58434285952E+02  0.26480137664E+03 -0.28965448907E+03  0.40624351374E+03  0.87176456540E+02 0.  0.
         25    2    1    2    0    0  0.46160514667E+01  0.86865331528E+01  0.20993036681E+02  0.12722178224E+03  0.12509160842E+03 0.  0.
         24    2    1    2    0    0  0.53818234485E+02 -0.27348790980E+03  0.21535290272E+03  0.36145373474E+03  0.81116524095E+02 0.  0.
        -13    1    5    5    0    0  0.70413471785E+02 -0.15119478054E+03  0.12833638376E+03  0.21044749005E+03  0.00000000000E+00 0.  1.
         14    1    5    5    0    0 -0.16595237300E+02 -0.12229312926E+03  0.87016518959E+02  0.15100624469E+03  0.00000000000E+00 0. -1.
         13    1    3    3    0    0 -0.13339575533E+01  0.57785771921E+00 -0.34466232260E+02  0.34496877083E+02  0.00000000000E+00 0. -1.
        -14    1    3    3    0    0 -0.57100328399E+02  0.26422351892E+03 -0.25518825681E+03  0.37174663666E+03  0.00000000000E+00 0.  1.
          5    1    4    4  501    0  0.53154337503E+02  0.15911979636E+01  0.47396136271E+02  0.71356721056E+02  0.41800000000E+01 0.  1.
         -5    1    4    4    0  501 -0.48538286037E+02  0.70953351891E+01 -0.26403099590E+02  0.55865061181E+02  0.41800000000E+01 0.  1.
</event>
<event>
11    1  0.6930157E-009  0.1397340E+03  0.7561462E-02  0.1107856E+00
         22   -1    0    0    0    0  0.00000000000E+00  0.00000000000E+00  0.71319403411E+02  0.71319403411E+02  0.00000000000E+00 0. -1.
         22   -1    0    0    0    0 -0.00000000000E+00 -0.00000000000E+00 -0.18998151071E+04  0.18998151071E+04  0.00000000000E+00 0. -1.
        -24    2    1    2    0    0 -0.21277332098E+01 -0.31467262859E+02 -0.14711438836E+04  0.14736972702E+04  0.80775007822E+02 0.  0.
         25    2    1    2    0    0  0.17610705539E+02 -0.32219706024E+02 -0.36983968921E+03  0.39214255442E+03  0.12508453489E+03 0.  0.
         24    2    1    2    0    0 -0.15482972329E+02  0.63686968882E+02  0.12487869206E+02  0.10529468586E+03  0.81457176207E+02 0.  0.
        -13    1    5    5    0    0 -0.37082878894E+01  0.32935718848E+02 -0.34549643553E+02  0.47876829936E+02  0.00000000000E+00 0.  1.
         14    1    5    5    0    0 -0.11774684439E+02  0.30751250034E+02  0.47037512760E+02  0.57417855924E+02  0.00000000000E+00 0. -1.
         11    1    3    3    0    0  0.13267954999E+02 -0.25424100560E+02 -0.14118132677E+04  0.14121045026E+04  0.00000000000E+00 0. -1.
        -12    1    3    3    0    0 -0.15395688208E+02 -0.60431622986E+01 -0.59330615992E+02  0.61592767595E+02  0.00000000000E+00 0.  1.
          5    1    4    4  501    0  0.35456029009E+00 -0.67697578041E+02 -0.10955735057E+03  0.12885407735E+03  0.41800000000E+01 0. -1.
         -5    1    4    4    0  501  0.17256145249E+02  0.35477872017E+02 -0.26028233864E+03  0.26328847708E+03  0.41800000000E+01 0. -1.
</event>
<event>
11    1  0.6930157E-009  0.1608331E+03  0.7561462E-02  0.1086296E+00
         22   -1    0    0    0    0  0.00000000000E+00  0.00000000000E+00  0.18684086680E+04  0.18684086680E+04  0.00000000000E+00 0. -1.
         22   -1    0    0    0    0 -0.00000000000E+00 -0.00000000000E+00 -0.13013260147E+04  0.13013260147E+04  0.00000000000E+00 0. -1.
        -24    2    1    2    0    0  0.34894048317E+02 -0.87121133819E+02 -0.12294686091E+04  0.12355510134E+04  0.78648327910E+02 0.  0.
         25    2    1    2    0    0 -0.13326447845E+03  0.10154578407E+03  0.98061118267E+02  0.23094439370E+03  0.12509341545E+03 0.  0.
         24    2    1    2    0    0  0.98370430129E+02 -0.14424650247E+02  0.16984901442E+04  0.17032392756E+04  0.79186160101E+02 0.  0.
        -11    1    5    5    0    0 -0.11842636538E+02  0.14266023029E+01  0.75743171344E+02  0.76676666852E+02  0.00000000000E+00 0.  1.
         12    1    5    5    0    0  0.11021306667E+03 -0.15851252550E+02  0.16227469728E+04  0.16265626087E+04  0.00000000000E+00 0. -1.
         13    1    3    3    0    0  0.44112333824E+02 -0.44288599558E+02 -0.99906821955E+03  0.10010218206E+04  0.00000000000E+00 0. -1.
        -14    1    3    3    0    0 -0.92182855071E+01 -0.42832534261E+02 -0.23040038956E+03  0.23452919282E+03  0.00000000000E+00 0.  1.
          5    1    4    4  501    0 -0.12444409310E+03  0.11667179470E+03  0.47275157618E+02  0.17706228541E+03  0.41800000000E+01 0. -1.
         -5    1    4    4    0  501 -0.88203853462E+01 -0.15126010633E+02  0.50785960649E+02  0.53882108295E+02  0.41800000000E+01 0. -1.
</event>
<event>
11    1  0.6930157E-009  0.1272663E+03  0.7561462E-02  0.1122674E+00
         22   -1    0    0    0    0  0.00000000000E+00  0.00000000000E+00  0.63631184640E+03  0.63631184640E+03  0.00000000000E+00 0. -1.
         22   -1    0    0    0    0 -0.00000000000E+00 -0.00000000000E+00 -0.15068631164E+03  0.15068631164E+03  0.00000000000E+00 0. -1.
        -24    2    1    2    0    0 -0.23806421524E+02 -0.12170839630E+02 -0.57620622088E+02  0.99775719329E+02  0.76942725677E+02 0.  0.
         25    2    1    2    0    0  0.17782644631E+02 -0.61401716782E+01 -0.11048313566E+02  0.12699103251E+03  0.12510288945E+03 0.  0.
         24    2    1    2    0    0  0.60237768930E+01  0.18311011308E+02  0.55429447042E+03  0.56023140620E+03  0.79027144266E+02 0.  0.
        -13    1    5    5    0    0 -0.23228010822E+02 -0.20457114265E+02  0.16086108822E+03  0.16381185462E+03  0.00000000000E+00 0.  1.
         14    1    5    5    0    0  0.29251787715E+02  0.38768125572E+02  0.39343338219E+03  0.39641955157E+03  0.00000000000E+00 0. -1.
         13    1    3    3    0    0 -0.48739430925E+02  0.93054662281E+00 -0.51577205108E+02  0.70969050512E+02  0.00000000000E+00 0. -1.
        -14    1    3    3    0    0  0.24933009401E+02 -0.13101386252E+02 -0.60434169803E+01  0.28806668817E+02  0.00000000000E+00 0.  1.
          5    1    4    4  501    0  0.58942584294E+02  0.62117996319E+01  0.30745921121E+02  0.66899916020E+02  0.41800000000E+01 0.  1.
         -5    1    4    4    0  501 -0.41159939663E+02 -0.12351971310E+02 -0.41794234686E+02  0.60091116493E+02  0.41800000000E+01 0.  1.
</event>
<event>
11    1  0.6930157E-009  0.1959221E+03  0.7561462E-02  0.1057445E+00
         22   -1    0    0    0    0  0.00000000000E+00  0.00000000000E+00  0.22743766105E+03  0.22743766105E+03  0.00000000000E+00 0.  1.
         22   -1    0    0    0    0 -0.00000000000E+00 -0.00000000000E+00 -0.24373872666E+04  0.24373872666E+04  0.00000000000E+00 0. -1.
        -24    2    1    2    0    0  0.84159084146E+02 -0.79648407415E+02 -0.21779413485E+04  0.21824505100E+04  0.78962593911E+02 0.  0.
         25    2    1    2    0    0  0.33669298997E+02  0.17576505346E+03 -0.15803405384E+03  0.26952910753E+03  0.12507678408E+03 0.  0.
         24    2    1    2    0    0 -0.11782838314E+03 -0.96116646048E+02  0.12602579674E+03  0.21284531010E+03  0.79364268188E+02 0.  0.
        -11    1    5    5    0    0 -0.12588462682E+03 -0.10045684453E+03  0.12450639283E+03  0.20356905152E+03  0.00000000000E+00 0.  1.
         12    1    5    5    0    0  0.80562436726E+01  0.43401984804E+01  0.15194039100E+01  0.92762585779E+01  0.00000000000E+00 0. -1.
         13    1    3    3    0    0  0.50959562190E+02 -0.39279135925E+02 -0.17707211751E+04  0.17718897278E+04  0.00000000000E+00 0. -1.
        -14    1    3    3    0    0  0.33199521956E+02 -0.40369271490E+02 -0.40722017331E+03  0.41056078221E+03  0.00000000000E+00 0.  1.
          5    1    4    4  501    0  0.53361749781E+02  0.16138946729E+02 -0.55306594618E+02  0.78639899220E+02  0.41800000000E+01 0.  1.
         -5    1    4    4    0  501 -0.19692450784E+02  0.15962610673E+03 -0.10272745922E+03  0.19088920831E+03  0.41800000000E+01 0.  1.
</event>
<event>
11    1  0.6930157E-009  0.1503976E+03  0.7561462E-02  0.1096473E+00
         22   -1    0    0    0    0  0.00000000000E+00  0.00000000000E+00  0.24495120006E+04  0.24495120006E+04  0.00000000000E+00 0.  1.
         22   -1    0    0    0    0 -0.00000000000E+00 -0.00000000000E+00 -0.39473681206E+03  0.39473681206E+03  0.00000000000E+00 0. -1.
         24    2    1    2    0    0 -0.36970211675E+02  0.20575356228E+02 -0.37154417727E+03  0.38259700572E+03  0.80902727304E+02 0.  0.
         25    2    1    2    0    0 -0.20055505663E+02  0.45273845465E+02  0.26574429758E+03  0.29785811173E+03  0.12508988223E+03 0.  0.
        -24    2    1    2    0    0  0.57025717338E+02 -0.65849201693E+02  0.21605750683E+04  0.21637936952E+04  0.79564314839E+02 0.  0.
        -11    1    3    3    0    0  0.59092174946E+01 -0.25862054849E+02 -0.80139783804E+02  0.84416524926E+02  0.00000000000E+00 0.  1.
         12    1    3    3    0    0 -0.42879429170E+02  0.46437411077E+02 -0.29140439347E+03  0.29818048079E+03  0.00000000000E+00 0. -1.
         13    1    5    5    0    0  0.16329999346E+02  0.18119188915E+02  0.39083810952E+03  0.39159852112E+03  0.00000000000E+00 0. -1.
        -14    1    5    5    0    0  0.40695717992E+02 -0.83968390608E+02  0.17697369587E+04  0.17721951741E+04  0.00000000000E+00 0.  1.
          5    1    4    4  501    0  0.16936395205E+02  0.18250059146E+02  0.24683315454E+03  0.24812090747E+03  0.41800000000E+01 0. -1.
         -5    1    4    4    0  501 -0.36991900867E+02  0.27023786319E+02  0.18911143037E+02  0.49737204261E+02  0.41800000000E+01 0. -1.
</event>
<event>
11    1  0.6930157E-009  0.1448092E+03  0.7561462E-02  0.1102304E+00
         22   -1    0    0    0    0  0.00000000000E+00  0.00000000000E+00  0.56946088441E+03  0.56946088441E+03  0.00000000000E+00 0. -1.
         22   -1    0    0    0    0 -0.00000000000E+00 -0.00000000000E+00 -0.50766671917E+03  0.50766671917E+03  0.00000000000E+00 0.  1.
        -24    2    1    2    0    0 -0.18195463895E+02 -0.65313290487E+01 -0.40890332803E+03  0.41710231864E+03  0.79991745685E+02 0.  0.
         25    2    1    2    0    0  0.53099061459E+02  0.69582501710E+02 -0.23344969461E+02  0.15444486945E+03  0.12508794997E+03 0.  0.
         24    2    1    2    0    0 -0.34903597564E+02 -0.63051172661E+02  0.49404246273E+03  0.50558041549E+03  0.79623426548E+02 0.  0.
        -13    1    5    5    0    0  0.16597824670E+02  0.89314712079E+01  0.81798413593E+02  0.83941881252E+02  0.00000000000E+00 0.  1.
         14    1    5    5    0    0 -0.51501422234E+02 -0.71982643869E+02  0.41224404913E+03  0.42163853424E+03  0.00000000000E+00 0. -1.
         11    1    3    3    0    0  0.18595727290E+02  0.25944233389E+02 -0.12639136306E+03  0.13035981350E+03  0.00000000000E+00 0. -1.
        -12    1    3    3    0    0 -0.36791191185E+02 -0.32475562437E+02 -0.28251196497E+03  0.28674250514E+03  0.00000000000E+00 0.  1.
          5    1    4    4  501    0 -0.20369065877E+02  0.64880636285E+02  0.17237309069E+02  0.70277969759E+02  0.41800000000E+01 0. -1.
         -5    1    4    4    0  501  0.73468127336E+02  0.47018654243E+01 -0.40582278529E+02  0.84166899690E+02  0.41800000000E+01 0. -1.
</event>
<event>
11    1  0.6930157E-009  0.1622300E+03  0.7561462E-02  0.1084998E+00
         22   -1    0    0    0    0  0.00000000000E+00  0.00000000000E+00  0.11134069661E+03  0.11134069661E+03  0.00000000000E+00 0.  1.
         22   -1    0    0    0    0 -0.00000000000E+00 -0.00000000000E+00 -0.71906528841E+03  0.71906528841E+03  0.00000000000E+00 0.  1.
         24    2    1    2    0    0  0.98427407593E+02 -0.23685901175E+02 -0.33814634673E+03  0.36222895206E+03  0.81350386728E+02 0.  0.
         25    2    1    2    0    0 -0.11280816671E+03 -0.51709520774E+02 -0.30520356307E+03  0.35241502628E+03  0.12509028268E+03 0.  0.
        -24    2    1    2    0    0  0.14380759122E+02  0.75395421949E+02  0.35625317997E+02  0.11576200668E+03  0.78996221583E+02 0.  0.
        -11    1    3    3    0    0  0.79795448642E+02 -0.30077739440E+02 -0.33012389797E+03  0.34096007398E+03  0.00000000000E+00 0.  1.
         12    1    3    3    0    0  0.18631958951E+02  0.63918382648E+01 -0.80224487610E+01  0.21268878082E+02  0.00000000000E+00 0. -1.
         11    1    5    5    0    0  0.24872248727E+02 -0.60943682462E+01  0.19119229950E+02  0.31958019884E+02  0.00000000000E+00 0. -1.
        -12    1    5    5    0    0 -0.10491489605E+02  0.81489790195E+02  0.16506088047E+02  0.83803986796E+02  0.00000000000E+00 0.  1.
          5    1    4    4  501    0 -0.43836890907E+02  0.19015109525E+02 -0.22619052434E+02  0.53031512590E+02  0.41800000000E+01 0.  1.
         -5    1    4    4    0  501 -0.68971275807E+02 -0.70724630299E+02 -0.28258451064E+03  0.29938351369E+03  0.41800000000E+01 0.  1.
</event>
<event>
11    1  0.6930157E-009  0.1537600E+03  0.7561462E-02  0.1093098E+00
         22   -1    0    0    0    0  0.00000000000E+00  0.00000000000E+00  0.39335333643E+03  0.39335333643E+03  0.00000000000E+00 0. -1.
         22   -1    0    0    0    0 -0.00000000000E+00 -0.00000000000E+00 -0.79320861920E+03  0.79320861920E+03  0.00000000000E+00 0.  1.
         24    2    1    2    0    0 -0.30612368037E+02  0.23065519433E+02 -0.68195264665E+03  0.68763632824E+03  0.79468058845E+02 0.  0.
         25    2    1    2    0    0  0.20066851825E+02  0.68405977668E+02 -0.44009085024E+02  0.15055507098E+03  0.12509186028E+03 0.  0.
        -24    2    1    2    0    0  0.10545516212E+02 -0.91471497101E+02  0.32610644891E+03  0.34837055641E+03  0.80860286072E+02 0.  0.
        -11    1    3    3    0    0  0.10215049326E+02  0.41320425611E+02 -0.38280763612E+03  0.38516673153E+03  0.00000000000E+00 0.  1.
         12    1    3    3    0    0 -0.40827417363E+02 -0.18254906178E+02 -0.29914501053E+03  0.30246959671E+03  0.00000000000E+00 0. -1.
         11    1    5    5    0    0  0.28149580199E+02 -0.93321531511E+02  0.30797075925E+03  0.32302832021E+03  0.00000000000E+00 0. -1.
        -12    1    5    5    0    0 -0.17604063987E+02  0.18500344094E+01  0.18135689659E+02  0.25342236199E+02  0.00000000000E+00 0.  1.
          5    1    4    4  501    0  0.66358139675E+02  0.68112808067E+02 -0.41976567845E+02  0.10403010128E+03  0.41800000000E+01 0. -1.
         -5    1    4    4    0  501 -0.46291287850E+02  0.29316960091E+00 -0.20325171787E+01  0.46524969697E+02  0.41800000000E+01 0. -1.
</event>
<event>
11    1  0.6930157E-009  0.1646714E+03  0.7561462E-02  0.1082764E+00
         22   -1    0    0    0    0  0.00000000000E+00  0.00000000000E+00  0.12912612270E+04  0.12912612270E+04  0.00000000000E+00 0.  1.
         22   -1    0    0    0    0 -0.00000000000E+00 -0.00000000000E+00 -0.47560573413E+03  0.47560573413E+03  0.00000000000E+00 0. -1.
         24    2    1    2    0    0 -0.24926443200E+02  0.11554948128E+03 -0.37008663209E+03  0.39760445708E+03  0.84570555430E+02 0.  0.
         25    2    1    2    0    0  0.45798706797E+02 -0.51565076756E+02 -0.32517898880E+02  0.14649111913E+03  0.12508299466E+03 0.  0.
        -24    2    1    2    0    0 -0.20872263596E+02 -0.63984404525E+02  0.12182600238E+04  0.12227713849E+04  0.80515332001E+02 0.  0.
        -11    1    3    3    0    0 -0.39203459668E+02  0.64897725990E+02 -0.11929082700E+03  0.14134683404E+03  0.00000000000E+00 0.  1.
         12    1    3    3    0    0  0.14277016468E+02  0.50651755291E+02 -0.25079580510E+03  0.25625762304E+03  0.00000000000E+00 0. -1.
         13    1    5    5    0    0  0.27675604931E+02 -0.45652103683E+01  0.29709561218E+03  0.29841679415E+03  0.00000000000E+00 0. -1.
        -14    1    5    5    0    0 -0.48547868527E+02 -0.59419194156E+02  0.92116441161E+03  0.92435459073E+03  0.00000000000E+00 0.  1.
          5    1    4    4  501    0  0.49662199394E+02  0.30758546694E+02 -0.22941562683E+01  0.58610219215E+02  0.41800000000E+01 0.  1.
         -5    1    4    4    0  501 -0.38634925975E+01 -0.82323623450E+02 -0.30223742612E+02  0.87880899919E+02  0.41800000000E+01 0.  1.
</event>
<event>
11    1  0.6930157E-009  0.1356918E+03  0.7561462E-02  0.1112467E+00
         22   -1    0    0    0    0  0.00000000000E+00  0.00000000000E+00  0.24853854625E+04  0.24853854625E+04  0.00000000000E+00 0.  1.
         22   -1    0    0    0    0 -0.00000000000E+00 -0.00000000000E+00 -0.28044330406E+03  0.28044330406E+03  0.00000000000E+00 0.  1.
        -24    2    1    2    0    0 -0.35767426136E+02 -0.18468770407E+01 -0.16597339438E+03  0.18800044334E+03  0.80711085526E+02 0.  0.
         25    2    1    2    0    0  0.52497888115E+02 -0.47906950308E+02 -0.52053157390E+02  0.15299779261E+03  0.12509072389E+03 0.  0.
         24    2    1    2    0    0 -0.16730461979E+02  0.49753827348E+02  0.24229687102E+04  0.24248305306E+04  0.79185729751E+02 0.  0.
        -13    1    5    5    0    0 -0.45077733181E+02  0.39221190702E+02  0.11986236877E+04  0.12001120983E+04  0.00000000000E+00 0.  1.
         14    1    5    5    0    0  0.28347271202E+02  0.10532636647E+02  0.12243450225E+04  0.12247184323E+04  0.00000000000E+00 0. -1.
         13    1    3    3    0    0 -0.11170319714E+02  0.18452883282E+02 -0.28138374681E+01  0.21753221031E+02  0.00000000000E+00 0. -1.
        -14    1    3    3    0    0 -0.24597106422E+02 -0.20299760323E+02 -0.16315955692E+03  0.16624722231E+03  0.00000000000E+00 0.  1.
          5    1    4    4  501    0 -0.21293165176E+02  0.40712314534E+01  0.25637172456E+02  0.33833575340E+02  0.41800000000E+01 0. -1.
         -5    1    4    4    0  501  0.73791053291E+02 -0.51978181761E+02 -0.77690329846E+02  0.11916421727E+03  0.41800000000E+01 0. -1.
</event>
<event>
11    1  0.7423471E-009  0.1827451E+03  0.7561462E-02  0.1067444E+00
         22   -1    0    0    0    0  0.00000000000E+00  0.00000000000E+00  0.54477033426E+03  0.54477033426E+03  0.00000000000E+00 0. -1.
         22   -1    0    0    0    0 -0.00000000000E+00 -0.00000000000E+00 -0.75300725038E+03  0.75300725038E+03  0.00000000000E+00 0. -1.
         24    2    1    2    0    0 -0.41972986511E+02  0.16667833525E+02 -0.56782116747E+03  0.57529094890E+03  0.80617922300E+02 0.  0.
         25    2    1    2    0    0 -0.20983904624E+02 -0.13442968311E+03 -0.11861258503E+03  0.21960866909E+03  0.12508940106E+03 0.  0.
        -24    2    1    2    0    0  0.62956891135E+02  0.11776184958E+03  0.47819683638E+03  0.50287796665E+03  0.79891248959E+02 0.  0.
        -13    1    3    3    0    0 -0.20594521207E+01  0.20478608482E+02 -0.32491265092E+02  0.38461630954E+02  0.00000000000E+00 0.  1.
         14    1    3    3    0    0 -0.39913534390E+02 -0.38107749567E+01 -0.53532990237E+03  0.53682931795E+03  0.00000000000E+00 0. -1.
         11    1    5    5    0    0  0.77493210916E+02  0.10880054581E+03  0.45413518488E+03  0.47337249884E+03  0.00000000000E+00 0. -1.
        -12    1    5    5    0    0 -0.14536319781E+02  0.89613037735E+01  0.24061651494E+02  0.29505467810E+02  0.00000000000E+00 0.  1.
          5    1    4    4  501    0 -0.54070214260E+02 -0.99468248402E+02 -0.27660355478E+02  0.11661941595E+03  0.41800000000E+01 0.  1.
         -5    1    4    4    0  501  0.33086309636E+02 -0.34961434705E+02 -0.90952229554E+02  0.10298925314E+03  0.41800000000E+01 0.  1.
</event>
<event>
11    1  0.6930157E-009  0.1351205E+03  0.7561462E-02  0.1113133E+00
         22   -1    0    0    0    0  0.00000000000E+00  0.00000000000E+00  0.35339340725E+04  0.35339340725E+04  0.00000000000E+00 0.  1.
         22   -1    0    0    0    0 -0.00000000000E+00 -0.00000000000E+00 -0.58210113343E+03  0.58210113343E+03  0.00000000000E+00 0.  1.
        -24    2    1    2    0    0  0.57436104708E+01 -0.82721859761E+01 -0.52790967447E+03  0.53381761133E+03  0.78556983419E+02 0.  0.
         25    2    1    2    0    0 -0.50980090950E+02 -0.15615333303E+02  0.40786983546E+02  0.14193436883E+03  0.12505590238E+03 0.  0.
         24    2    1    2    0    0  0.45236480479E+02  0.23887519279E+02  0.34389556300E+04  0.34402832258E+04  0.80721098482E+02 0.  0.
        -11    1    5    5    0    0 -0.21600433559E+02  0.85535610206E+01  0.13563511401E+04  0.13565500939E+04  0.00000000000E+00 0.  1.
         12    1    5    5    0    0  0.66836914038E+02  0.15333958258E+02  0.20826044900E+04  0.20837331319E+04  0.00000000000E+00 0. -1.
         11    1    3    3    0    0 -0.16041572002E+02 -0.13234954364E+02 -0.37350924184E+02  0.42750293410E+02  0.00000000000E+00 0. -1.
        -12    1    3    3    0    0  0.21785182472E+02  0.49627683875E+01 -0.49055875029E+03  0.49106731792E+03  0.00000000000E+00 0.  1.
          5    1    4    4  501    0  0.16141611023E+02 -0.17599720694E+02 -0.33729101733E+02  0.41538253196E+02  0.41800000000E+01 0. -1.
         -5    1    4    4    0  501 -0.67121701973E+02  0.19843873911E+01  0.74516085279E+02  0.10039611563E+03  0.41800000000E+01 0. -1.
</event>
<event>
11    1  0.6930157E-009  0.1253013E+03  0.7561462E-02  0.1125181E+00
         22   -1    0    0    0    0  0.00000000000E+00  0.00000000000E+00  0.85766034519E+03  0.85766034519E+03  0.00000000000E+00 0.  1.
         22   -1    0    0    0    0 -0.00000000000E+00 -0.00000000000E+00 -0.14679492888E+03  0.14679492888E+03  0.00000000000E+00 0. -1.
         24    2    1    2    0    0 -0.54005732907E+00  0.69800963116E+01 -0.11584660757E+03  0.13937162489E+03  0.77168646051E+02 0.  0.
         25    2    1    2    0    0 -0.17356960662E+01 -0.12483655324E+02  0.21910675096E+03  0.25261512182E+03  0.12509107550E+03 0.  0.
        -24    2    1    2    0    0  0.22757533952E+01  0.55035590122E+01  0.60760527292E+03  0.61246852736E+03  0.76798835314E+02 0.  0.
        -11    1    3    3    0    0  0.33168329539E+02  0.71863118026E+01 -0.92056459919E+02  0.98113062202E+02  0.00000000000E+00 0.  1.
         12    1    3    3    0    0 -0.33708386868E+02 -0.20621549103E+00 -0.23790147649E+02  0.41258562690E+02  0.00000000000E+00 0. -1.
         11    1    5    5    0    0  0.22727643008E+02 -0.14745701426E+02  0.88214592167E+02  0.92281069231E+02  0.00000000000E+00 0. -1.
        -12    1    5    5    0    0 -0.20451889612E+02  0.20249260438E+02  0.51939068076E+03  0.52018745813E+03  0.00000000000E+00 0.  1.
          5    1    4    4  501    0 -0.33223583982E+02 -0.59499354556E+02  0.13289130065E+03  0.14940398226E+03  0.41800000000E+01 0.  1.
         -5    1    4    4    0  501  0.31487887916E+02  0.47015699232E+02  0.86215450302E+02  0.10321113957E+03  0.41800000000E+01 0.  1.
</event>
<event>
11    1  0.6930157E-009  0.1332032E+03  0.7561462E-02  0.1115395E+00
         22   -1    0    0    0    0  0.00000000000E+00  0.00000000000E+00  0.79396277679E+03  0.79396277679E+03  0.00000000000E+00 0. -1.
         22   -1    0    0    0    0 -0.00000000000E+00 -0.00000000000E+00 -0.25460065761E+03  0.25460065761E+03  0.00000000000E+00 0. -1.
         24    2    1    2    0    0  0.16180783338E+02  0.20990501830E+02 -0.22850598673E+03  0.24331392256E+03  0.79273324794E+02 0.  0.
         25    2    1    2    0    0 -0.47783783774E+02  0.12985381178E+02  0.33512704872E+03  0.36112296851E+03  0.12509096484E+03 0.  0.
        -24    2    1    2    0    0  0.31603000436E+02 -0.33975883009E+02  0.43274105718E+03  0.44412654334E+03  0.88489850640E+02 0.  0.
        -13    1    3    3    0    0  0.30608309431E+02  0.29775183205E+02 -0.58267129320E+02  0.72239106447E+02  0.00000000000E+00 0.  1.
         14    1    3    3    0    0 -0.14427526093E+02 -0.87846813745E+01 -0.17023885741E+03  0.17107481611E+03  0.00000000000E+00 0. -1.
         13    1    5    5    0    0  0.13039634167E+02 -0.50808403477E+02  0.39714878514E+03  0.40059790746E+03  0.00000000000E+00 0. -1.
        -14    1    5    5    0    0  0.18563366269E+02  0.16832520468E+02  0.35592272040E+02  0.43528635880E+02  0.00000000000E+00 0.  1.
          5    1    4    4  501    0  0.38544229623E+02 -0.31648160138E+01  0.16610816476E+03  0.17060207647E+03  0.41800000000E+01 0.  1.
         -5    1    4    4    0  501 -0.86328013396E+02  0.16150197192E+02  0.16901888397E+03  0.19052089204E+03  0.41800000000E+01 0.  1.
</event>
<event>
11    1  0.6930157E-009  0.1293914E+03  0.7561462E-02  0.1120019E+00
         22   -1    0    0    0    0  0.00000000000E+00  0.00000000000E+00  0.15033787798E+04  0.15033787798E+04  0.00000000000E+00 0.  1.
         22   -1    0    0    0    0 -0.00000000000E+00 -0.00000000000E+00 -0.21029860639E+03  0.21029860639E+03  0.00000000000E+00 0.  1.
         24    2    1    2    0    0  0.32743685281E+02 -0.90767831841E+01 -0.18884441666E+03  0.20843663969E+03  0.81419175515E+02 0.  0.
         25    2    1    2    0    0  0.23735273034E+01 -0.32720801349E+01  0.38598102350E+03  0.40576523614E+03  0.12509091182E+03 0.  0.
        -24    2    1    2    0    0 -0.35117212585E+02  0.12348863319E+02  0.10959435666E+04  0.10994755104E+04  0.79802153637E+02 0.  0.
        -11    1    3    3    0    0  0.66946382092E+01  0.55907397463E+01 -0.17546995812E+03  0.17568659811E+03  0.00000000000E+00 0.  1.
         12    1    3    3    0    0  0.26049047072E+02 -0.14667522930E+02 -0.13374458540E+02  0.32750041580E+02  0.00000000000E+00 0. -1.
         13    1    5    5    0    0 -0.48091115974E+02 -0.17649432695E+02  0.49497166730E+03  0.49761552361E+03  0.00000000000E+00 0. -1.
        -14    1    5    5    0    0  0.12973903390E+02  0.29998296014E+02  0.60097189931E+03  0.60185998678E+03  0.00000000000E+00 0.  1.
          5    1    4    4  501    0 -0.97530622925E+01 -0.59521661795E+02  0.13012255958E+03  0.14348276328E+03  0.41800000000E+01 0. -1.
         -5    1    4    4    0  501  0.12126589596E+02  0.56249581660E+02  0.25585846392E+03  0.26228247286E+03  0.41800000000E+01 0. -1.
</event>
<event>
11    1  0.6930157E-009  0.1454887E+03  0.7561462E-02  0.1101580E+00
         22   -1    0    0    0    0  0.00000000000E+00  0.00000000000E+00  0.50403348340E+03  0.50403348340E+03  0.00000000000E+00 0.  1.
         22   -1    0    0    0    0 -0.00000000000E+00 -0.00000000000E+00 -0.17977829613E+03  0.17977829613E+03  0.00000000000E+00 0.  1.
        -24    2    1    2    0    0 -0.34210299614E+00  0.83044568750E+02 -0.10562677497E+03  0.15654358299E+03  0.80326585587E+02 0.  0.
         25    2    1    2    0    0 -0.35279703995E+01 -0.39897536677E+02  0.56896868750E+02  0.14314058083E+03  0.12509081581E+03 0.  0.
         24    2    1    2    0    0  0.38700733956E+01 -0.43147032073E+02  0.37298509349E+03  0.38412761570E+03  0.80990748470E+02 0.  0.
        -13    1    5    5    0    0 -0.87778556163E+01  0.59147537653E+01  0.26099697404E+03  0.26121151491E+03  0.00000000000E+00 0.  1.
         14    1    5    5    0    0  0.12647929012E+02 -0.49061785838E+02  0.11198811944E+03  0.12291610079E+03  0.00000000000E+00 0. -1.
         13    1    3    3    0    0 -0.22868134729E+02  0.70200566532E+02 -0.35791118651E+02  0.82049224869E+02  0.00000000000E+00 0. -1.
        -14    1    3    3    0    0  0.22526031733E+02  0.12844002219E+02 -0.69835656320E+02  0.74494358124E+02  0.00000000000E+00 0.  1.
          5    1    4    4  501    0 -0.53253427634E+02 -0.54683103394E+02  0.48207906612E+02  0.90375018735E+02  0.41800000000E+01 0.  1.
         -5    1    4    4    0  501  0.49725457234E+02  0.14785566717E+02  0.86889621385E+01  0.52765562096E+02  0.41800000000E+01 0.  1.
</event>
<event>
11    1  0.6930157E-009  0.2062724E+03  0.7561462E-02  0.1050175E+00
         22   -1    0    0    0    0  0.00000000000E+00  0.00000000000E+00  0.67317094336E+03  0.67317094336E+03  0.00000000000E+00 0.  1.
         22   -1    0    0    0    0 -0.00000000000E+00 -0.00000000000E+00 -0.16649445426E+04  0.16649445426E+04  0.00000000000E+00 0.  1.
        -24    2    1    2    0    0 -0.95722660047E+01 -0.14885588347E+03 -0.89302829166E+03  0.90898525533E+03  0.80653347061E+02 0.  0.
         25    2    1    2    0    0 -0.62432851419E+02  0.19996973060E+03 -0.73866446738E+03  0.77791947394E+03  0.12509100072E+03 0.  0.
         24    2    1    2    0    0  0.72005117424E+02 -0.51113847132E+02  0.63991915985E+03  0.65121075664E+03  0.82350204150E+02 0.  0.
        -13    1    5    5    0    0  0.49843306179E+02 -0.27815918852E+02  0.58339432922E+03  0.58618002685E+03  0.00000000000E+00 0.  1.
         14    1    5    5    0    0  0.22161811245E+02 -0.23297928280E+02  0.56524830624E+02  0.65030729789E+02  0.00000000000E+00 0. -1.
         11    1    3    3    0    0  0.18424506257E+02 -0.12023674128E+03 -0.53123118013E+03  0.54497972726E+03  0.00000000000E+00 0. -1.
        -12    1    3    3    0    0 -0.27996772261E+02 -0.28619142193E+02 -0.36179711153E+03  0.36400552807E+03  0.00000000000E+00 0.  1.
          5    1    4    4  501    0 -0.29529357015E+01  0.17814659797E+03 -0.58818788168E+03  0.61459530323E+03  0.41800000000E+01 0.  1.
         -5    1    4    4    0  501 -0.59479915718E+02  0.21823132634E+02 -0.15047658570E+03  0.16332417070E+03  0.41800000000E+01 0.  1.
</event>
<event>
11    1  0.6930157E-009  0.1387441E+03  0.7561462E-02  0.1108969E+00
         22   -1    0    0    0    0  0.00000000000E+00  0.00000000000E+00  0.24917160409E+04  0.24917160409E+04  0.00000000000E+00 0.  1.
         22   -1    0    0    0    0 -0.00000000000E+00 -0.00000000000E+00 -0.31374829828E+03  0.31374829828E+03  0.00000000000E+00 0.  1.
        -24    2    1    2    0    0  0.17516166086E+02  0.12441217962E+02 -0.29939220925E+03  0.31086411526E+03  0.80865340057E+02 0.  0.
         25    2    1    2    0    0  0.43601181045E+02 -0.26275429148E+02  0.64528159268E+03  0.65926190529E+03  0.12508582957E+03 0.  0.
         24    2    1    2    0    0 -0.61117347131E+02  0.13834211187E+02  0.18320783592E+04  0.18353383186E+04  0.89604207772E+02 0.  0.
        -11    1    5    5    0    0 -0.72820132493E+02  0.23137560032E+02  0.17632632838E+04  0.17649179942E+04  0.00000000000E+00 0.  1.
         12    1    5    5    0    0  0.11702785362E+02 -0.93033488458E+01  0.68815075398E+02  0.70420324388E+02  0.00000000000E+00 0. -1.
         13    1    3    3    0    0 -0.26843035149E+02  0.15869214391E+02 -0.62695169962E+02  0.70021888278E+02  0.00000000000E+00 0. -1.
        -14    1    3    3    0    0  0.44359201235E+02 -0.34279964290E+01 -0.23669703928E+03  0.24084222699E+03  0.00000000000E+00 0.  1.
          5    1    4    4  501    0  0.23434006818E+02  0.49460321618E+02  0.31786888395E+03  0.32257336510E+03  0.41800000000E+01 0.  1.
         -5    1    4    4    0  501  0.20167174227E+02 -0.75735750766E+02  0.32741270873E+03  0.33668854019E+03  0.41800000000E+01 0.  1.
</event>
<event>
11    1  0.1193943E-008  0.1815493E+03  0.7561462E-02  0.1068396E+00
         22   -1    0    0    0    0  0.00000000000E+00  0.00000000000E+00  0.20979741471E+04  0.20979741471E+04  0.00000000000E+00 0. -1.
         22   -1    0    0    0    0 -0.00000000000E+00 -0.00000000000E+00 -0.43300108577E+03  0.43300108577E+03  0.00000000000E+00 0. -1.
        -24    2    1    2    0    0 -0.50839405841E+00  0.84944135905E+01 -0.28357610472E+03  0.29523541568E+03  0.81707588227E+02 0.  0.
         25    2    1    2    0    0  0.86122575504E+02  0.91584562189E+02 -0.84774295926E+02  0.19656782019E+03  0.12508955449E+03 0.  0.
         24    2    1    2    0    0 -0.85614181445E+02 -0.10007897578E+03  0.20333234620E+04  0.20391719970E+04  0.80452115393E+02 0.  0.
        -13    1    5    5    0    0 -0.47802862742E+02 -0.57921461041E+00  0.59970118716E+03  0.60160365944E+03  0.00000000000E+00 0.  1.
         14    1    5    5    0    0 -0.37811318703E+02 -0.99499761169E+02  0.14336222748E+04  0.14375683376E+04  0.00000000000E+00 0. -1.
         13    1    3    3    0    0  0.30439531251E+02  0.25885147809E+02 -0.90581797064E+02  0.99003373171E+02  0.00000000000E+00 0. -1.
        -14    1    3    3    0    0 -0.30947925310E+02 -0.17390734219E+02 -0.19299430766E+03  0.19623204251E+03  0.00000000000E+00 0.  1.
          5    1    4    4  501    0  0.27520740712E+02  0.11139943864E+03 -0.47789335541E+02  0.12437250134E+03  0.41800000000E+01 0.  1.
         -5    1    4    4    0  501  0.58601834791E+02 -0.19814876449E+02 -0.36984960385E+02  0.72195318853E+02  0.41800000000E+01 0.  1.
</event>
<event>
11    1  0.6930157E-009  0.1396602E+03  0.7561462E-02  0.1107938E+00
         22   -1    0    0    0    0  0.00000000000E+00  0.00000000000E+00  0.90978181662E+02  0.90978181662E+02  0.00000000000E+00 0. -1.
         22   -1    0    0    0    0 -0.00000000000E+00 -0.00000000000E+00 -0.59869935491E+03  0.59869935491E+03  0.00000000000E+00 0.  1.
         24    2    1    2    0    0  0.63636646177E+02  0.45928936666E+01 -0.40148257127E+03  0.41446899222E+03  0.80781019201E+02 0.  0.
         25    2    1    2    0    0 -0.34176991870E+02 -0.64602752670E+02 -0.87333276212E+02  0.16916100273E+03  0.12508701486E+03 0.  0.
        -24    2    1    2    0    0 -0.29459654306E+02  0.60009859004E+02 -0.18905325761E+02  0.10604754162E+03  0.80122502034E+02 0.  0.
        -13    1    3    3    0    0 -0.10187541779E+02 -0.22821841914E+01 -0.19143871267E+03  0.19172317304E+03  0.00000000000E+00 0.  1.
         14    1    3    3    0    0  0.73824187956E+02  0.68750778580E+01 -0.21004385861E+03  0.22274581918E+03  0.00000000000E+00 0. -1.
         13    1    5    5    0    0 -0.18236204426E+02  0.54579472934E+02  0.23266662934E+02  0.62071053009E+02  0.00000000000E+00 0. -1.
        -14    1    5    5    0    0 -0.11223449880E+02  0.54303860701E+01 -0.42171988695E+02  0.43976488611E+02  0.00000000000E+00 0.  1.
          5    1    4    4  501    0 -0.68246028265E+02 -0.32104487528E+02 -0.94898848569E+02  0.12129089971E+03  0.41800000000E+01 0. -1.
         -5    1    4    4    0  501  0.34069036395E+02 -0.32498265142E+02  0.75655723573E+01  0.47870103021E+02  0.41800000000E+01 0. -1.
</event>
<event>
11    1  0.6930157E-009  0.1765363E+03  0.7561462E-02  0.1072480E+00
         22   -1    0    0    0    0  0.00000000000E+00  0.00000000000E+00  0.12009272916E+03  0.12009272916E+03  0.00000000000E+00 0. -1.
         22   -1    0    0    0    0 -0.00000000000E+00 -0.00000000000E+00 -0.29632699351E+04  0.29632699351E+04  0.00000000000E+00 0.  1.
         24    2    1    2    0    0  0.10294723586E+03  0.68987119000E+02 -0.25899216477E+04  0.25941478551E+04  0.80941935512E+02 0.  0.
         25    2    1    2    0    0 -0.14316461175E+03 -0.22860807577E+02 -0.31598810214E+03  0.36947871604E+03  0.12508924148E+03 0.  0.
        -24    2    1    2    0    0  0.40217375884E+02 -0.46126311423E+02  0.62732543847E+02  0.11973609318E+03  0.81586065129E+02 0.  0.
        -11    1    3    3    0    0  0.96872376424E+02  0.85381242000E+02 -0.21454052762E+04  0.21492877921E+04  0.00000000000E+00 0.  1.
         12    1    3    3    0    0  0.60748594405E+01 -0.16394123000E+02 -0.44451637145E+03  0.44486006302E+03  0.00000000000E+00 0. -1.
         13    1    5    5    0    0  0.25035086153E+02 -0.61355824472E+02  0.70609074389E+02  0.96834570900E+02  0.00000000000E+00 0. -1.
        -14    1    5    5    0    0  0.15182289731E+02  0.15229513049E+02 -0.78765305423E+01  0.22901522277E+02  0.00000000000E+00 0.  1.
          5    1    4    4  501    0  0.91229689402E+01  0.28574770724E+02 -0.41756320024E+02  0.51583027695E+02  0.41800000000E+01 0. -1.
         -5    1    4    4    0  501 -0.15228758069E+03 -0.51435578301E+02 -0.27423178211E+03  0.31789568834E+03  0.41800000000E+01 0. -1.
</event>
<event>
11    1  0.6930157E-009  0.1540906E+03  0.7561462E-02  0.1092771E+00
         22   -1    0    0    0    0  0.00000000000E+00  0.00000000000E+00  0.13525474881E+04  0.13525474881E+04  0.00000000000E+00 0.  1.
         22   -1    0    0    0    0 -0.00000000000E+00 -0.00000000000E+00 -0.34653270804E+03  0.34653270804E+03  0.00000000000E+00 0. -1.
        -24    2    1    2    0    0  0.94345177486E+01 -0.89290418566E+02 -0.29997154325E+03  0.32437127897E+03  0.84687725739E+02 0.  0.
         25    2    1    2    0    0  0.29316079678E+02  0.96177401591E+02  0.16496392757E+03  0.23015320484E+03  0.12509146731E+03 0.  0.
         24    2    1    2    0    0 -0.38750597426E+02 -0.68869830250E+01  0.11410223957E+04  0.11445557123E+04  0.80787571644E+02 0.  0.
        -13    1    5    5    0    0 -0.49239092992E+02 -0.16762623136E+02  0.10970751905E+04  0.10983075377E+04  0.00000000000E+00 0.  1.
         14    1    5    5    0    0  0.10488495566E+02  0.98756401110E+01  0.43947205262E+02  0.46248174636E+02  0.00000000000E+00 0. -1.
         11    1    3    3    0    0  0.59952522120E+01 -0.44807924346E+02 -0.26174218628E+03  0.26561751676E+03  0.00000000000E+00 0. -1.
        -12    1    3    3    0    0  0.34392655366E+01 -0.44482494220E+02 -0.38229356968E+02  0.58753762209E+02  0.00000000000E+00 0.  1.
          5    1    4    4  501    0  0.42209353478E+02  0.79878713886E+02  0.32654273990E+02  0.96156187855E+02  0.41800000000E+01 0.  1.
         -5    1    4    4    0  501 -0.12893273800E+02  0.16298687705E+02  0.13230965358E+03  0.13399701699E+03  0.41800000000E+01 0.  1.
</event>
<event>
11    1  0.6930157E-009  0.1361545E+03  0.7561462E-02  0.1111930E+00
         22   -1    0    0    0    0  0.00000000000E+00  0.00000000000E+00  0.21027381145E+03  0.21027381145E+03  0.00000000000E+00 0. -1.
         22   -1    0    0    0    0 -0.00000000000E+00 -0.00000000000E+00 -0.15132711528E+03  0.15132711528E+03  0.00000000000E+00 0. -1.
        -24    2    1    2    0    0  0.61857024423E+02 -0.86547592376E+01  0.53572170272E+01  0.10247067922E+03  0.81057658476E+02 0.  0.
         25    2    1    2    0    0 -0.31952239761E+02  0.43294899054E+02 -0.23473412164E+02  0.13817981877E+03  0.12508903760E+03 0.  0.
         24    2    1    2    0    0 -0.29904784661E+02 -0.34640139816E+02  0.77062891309E+02  0.12095042874E+03  0.81216264159E+02 0.  0.
        -11    1    5    5    0    0 -0.11682849250E+02  0.21081788833E+02 -0.25015631029E-01  0.24102518806E+02  0.00000000000E+00 0.  1.
         12    1    5    5    0    0 -0.18221935411E+02 -0.55721928650E+02  0.77087906940E+02  0.96847909936E+02  0.00000000000E+00 0. -1.
         11    1    3    3    0    0  0.73483100073E+02 -0.69538035723E-01  0.25410116223E+02  0.77752458728E+02  0.00000000000E+00 0. -1.
        -12    1    3    3    0    0 -0.11626075650E+02 -0.85852212019E+01 -0.20052899195E+02  0.24718220491E+02  0.00000000000E+00 0.  1.
          5    1    4    4  501    0 -0.23445548583E+02 -0.35172547675E+02 -0.38961074532E+02  0.57638872187E+02  0.41800000000E+01 0. -1.
         -5    1    4    4    0  501 -0.85066911781E+01  0.78467446729E+02  0.15487662369E+02  0.80540946583E+02  0.41800000000E+01 0. -1.
</event>
<event>
11    1  0.6930157E-009  0.1448529E+03  0.7561462E-02  0.1102257E+00
         22   -1    0    0    0    0  0.00000000000E+00  0.00000000000E+00  0.98317392175E+03  0.98317392175E+03  0.00000000000E+00 0. -1.
         22   -1    0    0    0    0 -0.00000000000E+00 -0.00000000000E+00 -0.27971531140E+03  0.27971531140E+03  0.00000000000E+00 0. -1.
        -24    2    1    2    0    0  0.38164501762E+02  0.66543634162E+02 -0.19957078424E+03  0.22835057642E+03  0.80192913564E+02 0.  0.
         25    2    1    2    0    0 -0.68805471566E+01 -0.57567929166E+02  0.11265030838E+02  0.13833472981E+03  0.12509271823E+03 0.  0.
         24    2    1    2    0    0 -0.31283954606E+02 -0.89757049954E+01  0.89176436376E+03  0.89620392692E+03  0.82937018691E+02 0.  0.
        -13    1    5    5    0    0 -0.15818879145E+02  0.33213595170E+02  0.23076183954E+03  0.23367585761E+03  0.00000000000E+00 0.  1.
         14    1    5    5    0    0 -0.15465075461E+02 -0.42189300165E+02  0.66100252421E+03  0.66252806931E+03  0.00000000000E+00 0. -1.
         13    1    3    3    0    0  0.60221861374E+02  0.47964525112E+02 -0.17203665950E+03  0.18847779834E+03  0.00000000000E+00 0. -1.
        -14    1    3    3    0    0 -0.22057359612E+02  0.18579109049E+02 -0.27534124740E+02  0.39872778074E+02  0.00000000000E+00 0.  1.
          5    1    4    4  501    0 -0.21998511578E+02 -0.87659102777E+02 -0.19476673573E+02  0.92546561389E+02  0.41800000000E+01 0.  1.
         -5    1    4    4    0  501  0.15117964421E+02  0.30091173611E+02  0.30741704411E+02  0.45788168424E+02  0.41800000000E+01 0.  1.
</event>
<event>
11    1  0.6930157E-009  0.1297071E+03  0.7561462E-02  0.1119629E+00
         22   -1    0    0    0    0  0.00000000000E+00  0.00000000000E+00  0.53239362424E+03  0.53239362424E+03  0.00000000000E+00 0.  1.
         22   -1    0    0    0    0 -0.00000000000E+00 -0.00000000000E+00 -0.13468918066E+04  0.13468918066E+04  0.00000000000E+00 0.  1.
        -24    2    1    2    0    0  0.31277753813E+02  0.20668480732E+02 -0.12893548843E+04  0.12924013031E+04  0.80371803344E+02 0.  0.
         25    2    1    2    0    0 -0.11640152015E+02 -0.48724346802E+02  0.36796728513E+02  0.13968167308E+03  0.12508962968E+03 0.  0.
         24    2    1    2    0    0 -0.19637601797E+02  0.28055866070E+02  0.43805997337E+03  0.44720245466E+03  0.83190913917E+02 0.  0.
        -13    1    5    5    0    0  0.26424612993E+02  0.34173929966E+02  0.19291098400E+03  0.19768855660E+03  0.00000000000E+00 0.  1.
         14    1    5    5    0    0 -0.46062214790E+02 -0.61180638959E+01  0.24514898937E+03  0.24951389806E+03  0.00000000000E+00 0. -1.
         13    1    3    3    0    0  0.13156209872E+02  0.34835825532E+02 -0.24686343641E+03  0.24965611715E+03  0.00000000000E+00 0. -1.
        -14    1    3    3    0    0  0.18121543941E+02 -0.14167344800E+02 -0.10424914478E+04  0.10427451860E+04  0.00000000000E+00 0.  1.
          5    1    4    4  501    0 -0.35996482021E+02 -0.10310203426E+01  0.68360793337E+02  0.77378809674E+02  0.41800000000E+01 0.  1.
         -5    1    4    4    0  501  0.24356330006E+02 -0.47693326459E+02 -0.31564064824E+02  0.62302863404E+02  0.41800000000E+01 0.  1.
</event>
<event>
11    1  0.6930157E-009  0.1545081E+03  0.7561462E-02  0.1092359E+00
         22   -1    0    0    0    0  0.00000000000E+00  0.00000000000E+00  0.51964308687E+03  0.51964308687E+03  0.00000000000E+00 0.  1.
         22   -1    0    0    0    0 -0.00000000000E+00 -0.00000000000E+00 -0.60957170813E+03  0.60957170813E+03  0.00000000000E+00 0. -1.
        -24    2    1    2    0    0  0.22064433614E+02 -0.92372902360E+00 -0.25535116174E+03  0.26617402071E+03  0.71810173323E+02 0.  0.
         25    2    1    2    0    0  0.63321393642E+02 -0.30923739252E+02 -0.32623126084E+03  0.35642991574E+03  0.12509825235E+03 0.  0.
         24    2    1    2    0    0 -0.85385827256E+02  0.31847468275E+02  0.49165380132E+03  0.50661085856E+03  0.81400865641E+02 0.  0.
        -11    1    5    5    0    0 -0.93447908256E+02  0.32814113722E+02  0.48755913577E+03  0.49751702331E+03  0.00000000000E+00 0.  1.
         12    1    5    5    0    0  0.80620810008E+01 -0.96664544637E+00  0.40946655507E+01  0.90938352445E+01  0.00000000000E+00 0. -1.
         11    1    3    3    0    0  0.24638671799E+02 -0.20965807618E+02 -0.23596223084E+03  0.23816969500E+03  0.00000000000E+00 0. -1.
        -12    1    3    3    0    0 -0.25742381856E+01  0.20042078594E+02 -0.19388930902E+02  0.28004325704E+02  0.00000000000E+00 0.  1.
          5    1    4    4  501    0  0.32165138746E+02  0.35549595677E+02 -0.45497134954E+02  0.66225611302E+02  0.41800000000E+01 0. -1.
         -5    1    4    4    0  501  0.31156254896E+02 -0.66473334928E+02 -0.28073412589E+03  0.29020430444E+03  0.41800000000E+01 0. -1.
</event>
<event>
11    1  0.6930157E-009  0.1407977E+03  0.7561462E-02  0.1106671E+00
         22   -1    0    0    0    0  0.00000000000E+00  0.00000000000E+00  0.64841569038E+03  0.64841569038E+03  0.00000000000E+00 0.  1.
         22   -1    0    0    0    0 -0.00000000000E+00 -0.00000000000E+00 -0.18951203588E+04  0.18951203588E+04  0.00000000000E+00 0.  1.
        -24    2    1    2    0    0 -0.83726827104E+01  0.44075915982E+02 -0.91283067541E+03  0.91740959903E+03  0.79798134290E+02 0.  0.
         25    2    1    2    0    0  0.35091126250E+02 -0.10272210417E+03 -0.96889121391E+03  0.98294491593E+03  0.12508919035E+03 0.  0.
         24    2    1    2    0    0 -0.26718443539E+02  0.58646188186E+02  0.63501722093E+03  0.64318153417E+03  0.79261367665E+02 0.  0.
        -13    1    5    5    0    0 -0.48739000798E+02  0.62786274617E+02  0.47524702817E+03  0.48184784348E+03  0.00000000000E+00 0.  1.
         14    1    5    5    0    0  0.22020557259E+02 -0.41400864307E+01  0.15977019277E+03  0.16133369070E+03  0.00000000000E+00 0. -1.
         13    1    3    3    0    0  0.60338573669E+01 -0.22514804539E+02 -0.21408472882E+03  0.21534993608E+03  0.00000000000E+00 0. -1.
        -14    1    3    3    0    0 -0.14406540077E+02  0.66590720521E+02 -0.69874594659E+03  0.70205966295E+03  0.00000000000E+00 0.  1.
          5    1    4    4  501    0 -0.21444795819E+02 -0.10650941842E+03 -0.62190973796E+03  0.63134248237E+03  0.41800000000E+01 0.  1.
         -5    1    4    4    0  501  0.56535922068E+02  0.37873142524E+01 -0.34698147595E+03  0.35160243356E+03  0.41800000000E+01 0.  1.
</event>
<event>
11    1  0.6930157E-009  0.2229729E+03  0.7561462E-02  0.1039371E+00
         22   -1    0    0    0    0  0.00000000000E+00  0.00000000000E+00  0.11534492063E+03  0.11534492063E+03  0.00000000000E+00 0. -1.
         22   -1    0    0    0    0 -0.00000000000E+00 -0.00000000000E+00 -0.13324554808E+04  0.13324554808E+04  0.00000000000E+00 0.  1.
        -24    2    1    2    0    0 -0.16955378180E+03  0.49284394511E+02 -0.85956603130E+03  0.88090217298E+03  0.77184452741E+02 0.  0.
         25    2    1    2    0    0  0.19687588614E+03 -0.76655251196E+02 -0.39925274652E+03  0.46870496579E+03  0.12508176233E+03 0.  0.
         24    2    1    2    0    0 -0.27322104337E+02  0.27370856684E+02  0.41708217634E+02  0.98193262683E+02  0.80041740593E+02 0.  0.
        -13    1    5    5    0    0  0.12179535068E+02 -0.12474584228E+01 -0.17576572875E+02  0.21420390776E+02  0.00000000000E+00 0.  1.
         14    1    5    5    0    0 -0.39501639405E+02  0.28618315107E+02  0.59284790508E+02  0.76772871907E+02  0.00000000000E+00 0. -1.
         13    1    3    3    0    0  0.69465383386E+01 -0.37493181662E+01 -0.50356459754E+02  0.50971411797E+02  0.00000000000E+00 0. -1.
        -14    1    3    3    0    0 -0.17650032014E+03  0.53033712677E+02 -0.80920957154E+03  0.82993076119E+03  0.00000000000E+00 0.  1.
          5    1    4    4  501    0  0.44070276335E+02 -0.11279021926E+02 -0.11940187441E+02  0.47217010367E+02  0.41800000000E+01 0. -1.
         -5    1    4    4    0  501  0.15280560981E+03 -0.65376229270E+02 -0.38731255908E+03  0.42148795542E+03  0.41800000000E+01 0. -1.
</event>
<event>
11    1  0.6930157E-009  0.1829242E+03  0.7561462E-02  0.1067302E+00
         22   -1    0    0    0    0  0.00000000000E+00  0.00000000000E+00  0.97780757417E+02  0.97780757417E+02  0.00000000000E+00 0. -1.
         22   -1    0    0    0    0 -0.00000000000E+00 -0.00000000000E+00 -0.10495398063E+04  0.10495398063E+04  0.00000000000E+00 0.  1.
        -24    2    1    2    0    0 -0.12118448388E+03 -0.66818068232E+02 -0.74097594145E+03  0.75793182369E+03  0.79151564569E+02 0.  0.
         25    2    1    2    0    0  0.11366816189E+03  0.36090784348E+02 -0.24292428773E+03  0.29813374465E+03  0.12509406216E+03 0.  0.
         24    2    1    2    0    0  0.75163219836E+01  0.30727283884E+02  0.32141180273E+02  0.91254995404E+02  0.79333206451E+02 0.  0.
        -13    1    5    5    0    0  0.23517031963E+02  0.52940278686E+02  0.19722080527E+02  0.61193826159E+02  0.00000000000E+00 0.  1.
         14    1    5    5    0    0 -0.16000709979E+02 -0.22212994802E+02  0.12419099746E+02  0.30061169245E+02  0.00000000000E+00 0. -1.
         11    1    3    3    0    0 -0.60331943657E+02 -0.37447069948E+01 -0.17351858864E+03  0.18374620230E+03  0.00000000000E+00 0. -1.
        -12    1    3    3    0    0 -0.60852540222E+02 -0.63073361237E+02 -0.56745735281E+03  0.57418562139E+03  0.00000000000E+00 0.  1.
          5    1    4    4  501    0  0.10496667741E+03 -0.26988512117E+02 -0.16430843248E+03  0.19687843086E+03  0.41800000000E+01 0. -1.
         -5    1    4    4    0  501  0.87014844831E+01  0.63079296465E+02 -0.78615855250E+02  0.10125531379E+03  0.41800000000E+01 0. -1.
</event>
<event>
11    1  0.6930157E-009  0.1350398E+03  0.7561462E-02  0.1113227E+00
         22   -1    0    0    0    0  0.00000000000E+00  0.00000000000E+00  0.65836241993E+03  0.65836241993E+03  0.00000000000E+00 0. -1.
         22   -1    0    0    0    0 -0.00000000000E+00 -0.00000000000E+00 -0.74245818762E+03  0.74245818762E+03  0.00000000000E+00 0.  1.
         24    2    1    2    0    0 -0.14696488817E+02 -0.43620488488E+02 -0.55538005845E+03  0.56326987698E+03  0.81897565236E+02 0.  0.
         25    2    1    2    0    0  0.26085308049E+02  0.87991509221E+02 -0.14788764610E+03  0.21433786696E+03  0.12508803440E+03 0.  0.
        -24    2    1    2    0    0 -0.11388819232E+02 -0.44371020734E+02  0.61917193686E+03  0.62321286362E+03  0.54054540020E+02 0.  0.
        -13    1    3    3    0    0 -0.33960853034E+02 -0.55403891523E+02 -0.48554565775E+03  0.48987500088E+03  0.00000000000E+00 0.  1.
         14    1    3    3    0    0  0.19264364217E+02  0.11783403035E+02 -0.69834400699E+02  0.73394876094E+02  0.00000000000E+00 0. -1.
         13    1    5    5    0    0 -0.21852078823E+02 -0.51577931166E+02  0.55318931066E+03  0.55601817395E+03  0.00000000000E+00 0. -1.
        -14    1    5    5    0    0  0.10463259592E+02  0.72069104325E+01  0.65982626204E+02  0.67194689672E+02  0.00000000000E+00 0.  1.
          5    1    4    4  501    0  0.60516216422E+01  0.64197710532E+02 -0.16597834071E+03  0.17811302633E+03  0.41800000000E+01 0.  1.
         -5    1    4    4    0  501  0.20033686407E+02  0.23793798689E+02  0.18090694608E+02  0.36224840628E+02  0.41800000000E+01 0.  1.
</event>
<event>
11    1  0.6930157E-009  0.1292637E+03  0.7561462E-02  0.1120177E+00
         22   -1    0    0    0    0  0.00000000000E+00  0.00000000000E+00  0.30169185412E+04  0.30169185412E+04  0.00000000000E+00 0.  1.
         22   -1    0    0    0    0 -0.00000000000E+00 -0.00000000000E+00 -0.21946277737E+03  0.21946277737E+03  0.00000000000E+00 0.  1.
        -24    2    1    2    0    0  0.74811986595E+01 -0.16480698114E+02 -0.20014233101E+03  0.21576971153E+03  0.78562293815E+02 0.  0.
         25    2    1    2    0    0 -0.38365519945E+02  0.24259495589E+02  0.40027093250E+03  0.42181119236E+03  0.12508967323E+03 0.  0.
         24    2    1    2    0    0  0.30884321286E+02 -0.77787974750E+01  0.25973271624E+04  0.25988004147E+04  0.81491448278E+02 0.  0.
        -11    1    5    5    0    0  0.27033140612E+02 -0.38718997442E+02  0.20790708609E+04  0.20796070774E+04  0.00000000000E+00 0.  1.
         12    1    5    5    0    0  0.38511806737E+01  0.30940199967E+02  0.51825630143E+03  0.51919333734E+03  0.00000000000E+00 0. -1.
         13    1    3    3    0    0  0.42371613286E+02 -0.55596682044E+01 -0.12703720295E+03  0.13403251269E+03  0.00000000000E+00 0. -1.
        -14    1    3    3    0    0 -0.34890414627E+02 -0.10921029909E+02 -0.73105128055E+02  0.81737198845E+02  0.00000000000E+00 0.  1.
          5    1    4    4  501    0 -0.88071276302E+01  0.49052709551E+02  0.54890126801E+02  0.74257203231E+02  0.41800000000E+01 0.  1.
         -5    1    4    4    0  501 -0.29558392315E+02 -0.24793213962E+02  0.34538080570E+03  0.34755398913E+03  0.41800000000E+01 0.  1.
</event>
<event>
11    1  0.6930157E-009  0.1467466E+03  0.7561462E-02  0.1100250E+00
         22   -1    0    0    0    0  0.00000000000E+00  0.00000000000E+00  0.80331836808E+03  0.80331836808E+03  0.00000000000E+00 0. -1.
         22   -1    0    0    0    0 -0.00000000000E+00 -0.00000000000E+00 -0.60730576500E+02  0.60730576500E+02  0.00000000000E+00 0.  1.
        -24    2    1    2    0    0 -0.58136445876E+02  0.11770700115E+02  0.30563180485E+02  0.10441504255E+03  0.80311875763E+02 0.  0.
         25    2    1    2    0    0  0.60386595906E+02  0.65476550132E+02  0.38614179156E+03  0.41555090756E+03  0.12507339446E+03 0.  0.
         24    2    1    2    0    0 -0.22501500296E+01 -0.77247250247E+02  0.32588281953E+03  0.34408299447E+03  0.78875180957E+02 0.  0.
        -13    1    5    5    0    0  0.12683023455E+02 -0.26296302594E+02  0.24658208765E+02  0.38214943067E+02  0.00000000000E+00 0.  1.
         14    1    5    5    0    0 -0.14933173485E+02 -0.50950947653E+02  0.30122461077E+03  0.30586805140E+03  0.00000000000E+00 0. -1.
         11    1    3    3    0    0 -0.37575320049E+02  0.30686718039E+02  0.50549842188E+02  0.70063299137E+02  0.00000000000E+00 0. -1.
        -12    1    3    3    0    0 -0.20561125828E+02 -0.18916017924E+02 -0.19986661702E+02  0.34351743411E+02  0.00000000000E+00 0.  1.
          5    1    4    4  501    0  0.10525986907E+02  0.41506208702E+02  0.34188247487E+03  0.34457896161E+03  0.41800000000E+01 0.  1.
         -5    1    4    4    0  501  0.49860608999E+02  0.23970341431E+02  0.44259316693E+02  0.70971945952E+02  0.41800000000E+01 0.  1.
</event>
<event>
11    1  0.6930157E-009  0.1542548E+03  0.7561462E-02  0.1092609E+00
         22   -1    0    0    0    0  0.00000000000E+00  0.00000000000E+00  0.34864815554E+03  0.34864815554E+03  0.00000000000E+00 0. -1.
         22   -1    0    0    0    0 -0.00000000000E+00 -0.00000000000E+00 -0.11737011977E+04  0.11737011977E+04  0.00000000000E+00 0. -1.
        -24    2    1    2    0    0 -0.52170265658E+02  0.18453312563E+02 -0.99052157641E+03  0.99528209989E+03  0.79945004055E+02 0.  0.
         25    2    1    2    0    0  0.81245782235E+01  0.63279242328E+02 -0.14018281765E+03  0.19841288834E+03  0.12508469377E+03 0.  0.
         24    2    1    2    0    0  0.44045687435E+02 -0.81732554892E+02  0.30565135194E+03  0.32865436497E+03  0.77270366615E+02 0.  0.
        -13    1    5    5    0    0 -0.13229020646E+02  0.50848639171E+01  0.64348148504E+02  0.65890416937E+02  0.00000000000E+00 0.  1.
         14    1    5    5    0    0  0.57274708081E+02 -0.86817418809E+02  0.24130320344E+03  0.26276394803E+03  0.00000000000E+00 0. -1.
         11    1    3    3    0    0 -0.48061267956E+02  0.45636428630E+02 -0.56512549814E+03  0.56899859204E+03  0.00000000000E+00 0. -1.
        -12    1    3    3    0    0 -0.41089977018E+01 -0.27183116067E+02 -0.42539607826E+03  0.42628350785E+03  0.00000000000E+00 0.  1.
          5    1    4    4  501    0 -0.51213528628E+02  0.33453973224E+01 -0.78334201180E+02  0.93742928652E+02  0.41800000000E+01 0. -1.
         -5    1    4    4    0  501  0.59338106852E+02  0.59933845006E+02 -0.61848616466E+02  0.10466995969E+03  0.41800000000E+01 0. -1.
</event>
<event>
11    1  0.6930157E-009  0.1413841E+03  0.7561462E-02  0.1106023E+00
         22   -1    0    0    0    0  0.00000000000E+00  0.00000000000E+00  0.14678684646E+03  0.14678684646E+03  0.00000000000E+00 0. -1.
         22   -1    0    0    0    0 -0.00000000000E+00 -0.00000000000E+00 -0.10615269058E+04  0.10615269058E+04  0.00000000000E+00 0. -1.
         24    2    1    2    0    0 -0.31711608888E+02  0.29432660542E+02 -0.94959213639E+03  0.95299446433E+03  0.67833000154E+02 0.  0.
         25    2    1    2    0    0 -0.44419332549E+02 -0.31729365035E+02 -0.37503607004E+01  0.13653379113E+03  0.12509029221E+03 0.  0.
        -24    2    1    2    0    0  0.76130941438E+02  0.22967044931E+01  0.38602437715E+02  0.11878549684E+03  0.82575123162E+02 0.  0.
        -11    1    3    3    0    0 -0.48076137957E+02  0.43921242749E+01 -0.68944296361E+03  0.69113110613E+03  0.00000000000E+00 0.  1.
         12    1    3    3    0    0  0.16364529069E+02  0.25040536267E+02 -0.26014917279E+03  0.26186335820E+03  0.00000000000E+00 0. -1.
         11    1    5    5    0    0  0.47653125295E+02  0.22868739751E+02  0.58149721757E+02  0.78582375559E+02  0.00000000000E+00 0. -1.
        -12    1    5    5    0    0  0.28477816143E+02 -0.20572035258E+02 -0.19547284042E+02  0.40203121276E+02  0.00000000000E+00 0.  1.
          5    1    4    4  501    0  0.13378553745E+02 -0.59443765724E+02  0.25209530346E+02  0.66072231717E+02  0.41800000000E+01 0. -1.
         -5    1    4    4    0  501 -0.57797886294E+02  0.27714400689E+02 -0.28959891047E+02  0.70461559414E+02  0.41800000000E+01 0. -1.
</event>
<event>
11    1  0.6930157E-009  0.1520868E+03  0.7561462E-02  0.1094765E+00
         22   -1    0    0    0    0  0.00000000000E+00  0.00000000000E+00  0.52159370859E+03  0.52159370859E+03  0.00000000000E+00 0. -1.
         22   -1    0    0    0    0 -0.00000000000E+00 -0.00000000000E+00 -0.15059523639E+03  0.15059523639E+03  0.00000000000E+00 0.  1.
        -24    2    1    2    0    0 -0.83905078803E+02  0.36626477596E+02 -0.42682207478E+02  0.12915758531E+03  0.80488197254E+02 0.  0.
         25    2    1    2    0    0  0.54119181942E+02 -0.60243517655E+02  0.30642299615E+02  0.15214000619E+03  0.12509781647E+03 0.  0.
         24    2    1    2    0    0  0.29785896861E+02  0.23617040059E+02  0.38303838006E+03  0.39089135349E+03  0.68063833251E+02 0.  0.
        -11    1    5    5    0    0  0.39893892412E+02  0.92633693437E+00  0.11543820696E+03  0.12214074004E+03  0.00000000000E+00 0.  1.
         12    1    5    5    0    0 -0.10107995551E+02  0.22690703125E+02  0.26760017310E+03  0.26875061344E+03  0.00000000000E+00 0. -1.
         13    1    3    3    0    0 -0.71393677311E+02 -0.95963498542E+01 -0.14139825277E+02  0.73410365409E+02  0.00000000000E+00 0. -1.
        -14    1    3    3    0    0 -0.12511401492E+02  0.46222827450E+02 -0.28542382200E+02  0.55747219899E+02  0.00000000000E+00 0.  1.
          5    1    4    4  501    0  0.62954405236E+02  0.10564699990E+02 -0.17057208129E+02  0.66206425471E+02  0.41800000000E+01 0. -1.
         -5    1    4    4    0  501 -0.88352232935E+01 -0.70808217645E+02  0.47699507744E+02  0.85933580723E+02  0.41800000000E+01 0. -1.
</event>
<event>
11    1  0.6930157E-009  0.1333858E+03  0.7561462E-02  0.1115178E+00
         22   -1    0    0    0    0  0.00000000000E+00  0.00000000000E+00  0.55341261446E+03  0.55341261446E+03  0.00000000000E+00 0.  1.
         22   -1    0    0    0    0 -0.00000000000E+00 -0.00000000000E+00 -0.59548630637E+03  0.59548630637E+03  0.00000000000E+00 0.  1.
         24    2    1    2    0    0  0.27706892058E+02  0.19199872730E+01 -0.56193592152E+03  0.56843670849E+03  0.81098418240E+02 0.  0.
         25    2    1    2    0    0 -0.56955576747E+02 -0.31911360923E+02  0.18292967381E+03  0.23102206219E+03  0.12508259263E+03 0.  0.
        -24    2    1    2    0    0  0.29248684690E+02  0.29991373650E+02  0.33693255580E+03  0.34944015016E+03  0.82643229212E+02 0.  0.
        -13    1    3    3    0    0  0.35635493908E+02  0.16150834460E+01 -0.55874835968E+03  0.55988590478E+03  0.00000000000E+00 0.  1.
         14    1    3    3    0    0 -0.79286018499E+01  0.30490382702E+00 -0.31875618420E+01  0.85508037128E+01  0.00000000000E+00 0. -1.
         11    1    5    5    0    0  0.87225656078E+01 -0.28892718959E+02  0.11818547098E+03  0.12197818621E+03  0.00000000000E+00 0. -1.
        -12    1    5    5    0    0  0.20526119082E+02  0.58884092609E+02  0.21874708482E+03  0.22746196395E+03  0.00000000000E+00 0.  1.
          5    1    4    4  501    0 -0.57807724402E+02 -0.74777295104E+02  0.14755690178E+03  0.17528231094E+03  0.41800000000E+01 0. -1.
         -5    1    4    4    0  501  0.85214765437E+00  0.42865934181E+02  0.35372772027E+02  0.55739751253E+02  0.41800000000E+01 0. -1.
</event>
<event>
11    1  0.6930157E-009  0.1302324E+03  0.7561462E-02  0.1118984E+00
         22   -1    0    0    0    0  0.00000000000E+00  0.00000000000E+00  0.57952316168E+03  0.57952316168E+03  0.00000000000E+00 0. -1.
         22   -1    0    0    0    0 -0.00000000000E+00 -0.00000000000E+00 -0.43107456868E+03  0.43107456868E+03  0.00000000000E+00 0.  1.
         24    2    1    2    0    0 -0.31861972192E+02 -0.86117712649E+01 -0.29402165237E+03  0.30677919413E+03  0.81088803243E+02 0.  0.
         25    2    1    2    0    0  0.55557817387E+02  0.42491415505E+01 -0.90333030789E+02  0.16404750177E+03  0.12508717003E+03 0.  0.
        -24    2    1    2    0    0 -0.23695845195E+02  0.43626297145E+01  0.53280327616E+03  0.53977103446E+03  0.83023568550E+02 0.  0.
        -11    1    3    3    0    0 -0.44019458867E+01 -0.35656127549E+02 -0.62656736780E+02  0.72226056401E+02  0.00000000000E+00 0.  1.
         12    1    3    3    0    0 -0.27460026305E+02  0.27044356284E+02 -0.23136491559E+03  0.23455313773E+03  0.00000000000E+00 0. -1.
         11    1    5    5    0    0  0.14659313584E+02 -0.12351466254E+02  0.40162468853E+03  0.40208188796E+03  0.00000000000E+00 0. -1.
        -12    1    5    5    0    0 -0.38355158779E+02  0.16714095969E+02  0.13117858764E+03  0.13768914650E+03  0.00000000000E+00 0.  1.
          5    1    4    4  501    0  0.61617488666E+02 -0.24157204984E+02  0.28262451935E+01  0.66375790195E+02  0.41800000000E+01 0.  1.
         -5    1    4    4    0  501 -0.60596712794E+01  0.28406346534E+02 -0.93159275983E+02  0.97671711570E+02  0.41800000000E+01 0.  1.
</event>
<event>
11    1  0.6930157E-009  0.1423131E+03  0.7561462E-02  0.1105003E+00
         22   -1    0    0    0    0  0.00000000000E+00  0.00000000000E+00  0.46197499582E+03  0.46197499582E+03  0.00000000000E+00 0. -1.
         22   -1    0    0    0    0 -0.00000000000E+00 -0.00000000000E+00 -0.28645595893E+03  0.28645595893E+03  0.00000000000E+00 0. -1.
        -24    2    1    2    0    0  0.25604289618E+02 -0.18355175945E+02 -0.21273240235E+03  0.22937647603E+03  0.79787220861E+02 0.  0.
         25    2    1    2    0    0  0.26897660507E+02 -0.30188470087E+02  0.17022711245E+02  0.13256252194E+03  0.12509285214E+03 0.  0.
         24    2    1    2    0    0 -0.52501950124E+02  0.48543646032E+02  0.37122872800E+03  0.38649195678E+03  0.80326358256E+02 0.  0.
        -13    1    5    5    0    0 -0.52101681436E+02  0.28170039076E+02  0.11410129981E+03  0.12855832500E+03  0.00000000000E+00 0.  1.
         14    1    5    5    0    0 -0.40026868816E+00  0.20373606956E+02  0.25712742819E+03  0.25793363178E+03  0.00000000000E+00 0. -1.
         11    1    3    3    0    0  0.12821085803E+02 -0.15855775068E+02 -0.21516242831E+03  0.21612648242E+03  0.00000000000E+00 0. -1.
        -12    1    3    3    0    0  0.12783203815E+02 -0.24994008766E+01  0.24300259596E+01  0.13249993610E+02  0.00000000000E+00 0.  1.
          5    1    4    4  501    0  0.50466234989E+02 -0.45176873374E+02  0.53510911978E+02  0.86421530087E+02  0.41800000000E+01 0. -1.
         -5    1    4    4    0  501 -0.23568574482E+02  0.14988403287E+02 -0.36488200734E+02  0.46140991851E+02  0.41800000000E+01 0. -1.
</event>
<event>
11    1  0.6930157E-009  0.1328626E+03  0.7561462E-02  0.1115801E+00
         22   -1    0    0    0    0  0.00000000000E+00  0.00000000000E+00  0.66842446386E+03  0.66842446386E+03  0.00000000000E+00 0. -1.
         22   -1    0    0    0    0 -0.00000000000E+00 -0.00000000000E+00 -0.16424868534E+04  0.16424868534E+04  0.00000000000E+00 0.  1.
         24    2    1    2    0    0 -0.23491453465E+02  0.41300329924E+01 -0.16044956152E+04  0.16066918317E+04  0.80520540324E+02 0.  0.
         25    2    1    2    0    0  0.16416565880E+02 -0.48223261474E+02  0.10610959523E+03  0.17176148031E+03  0.12509106017E+03 0.  0.
        -24    2    1    2    0    0  0.70748875853E+01  0.44093228482E+02  0.52432363044E+03  0.53245800522E+03  0.81252637196E+02 0.  0.
        -11    1    3    3    0    0 -0.39568232672E+02 -0.97666501713E+01 -0.14667988407E+04  0.14673649415E+04  0.00000000000E+00 0.  1.
         12    1    3    3    0    0  0.16076779207E+02  0.13896683164E+02 -0.13769677451E+03  0.13932689024E+03  0.00000000000E+00 0. -1.
         13    1    5    5    0    0  0.11172199367E+01  0.67710563358E+02  0.35634701727E+03  0.36272464113E+03  0.00000000000E+00 0. -1.
        -14    1    5    5    0    0  0.59576676487E+01 -0.23617334876E+02  0.16797661317E+03  0.16973336408E+03  0.00000000000E+00 0.  1.
          5    1    4    4  501    0  0.24371652221E+02 -0.36846887714E+01  0.12130291547E+03  0.12385242858E+03  0.41800000000E+01 0.  1.
         -5    1    4    4    0  501 -0.79550863414E+01 -0.44538572703E+02 -0.15193320244E+02  0.47909051725E+02  0.41800000000E+01 0.  1.
</event>
<event>
11    1  0.6930157E-009  0.4430574E+03  0.7561462E-02  0.9530616E-01
         22   -1    0    0    0    0  0.00000000000E+00  0.00000000000E+00  0.65798401963E+03  0.65798401963E+03  0.00000000000E+00 0.  1.
         22   -1    0    0    0    0 -0.00000000000E+00 -0.00000000000E+00 -0.60639381823E+03  0.60639381823E+03  0.00000000000E+00 0.  1.
         24    2    1    2    0    0  0.52276794494E+03  0.94070741771E+02 -0.20320401505E+03  0.57391639306E+03  0.77152613552E+02 0.  0.
         25    2    1    2    0    0 -0.32593035928E+03  0.22157079102E+02  0.14612681651E+02  0.35011760642E+03  0.12508905870E+03 0.  0.
        -24    2    1    2    0    0 -0.19683758566E+03 -0.11622782087E+03  0.24018153480E+03  0.34034383837E+03  0.76764687113E+02 0.  0.
        -13    1    3    3    0    0  0.39152514062E+03  0.10403212151E+03 -0.15467864453E+03  0.43363590848E+03  0.00000000000E+00 0.  1.
         14    1    3    3    0    0  0.13124280431E+03 -0.99613797419E+01 -0.48525370521E+02  0.14028048458E+03  0.00000000000E+00 0. -1.
         11    1    5    5    0    0 -0.88144712818E+02 -0.17775884323E+02  0.12440080267E+03  0.15349603306E+03  0.00000000000E+00 0. -1.
        -12    1    5    5    0    0 -0.10869287284E+03 -0.98451936549E+02  0.11578073213E+03  0.18684780531E+03  0.00000000000E+00 0.  1.
          5    1    4    4  501    0 -0.24640526613E+03  0.70135738435E+02  0.15359943273E+01  0.25623116255E+03  0.41800000000E+01 0.  1.
         -5    1    4    4    0  501 -0.79525093150E+02 -0.47978659334E+02  0.13076687323E+02  0.93886443874E+02  0.41800000000E+01 0.  1.
</event>
<event>
11    1  0.6930157E-009  0.1475425E+03  0.7561462E-02  0.1099417E+00
         22   -1    0    0    0    0  0.00000000000E+00  0.00000000000E+00  0.83889592638E+03  0.83889592638E+03  0.00000000000E+00 0. -1.
         22   -1    0    0    0    0 -0.00000000000E+00 -0.00000000000E+00 -0.18081219725E+03  0.18081219725E+03  0.00000000000E+00 0. -1.
         24    2    1    2    0    0  0.22941613116E+02 -0.30851514467E+02 -0.12068753875E+03  0.15021292353E+03  0.80748416876E+02 0.  0.
         25    2    1    2    0    0 -0.32603935751E+02 -0.49687818181E+02  0.77486404240E+02  0.15869291260E+03  0.12508957496E+03 0.  0.
        -24    2    1    2    0    0  0.96623226354E+01  0.80539332648E+02  0.70128486363E+03  0.71080228751E+03  0.82822022337E+02 0.  0.
        -11    1    3    3    0    0  0.86146904096E+01 -0.43531863974E+02 -0.21707879343E+02  0.49401094092E+02  0.00000000000E+00 0.  1.
         12    1    3    3    0    0  0.14326922706E+02  0.12680349508E+02 -0.98979659405E+02  0.10081182943E+03  0.00000000000E+00 0. -1.
         13    1    5    5    0    0 -0.17427989403E+02  0.84750994205E+02  0.58274168392E+03  0.58913015201E+03  0.00000000000E+00 0. -1.
        -14    1    5    5    0    0  0.27090312038E+02 -0.42116615573E+01  0.11854317971E+03  0.12167213550E+03  0.00000000000E+00 0.  1.
          5    1    4    4  501    0 -0.26544050986E+02 -0.46909687877E+02  0.11142874140E+03  0.12385048353E+03  0.41800000000E+01 0.  1.
         -5    1    4    4    0  501 -0.60598847654E+01 -0.27781303040E+01 -0.33942337163E+02  0.34842429069E+02  0.41800000000E+01 0.  1.
</event>
<event>
11    1  0.6930157E-009  0.1647021E+03  0.7561462E-02  0.1082736E+00
         22   -1    0    0    0    0  0.00000000000E+00  0.00000000000E+00  0.41520273231E+03  0.41520273231E+03  0.00000000000E+00 0. -1.
         22   -1    0    0    0    0 -0.00000000000E+00 -0.00000000000E+00 -0.12382220601E+04  0.12382220601E+04  0.00000000000E+00 0.  1.
        -24    2    1    2    0    0 -0.86337617819E+02  0.65708925174E+02 -0.11861327398E+04  0.11937506809E+04  0.79736845163E+02 0.  0.
         25    2    1    2    0    0  0.63308553591E+02 -0.18543867375E+02  0.87162676750E+02  0.16612900491E+03  0.12509862541E+03 0.  0.
         24    2    1    2    0    0  0.23029064229E+02 -0.47165057799E+02  0.27595073534E+03  0.29354510659E+03  0.85235208642E+02 0.  0.
        -11    1    5    5    0    0  0.40002779332E+02  0.93191990065E+01  0.10892267829E+03  0.11640970608E+03  0.00000000000E+00 0.  1.
         12    1    5    5    0    0 -0.16973715103E+02 -0.56484256806E+02  0.16702805704E+03  0.17713540050E+03  0.00000000000E+00 0. -1.
         13    1    3    3    0    0 -0.35954258922E+02 -0.11407244769E+01 -0.15045898297E+03  0.15469943614E+03  0.00000000000E+00 0. -1.
        -14    1    3    3    0    0 -0.50383358897E+02  0.66849649651E+02 -0.10356737569E+04  0.10390512447E+04  0.00000000000E+00 0.  1.
          5    1    4    4  501    0  0.49254343885E+02 -0.42768809028E+02 -0.89102502662E+01  0.65969889927E+02  0.41800000000E+01 0.  1.
         -5    1    4    4    0  501  0.14054209706E+02  0.24224941653E+02  0.96072927016E+02  0.10015911498E+03  0.41800000000E+01 0.  1.
</event>
<event>
11    1  0.6930157E-009  0.2523233E+03  0.7561462E-02  0.1022669E+00
         22   -1    0    0    0    0  0.00000000000E+00  0.00000000000E+00  0.51472290093E+03  0.51472290093E+03  0.00000000000E+00 0.  1.
         22   -1    0    0    0    0 -0.00000000000E+00 -0.00000000000E+00 -0.86477084919E+03  0.86477084919E+03  0.00000000000E+00 0.  1.
         24    2    1    2    0    0  0.58760620408E+02  0.86318058360E+02 -0.71861794547E+03  0.73054797412E+03  0.79906027529E+02 0.  0.
         25    2    1    2    0    0 -0.18788085601E+03  0.10222297939E+03  0.57296340257E+02  0.25432335100E+03  0.12509493468E+03 0.  0.
        -24    2    1    2    0    0  0.12912023560E+03 -0.18854103775E+03  0.31127365696E+03  0.39462242500E+03  0.81337633578E+02 0.  0.
        -11    1    3    3    0    0  0.43273431948E+02  0.86351424201E+02 -0.69856496246E+03  0.70521072393E+03  0.00000000000E+00 0.  1.
         12    1    3    3    0    0  0.15487188459E+02 -0.33365840186E-01 -0.20052983013E+02  0.25337250194E+02  0.00000000000E+00 0. -1.
         11    1    5    5    0    0  0.10223567704E+03 -0.82360864371E+02  0.19302883807E+03  0.23344287945E+03  0.00000000000E+00 0. -1.
        -12    1    5    5    0    0  0.26884558559E+02 -0.10618017338E+03  0.11824481889E+03  0.16117954555E+03  0.00000000000E+00 0.  1.
          5    1    4    4  501    0 -0.40301559457E+02  0.89945255198E+02  0.11838126543E+02  0.99357829422E+02  0.41800000000E+01 0. -1.
         -5    1    4    4    0  501 -0.14757929655E+03  0.12277724194E+02  0.45458213714E+02  0.15496552157E+03  0.41800000000E+01 0. -1.
</event>
<event>
11    1  0.6930157E-009  0.1557342E+03  0.7561462E-02  0.1091159E+00
         22   -1    0    0    0    0  0.00000000000E+00  0.00000000000E+00  0.71461751634E+03  0.71461751634E+03  0.00000000000E+00 0.  1.
         22   -1    0    0    0    0 -0.00000000000E+00 -0.00000000000E+00 -0.23066043208E+03  0.23066043208E+03  0.00000000000E+00 0.  1.
         24    2    1    2    0    0  0.92349799504E+02 -0.20824279253E+02 -0.12939646420E+03  0.18011926418E+03  0.82081473597E+02 0.  0.
         25    2    1    2    0    0 -0.92268836363E+02 -0.33522331667E+02  0.15950779007E+02  0.15982747798E+03  0.12511239140E+03 0.  0.
        -24    2    1    2    0    0 -0.80963141639E-01  0.54346610920E+02  0.59740276946E+03  0.60533120625E+03  0.81131002896E+02 0.  0.
        -11    1    3    3    0    0  0.99810619585E+02 -0.35658173171E+02 -0.12289764189E+03  0.16228830974E+03  0.00000000000E+00 0.  1.
         12    1    3    3    0    0 -0.74608200801E+01  0.14833893918E+02 -0.64988223112E+01  0.17830954446E+02  0.00000000000E+00 0. -1.
         13    1    5    5    0    0  0.16911943148E+02  0.14474731713E+02  0.36473423172E+02  0.42729875697E+02  0.00000000000E+00 0. -1.
        -14    1    5    5    0    0 -0.16992906289E+02  0.39871879207E+02  0.56092934629E+03  0.56260133055E+03  0.00000000000E+00 0.  1.
          5    1    4    4  501    0  0.26406589928E+02  0.42252986255E+01  0.22287372295E+02  0.35062237578E+02  0.41800000000E+01 0. -1.
         -5    1    4    4    0  501 -0.11867542629E+03 -0.37747630292E+02 -0.63365932878E+01  0.12476524040E+03  0.41800000000E+01 0. -1.
</event>
<event>
11    1  0.6930157E-009  0.1871504E+03  0.7561462E-02  0.1064001E+00
         22   -1    0    0    0    0  0.00000000000E+00  0.00000000000E+00  0.23812574038E+03  0.23812574038E+03  0.00000000000E+00 0. -1.
         22   -1    0    0    0    0 -0.00000000000E+00 -0.00000000000E+00 -0.49288274952E+03  0.49288274952E+03  0.00000000000E+00 0. -1.
         24    2    1    2    0    0  0.69165545328E+02  0.11925451389E+03 -0.32266278271E+03  0.35958465442E+03  0.78640578606E+02 0.  0.
         25    2    1    2    0    0 -0.83339821595E+02 -0.11786391565E+03 -0.76541515730E+02  0.20577600635E+03  0.12509089768E+03 0.  0.
        -24    2    1    2    0    0  0.14174276266E+02 -0.13905982388E+01  0.14444728930E+03  0.16564782913E+03  0.79820674254E+02 0.  0.
        -11    1    3    3    0    0  0.45595012477E+02  0.10725728016E+03 -0.17962227957E+03  0.21411957553E+03  0.00000000000E+00 0.  1.
         12    1    3    3    0    0  0.23570532851E+02  0.11997233736E+02 -0.14304050314E+03  0.14546507888E+03  0.00000000000E+00 0. -1.
         13    1    5    5    0    0 -0.13517682423E+02 -0.22416259498E+02  0.12078846795E+03  0.12359235583E+03  0.00000000000E+00 0. -1.
        -14    1    5    5    0    0  0.27691958690E+02  0.21025661259E+02  0.23658821349E+02  0.42055473307E+02  0.00000000000E+00 0.  1.
          5    1    4    4  501    0 -0.40472357544E+02 -0.31733317693E+01  0.23952284247E+02  0.47320884188E+02  0.41800000000E+01 0.  1.
         -5    1    4    4    0  501 -0.42867464051E+02 -0.11469058389E+03 -0.10049379998E+03  0.15845512216E+03  0.41800000000E+01 0.  1.
</event>
<event>
11    1  0.6930157E-009  0.1319523E+03  0.7561462E-02  0.1116893E+00
         22   -1    0    0    0    0  0.00000000000E+00  0.00000000000E+00  0.61492231487E+02  0.61492231487E+02  0.00000000000E+00 0.  1.
         22   -1    0    0    0    0 -0.00000000000E+00 -0.00000000000E+00 -0.19166311978E+04  0.19166311978E+04  0.00000000000E+00 0.  1.
         24    2    1    2    0    0  0.36705137164E+02  0.23192298631E+02 -0.15507094160E+04  0.15533364151E+04  0.79178126730E+02 0.  0.
         25    2    1    2    0    0 -0.24432260399E+02 -0.14568791998E+02 -0.31659560282E+03  0.34159898907E+03  0.12509160067E+03 0.  0.
        -24    2    1    2    0    0 -0.12272876766E+02 -0.86235066326E+01  0.12166052585E+02  0.83188025054E+02  0.80915056115E+02 0.  0.
        -13    1    3    3    0    0 -0.23327464788E+02  0.14852838470E+02 -0.65152692745E+03  0.65211357493E+03  0.00000000000E+00 0.  1.
         14    1    3    3    0    0  0.60032601952E+02  0.83394601605E+01 -0.89918248859E+03  0.90122284019E+03  0.00000000000E+00 0. -1.
         13    1    5    5    0    0  0.24135009649E+02  0.30728087357E+01 -0.21326812145E+02  0.32353883238E+02  0.00000000000E+00 0. -1.
        -14    1    5    5    0    0 -0.36407886414E+02 -0.11696315368E+02  0.33492864730E+02  0.50834141816E+02  0.00000000000E+00 0.  1.
          5    1    4    4  501    0 -0.68297283808E+02  0.43394126189E+01 -0.25194704210E+03  0.26110942898E+03  0.41800000000E+01 0. -1.
         -5    1    4    4    0  501  0.43865023409E+02 -0.18908204617E+02 -0.64648560717E+02  0.80489560089E+02  0.41800000000E+01 0. -1.
</event>
<event>
11    1  0.6930157E-009  0.1369093E+03  0.7561462E-02  0.1111060E+00
         22   -1    0    0    0    0  0.00000000000E+00  0.00000000000E+00  0.15421117926E+04  0.15421117926E+04  0.00000000000E+00 0. -1.
         22   -1    0    0    0    0 -0.00000000000E+00 -0.00000000000E+00 -0.56036939711E+03  0.56036939711E+03  0.00000000000E+00 0. -1.
         24    2    1    2    0    0  0.60367667394E+02  0.13712711985E+01 -0.42833681712E+03  0.44020307044E+03  0.81609917755E+02 0.  0.
         25    2    1    2    0    0 -0.29322249114E+02  0.44428976959E+01 -0.91763012963E+02  0.15794694469E+03  0.12508898096E+03 0.  0.
        -24    2    1    2    0    0 -0.31045418280E+02 -0.58141688944E+01  0.15018422255E+04  0.15043311745E+04  0.80526950105E+02 0.  0.
        -11    1    3    3    0    0 -0.12446067989E+02  0.17780872236E+02 -0.16739218250E+03  0.16879338491E+03  0.00000000000E+00 0.  1.
         12    1    3    3    0    0  0.72813735382E+02 -0.16409601038E+02 -0.26094463462E+03  0.27140968553E+03  0.00000000000E+00 0. -1.
         13    1    5    5    0    0  0.55948439809E+01 -0.84912340827E+01  0.12272639177E+04  0.12273060446E+04  0.00000000000E+00 0. -1.
        -14    1    5    5    0    0 -0.36640262260E+02  0.26770651883E+01  0.27457830783E+03  0.27702512996E+03  0.00000000000E+00 0.  1.
          5    1    4    4  501    0  0.49099037782E+02  0.65074557764E+01 -0.40793553287E+02  0.64301235459E+02  0.41800000000E+01 0. -1.
         -5    1    4    4    0  501 -0.78421286896E+02 -0.20645580805E+01 -0.50969459675E+02  0.93645709235E+02  0.41800000000E+01 0. -1.
</event>
<event>
11    1  0.6930157E-009  0.1425897E+03  0.7561462E-02  0.1104701E+00
         22   -1    0    0    0    0  0.00000000000E+00  0.00000000000E+00  0.14606638368E+04  0.14606638368E+04  0.00000000000E+00 0.  1.
         22   -1    0    0    0    0 -0.00000000000E+00 -0.00000000000E+00 -0.45564884082E+03  0.45564884082E+03  0.00000000000E+00 0. -1.
        -24    2    1    2    0    0  0.36895814250E+02  0.56288038467E+01 -0.34034932459E+03  0.35156819423E+03  0.79809447457E+02 0.  0.
         25    2    1    2    0    0  0.11487166937E+02  0.43539285184E+02 -0.66636343427E+02  0.14871669785E+03  0.12509448267E+03 0.  0.
         24    2    1    2    0    0 -0.48382981187E+02 -0.49168089031E+02  0.14120006640E+04  0.14160277856E+04  0.81427271143E+02 0.  0.
        -11    1    5    5    0    0 -0.56604110781E+02 -0.66105418714E+02  0.10844340294E+04  0.10879205467E+04  0.00000000000E+00 0.  1.
         12    1    5    5    0    0  0.82211295941E+01  0.16937329683E+02  0.32756663460E+03  0.32810723889E+03  0.00000000000E+00 0. -1.
         11    1    3    3    0    0 -0.44900344015E+01 -0.28494775605E+02 -0.18461727439E+03  0.18685730023E+03  0.00000000000E+00 0. -1.
        -12    1    3    3    0    0  0.41385848651E+02  0.34123579452E+02 -0.15573205020E+03  0.16471089400E+03  0.00000000000E+00 0.  1.
          5    1    4    4  501    0  0.57947354939E+02 -0.44015149506E+01 -0.62459963931E+01  0.58598243568E+02  0.41800000000E+01 0.  1.
         -5    1    4    4    0  501 -0.46460188002E+02  0.47940800135E+02 -0.60390347034E+02  0.90118454279E+02  0.41800000000E+01 0.  1.
</event>
<event>
11    1  0.6930157E-009  0.1739781E+03  0.7561462E-02  0.1074621E+00
         22   -1    0    0    0    0  0.00000000000E+00  0.00000000000E+00  0.23074103404E+03  0.23074103404E+03  0.00000000000E+00 0. -1.
         22   -1    0    0    0    0 -0.00000000000E+00 -0.00000000000E+00 -0.22282262391E+03  0.22282262391E+03  0.00000000000E+00 0.  1.
        -24    2    1    2    0    0 -0.66908180542E+02  0.14284238405E+02 -0.59837514239E+02  0.12025666448E+03  0.78742575221E+02 0.  0.
         25    2    1    2    0    0 -0.70414087982E+02 -0.62304389200E+02  0.72178307406E+01  0.15664551568E+03  0.12508293169E+03 0.  0.
         24    2    1    2    0    0  0.13732226852E+03  0.48020150795E+02  0.60538093629E+02  0.17666147779E+03  0.79881641452E+02 0.  0.
        -11    1    5    5    0    0  0.10173569229E+03  0.23840482007E+02  0.26363268352E+01  0.10452497255E+03  0.00000000000E+00 0.  1.
         12    1    5    5    0    0  0.35586576238E+02  0.24179668788E+02  0.57901766794E+02  0.72136505244E+02  0.00000000000E+00 0. -1.
         11    1    3    3    0    0 -0.50432949290E+02 -0.12250117321E+02  0.95725168321E+00  0.51908227472E+02  0.00000000000E+00 0. -1.
        -12    1    3    3    0    0 -0.16475231252E+02  0.26534355726E+02 -0.60794765922E+02  0.68348437013E+02  0.00000000000E+00 0.  1.
          5    1    4    4  501    0 -0.31258786705E+02  0.20720543214E+02  0.43736385410E+02  0.57765010743E+02  0.41800000000E+01 0. -1.
         -5    1    4    4    0  501 -0.39155301277E+02 -0.83024932415E+02 -0.36518554670E+02  0.98880504933E+02  0.41800000000E+01 0. -1.
</event>
<event>
11    1  0.6930157E-009  0.1491580E+03  0.7561462E-02  0.1097742E+00
         22   -1    0    0    0    0  0.00000000000E+00  0.00000000000E+00  0.20077964696E+03  0.20077964696E+03  0.00000000000E+00 0.  1.
         22   -1    0    0    0    0 -0.00000000000E+00 -0.00000000000E+00 -0.18502020353E+04  0.18502020353E+04  0.00000000000E+00 0. -1.
         24    2    1    2    0    0 -0.54394346008E+02  0.58964919461E+02 -0.16628341313E+04  0.16663562072E+04  0.72732760232E+02 0.  0.
         25    2    1    2    0    0  0.67721668445E+02 -0.77577209362E+02 -0.13877150519E+03  0.21332837943E+03  0.12508804510E+03 0.  0.
        -24    2    1    2    0    0 -0.13327322437E+02  0.18612289901E+02  0.15218324814E+03  0.17129709566E+03  0.75225787535E+02 0.  0.
        -13    1    3    3    0    0  0.17589613778E+02  0.19220612764E+02 -0.40599589583E+03  0.40683103851E+03  0.00000000000E+00 0.  1.
         14    1    3    3    0    0 -0.71983959786E+02  0.39744306697E+02 -0.12568382355E+04  0.12595251687E+04  0.00000000000E+00 0. -1.
         11    1    5    5    0    0  0.21092952712E+02  0.23794878869E+02  0.28136114216E+02  0.42458801651E+02  0.00000000000E+00 0. -1.
        -12    1    5    5    0    0 -0.34420275149E+02 -0.51825889680E+01  0.12404713392E+03  0.12883829401E+03  0.00000000000E+00 0.  1.
          5    1    4    4  501    0 -0.22987860420E+02 -0.18974146903E+02 -0.89737914643E+02  0.94651073432E+02  0.41800000000E+01 0. -1.
         -5    1    4    4    0  501  0.90709528865E+02 -0.58603062458E+02 -0.49033590546E+02  0.11867730599E+03  0.41800000000E+01 0. -1.
</event>
<event>
11    1  0.6930157E-009  0.1726648E+03  0.7561462E-02  0.1075736E+00
         22   -1    0    0    0    0  0.00000000000E+00  0.00000000000E+00  0.35670878497E+03  0.35670878497E+03  0.00000000000E+00 0. -1.
         22   -1    0    0    0    0 -0.00000000000E+00 -0.00000000000E+00 -0.46238094643E+03  0.46238094643E+03  0.00000000000E+00 0. -1.
        -24    2    1    2    0    0 -0.28306253755E+02 -0.12218161315E+03 -0.38186777102E+03  0.40986796227E+03  0.80244385225E+02 0.  0.
         25    2    1    2    0    0  0.10259320008E+02  0.75910657518E+02  0.36202945642E+02  0.15107499296E+03  0.12508124821E+03 0.  0.
         24    2    1    2    0    0  0.18046933747E+02  0.46270955628E+02  0.23999266392E+03  0.25814677617E+03  0.81096153800E+02 0.  0.
        -11    1    5    5    0    0  0.15124311326E+02 -0.21907670900E+02  0.75738301876E+02  0.80280640309E+02  0.00000000000E+00 0.  1.
         12    1    5    5    0    0  0.29226224211E+01  0.68178626528E+02  0.16425436204E+03  0.17786613586E+03  0.00000000000E+00 0. -1.
         13    1    3    3    0    0 -0.64075001829E+01 -0.12633995546E+03 -0.32982900807E+03  0.35325630209E+03  0.00000000000E+00 0. -1.
        -14    1    3    3    0    0 -0.21898753572E+02  0.41583423124E+01 -0.52038762950E+02  0.56611660178E+02  0.00000000000E+00 0.  1.
          5    1    4    4  501    0  0.11373236703E+02 -0.34091127166E+02  0.13855854654E+02  0.38742903515E+02  0.41800000000E+01 0.  1.
         -5    1    4    4    0  501 -0.11139166953E+01  0.11000178468E+03  0.22347090988E+02  0.11233208945E+03  0.41800000000E+01 0.  1.
</event>
<event>
11    1  0.6930157E-009  0.2915799E+03  0.7561462E-02  0.1003819E+00
         22   -1    0    0    0    0  0.00000000000E+00  0.00000000000E+00  0.12741649422E+04  0.12741649422E+04  0.00000000000E+00 0.  1.
         22   -1    0    0    0    0 -0.00000000000E+00 -0.00000000000E+00 -0.92496570518E+03  0.92496570518E+03  0.00000000000E+00 0. -1.
         24    2    1    2    0    0 -0.91631871023E+02 -0.19026255043E+03 -0.79969828140E+03  0.83102324958E+03  0.80536092401E+02 0.  0.
         25    2    1    2    0    0  0.24352304816E+03 -0.47481260525E+02  0.12807785990E+03  0.30595869743E+03  0.12509532865E+03 0.  0.
        -24    2    1    2    0    0 -0.15189117713E+03  0.23774381095E+03  0.10208196585E+04  0.10621487003E+04  0.80585588784E+02 0.  0.
        -11    1    3    3    0    0 -0.93224217108E+02 -0.10408530368E+03 -0.50603548873E+03  0.52497278115E+03  0.00000000000E+00 0.  1.
         12    1    3    3    0    0  0.15923460844E+01 -0.86177246748E+02 -0.29366279268E+03  0.30605046843E+03  0.00000000000E+00 0. -1.
         11    1    5    5    0    0 -0.53127396436E+02  0.53767026003E+02  0.40212083137E+03  0.40916326370E+03  0.00000000000E+00 0. -1.
        -12    1    5    5    0    0 -0.98763780699E+02  0.18397678495E+03  0.61869882713E+03  0.65298543665E+03  0.00000000000E+00 0.  1.
          5    1    4    4  501    0  0.11580243594E+03 -0.48404956659E+02  0.78226159715E+00  0.12558394934E+03  0.41800000000E+01 0.  1.
         -5    1    4    4    0  501  0.12772061222E+03  0.92369613409E+00  0.12729559830E+03  0.18037474808E+03  0.41800000000E+01 0.  1.
</event>
<event>
11    1  0.6930157E-009  0.1688181E+03  0.7561462E-02  0.1079065E+00
         22   -1    0    0    0    0  0.00000000000E+00  0.00000000000E+00  0.43092116498E+02  0.43092116498E+02  0.00000000000E+00 0.  1.
         22   -1    0    0    0    0 -0.00000000000E+00 -0.00000000000E+00 -0.15718879116E+04  0.15718879116E+04  0.00000000000E+00 0. -1.
         24    2    1    2    0    0  0.74968571315E+02 -0.84254561503E+02 -0.10788424092E+04  0.10875563533E+04  0.78477765565E+02 0.  0.
         25    2    1    2    0    0 -0.55502649362E+02  0.10491663649E+03 -0.37290475525E+03  0.41084445405E+03  0.12508862553E+03 0.  0.
        -24    2    1    2    0    0 -0.19465921953E+02 -0.20662074983E+02 -0.77048630622E+02  0.11657922081E+03  0.82754938129E+02 0.  0.
        -13    1    3    3    0    0  0.28416705668E+02  0.90681066360E+01 -0.35331473557E+03  0.35457163181E+03  0.00000000000E+00 0.  1.
         14    1    3    3    0    0  0.46551865647E+02 -0.93322668139E+02 -0.72552767368E+03  0.73298472144E+03  0.00000000000E+00 0. -1.
         13    1    5    5    0    0  0.83768448377E+01  0.20760828595E+02 -0.59666851458E+02  0.63728460646E+02  0.00000000000E+00 0. -1.
        -14    1    5    5    0    0 -0.27842766791E+02 -0.41422903578E+02 -0.17381779164E+02  0.52850760167E+02  0.00000000000E+00 0.  1.
          5    1    4    4  501    0  0.16814181778E+02  0.94114183008E+02 -0.16938661837E+03  0.19454946680E+03  0.41800000000E+01 0.  1.
         -5    1    4    4    0  501 -0.72316831140E+02  0.10802453478E+02 -0.20351813688E+03  0.21629498724E+03  0.41800000000E+01 0.  1.
</event>
<event>
11    1  0.6930157E-009  0.1400086E+03  0.7561462E-02  0.1107549E+00
         22   -1    0    0    0    0  0.00000000000E+00  0.00000000000E+00  0.10388525578E+03  0.10388525578E+03  0.00000000000E+00 0.  1.
         22   -1    0    0    0    0 -0.00000000000E+00 -0.00000000000E+00 -0.11238116365E+04  0.11238116365E+04  0.00000000000E+00 0.  1.
        -24    2    1    2    0    0 -0.64389470089E+02 -0.74911763504E+00 -0.86026044215E+03  0.86644126140E+03  0.80782832902E+02 0.  0.
         25    2    1    2    0    0  0.52811258921E+02  0.17473109922E+02 -0.21960030844E+03  0.25877897411E+03  0.12509165974E+03 0.  0.
         24    2    1    2    0    0  0.11578211169E+02 -0.16723992287E+02  0.59934369857E+02  0.10247665678E+03  0.80595220724E+02 0.  0.
        -11    1    5    5    0    0  0.29341074093E+02 -0.41809818696E+02  0.45958806035E+02  0.68710780962E+02  0.00000000000E+00 0.  1.
         12    1    5    5    0    0 -0.17762862924E+02  0.25085826409E+02  0.13975563822E+02  0.33765875822E+02  0.00000000000E+00 0. -1.
         11    1    3    3    0    0 -0.12138614688E+02 -0.67098710118E+01 -0.18922137837E+02  0.23460938512E+02  0.00000000000E+00 0. -1.
        -12    1    3    3    0    0 -0.52250855401E+02  0.59607533767E+01 -0.84133830431E+03  0.84298032288E+03  0.00000000000E+00 0.  1.
          5    1    4    4  501    0  0.76447367321E+02 -0.30524944745E+02 -0.11894543372E+03  0.14471164716E+03  0.41800000000E+01 0. -1.
         -5    1    4    4    0  501 -0.23636108400E+02  0.47998054667E+02 -0.10065487473E+03  0.11406732695E+03  0.41800000000E+01 0. -1.
</event>
<event>
11    1  0.6930157E-009  0.1358554E+03  0.7561462E-02  0.1112277E+00
         22   -1    0    0    0    0  0.00000000000E+00  0.00000000000E+00  0.17888645016E+03  0.17888645016E+03  0.00000000000E+00 0. -1.
         22   -1    0    0    0    0 -0.00000000000E+00 -0.00000000000E+00 -0.83396723788E+03  0.83396723788E+03  0.00000000000E+00 0. -1.
        -24    2    1    2    0    0 -0.31063063868E+02 -0.41565399402E+02 -0.72676600329E+03  0.73273161075E+03  0.77551231386E+02 0.  0.
         25    2    1    2    0    0  0.61053889395E+02  0.49089659878E+02 -0.25719277453E+02  0.14982256718E+03  0.12509175946E+03 0.  0.
         24    2    1    2    0    0 -0.29990825528E+02 -0.75242604758E+01  0.97404493016E+02  0.13029951012E+03  0.80834788095E+02 0.  0.
        -13    1    5    5    0    0 -0.32100706262E+02  0.91922705884E+01  0.20347887681E+01  0.33452855579E+02  0.00000000000E+00 0.  1.
         14    1    5    5    0    0  0.21098807342E+01 -0.16716531064E+02  0.95369704248E+02  0.96846654541E+02  0.00000000000E+00 0. -1.
         11    1    3    3    0    0 -0.37130282311E+02 -0.32249683263E+02 -0.71444771823E+03  0.71613842379E+03  0.00000000000E+00 0. -1.
        -12    1    3    3    0    0  0.60672184435E+01 -0.93157161391E+01 -0.12318285054E+02  0.16593186960E+02  0.00000000000E+00 0.  1.
          5    1    4    4  501    0  0.14488133639E+02  0.54871155003E+02  0.39570737096E+02  0.69311364884E+02  0.41800000000E+01 0.  1.
         -5    1    4    4    0  501  0.46565755756E+02 -0.57814951254E+01 -0.65290014549E+02  0.80511202294E+02  0.41800000000E+01 0.  1.
</event>
<event>
11    1  0.6930157E-009  0.1502805E+03  0.7561462E-02  0.1096593E+00
         22   -1    0    0    0    0  0.00000000000E+00  0.00000000000E+00  0.87892119733E+03  0.87892119733E+03  0.00000000000E+00 0. -1.
         22   -1    0    0    0    0 -0.00000000000E+00 -0.00000000000E+00 -0.12577881294E+03  0.12577881294E+03  0.00000000000E+00 0. -1.
         24    2    1    2    0    0 -0.60094940473E+01  0.29854921447E+02 -0.62123878108E+02  0.10526874151E+03  0.79339153986E+02 0.  0.
         25    2    1    2    0    0 -0.77938021686E+02 -0.26021105979E+02  0.11217425473E+03  0.18703566351E+03  0.12509133791E+03 0.  0.
        -24    2    1    2    0    0  0.83947515734E+02 -0.38338154680E+01  0.70309200777E+03  0.71239560524E+03  0.78148854391E+02 0.  0.
        -11    1    3    3    0    0  0.33150971580E+02  0.25334634602E+02 -0.16229532224E+02  0.44768608906E+02  0.00000000000E+00 0.  1.
         12    1    3    3    0    0 -0.39160465628E+02  0.45202868450E+01 -0.45894345884E+02  0.60500132607E+02  0.00000000000E+00 0. -1.
         13    1    5    5    0    0  0.64467780314E+02 -0.32998459824E+02  0.57663825976E+03  0.58116837119E+03  0.00000000000E+00 0. -1.
        -14    1    5    5    0    0  0.19479735420E+02  0.29164644356E+02  0.12645374800E+03  0.13122723405E+03  0.00000000000E+00 0.  1.
          5    1    4    4  501    0 -0.68334285559E+02 -0.48642644837E+02  0.13113011471E+03  0.15571853089E+03  0.41800000000E+01 0.  1.
         -5    1    4    4    0  501 -0.96037361272E+01  0.22621538858E+02 -0.18955859981E+02  0.31317132620E+02  0.41800000000E+01 0.  1.
</event>
<event>
11    1  0.6930157E-009  0.1308065E+03  0.7561462E-02  0.1118282E+00
         22   -1    0    0    0    0  0.00000000000E+00  0.00000000000E+00  0.29424246058E+04  0.29424246058E+04  0.00000000000E+00 0. -1.
         22   -1    0    0    0    0 -0.00000000000E+00 -0.00000000000E+00 -0.15902067097E+04  0.15902067097E+04  0.00000000000E+00 0. -1.
        -24    2    1    2    0    0  0.77246444939E+01  0.31672884119E+02 -0.15338657370E+04  0.15364313432E+04  0.82548964411E+02 0.  0.
         25    2    1    2    0    0 -0.44707654379E+02 -0.21753696075E+02  0.28956467265E+02  0.13767804716E+03  0.12507905508E+03 0.  0.
         24    2    1    2    0    0  0.36983009885E+02 -0.99191880441E+01  0.28571271658E+04  0.28585219251E+04  0.80658671182E+02 0.  0.
        -11    1    5    5    0    0 -0.18261701707E+02 -0.16669984631E+02  0.39937860136E+03  0.40014328104E+03  0.00000000000E+00 0.  1.
         12    1    5    5    0    0  0.55244711593E+02  0.67507965870E+01  0.24577485645E+04  0.24583786441E+04  0.00000000000E+00 0. -1.
         11    1    3    3    0    0  0.25506747971E+02  0.33971039913E+02 -0.14521678287E+04  0.14527890517E+04  0.00000000000E+00 0. -1.
        -12    1    3    3    0    0 -0.17782103477E+02 -0.22981557941E+01 -0.81697908265E+02  0.83642291569E+02  0.00000000000E+00 0.  1.
          5    1    4    4  501    0  0.42641096984E+02 -0.16178242209E+02  0.13947018352E+01  0.45819387449E+02  0.41800000000E+01 0. -1.
         -5    1    4    4    0  501 -0.87348751364E+02 -0.55754538656E+01  0.27561765430E+02  0.91858659713E+02  0.41800000000E+01 0. -1.
</event>
<event>
11    1  0.6930157E-009  0.1538387E+03  0.7561462E-02  0.1093020E+00
         22   -1    0    0    0    0  0.00000000000E+00  0.00000000000E+00  0.73278692529E+02  0.73278692529E+02  0.00000000000E+00 0. -1.
         22   -1    0    0    0    0 -0.00000000000E+00 -0.00000000000E+00 -0.12130089902E+04  0.12130089902E+04  0.00000000000E+00 0.  1.
         24    2    1    2    0    0 -0.11762248429E+02 -0.89233931617E+02 -0.86360862628E+03  0.87193853596E+03  0.79723936627E+02 0.  0.
         25    2    1    2    0    0 -0.39837188526E+02  0.90805718495E+02 -0.27583991927E+03  0.31869572605E+03  0.12508646865E+03 0.  0.
        -24    2    1    2    0    0  0.51599436955E+02 -0.15717868779E+01 -0.28175210524E+00  0.95653420701E+02  0.80526549034E+02 0.  0.
        -13    1    3    3    0    0  0.17843409347E+02 -0.88791800975E+02 -0.66259421375E+03  0.66875515943E+03  0.00000000000E+00 0.  1.
         14    1    3    3    0    0 -0.29605657776E+02 -0.44213064187E+00 -0.20101441253E+03  0.20318337653E+03  0.00000000000E+00 0. -1.
         11    1    5    5    0    0  0.36487732584E+02  0.17027325665E+02  0.34765056365E+02  0.53196744190E+02  0.00000000000E+00 0. -1.
        -12    1    5    5    0    0  0.15111704371E+02 -0.18599112543E+02 -0.35046808470E+02  0.42456676510E+02  0.00000000000E+00 0.  1.
          5    1    4    4  501    0  0.20632059260E+01 -0.65638322550E+01  0.10560600695E+02  0.13279284605E+02  0.41800000000E+01 0.  1.
         -5    1    4    4    0  501 -0.41900394452E+02  0.97369550750E+02 -0.28640051997E+03  0.30541644145E+03  0.41800000000E+01 0.  1.
</event>
<event>
11    1  0.6930157E-009  0.2373123E+03  0.7561462E-02  0.1030884E+00
         22   -1    0    0    0    0  0.00000000000E+00  0.00000000000E+00  0.11710716835E+04  0.11710716835E+04  0.00000000000E+00 0. -1.
         22   -1    0    0    0    0 -0.00000000000E+00 -0.00000000000E+00 -0.38126883728E+04  0.38126883728E+04  0.00000000000E+00 0.  1.
         24    2    1    2    0    0  0.11542591367E+03 -0.16823159149E+03 -0.36184883321E+04  0.36251040759E+04  0.79352011779E+02 0.  0.
         25    2    1    2    0    0 -0.12688698386E+03  0.10753733597E+03 -0.13063379341E+03  0.24571718663E+03  0.12508861867E+03 0.  0.
        -24    2    1    2    0    0  0.11461070189E+02  0.60694255521E+02  0.11075054362E+04  0.11129387937E+04  0.90825759697E+02 0.  0.
        -13    1    3    3    0    0  0.41093564902E+02 -0.33030288671E+02 -0.15376502258E+04  0.15385538333E+04  0.00000000000E+00 0.  1.
         14    1    3    3    0    0  0.74332348772E+02 -0.13520130282E+03 -0.20808381063E+04  0.20865502426E+04  0.00000000000E+00 0. -1.
         11    1    5    5    0    0 -0.24285115119E+02  0.29430961221E+02  0.86421411263E+03  0.86505605643E+03  0.00000000000E+00 0. -1.
        -12    1    5    5    0    0  0.35746185308E+02  0.31263294300E+02  0.24329132356E+03  0.24788273731E+03  0.00000000000E+00 0.  1.
          5    1    4    4  501    0 -0.11972776384E+02 -0.25148986324E+02 -0.37698816565E+02  0.47058389877E+02  0.41800000000E+01 0. -1.
         -5    1    4    4    0  501 -0.11491420748E+03  0.13268632230E+03 -0.92934976849E+02  0.19865879675E+03  0.41800000000E+01 0. -1.
</event>
<event>
11    1  0.6930157E-009  0.2116949E+03  0.7561462E-02  0.1046548E+00
         22   -1    0    0    0    0  0.00000000000E+00  0.00000000000E+00  0.66394532724E+03  0.66394532724E+03  0.00000000000E+00 0.  1.
         22   -1    0    0    0    0 -0.00000000000E+00 -0.00000000000E+00 -0.14763593564E+04  0.14763593564E+04  0.00000000000E+00 0.  1.
         24    2    1    2    0    0 -0.16230409341E+03 -0.54919730245E+02 -0.12255457359E+04  0.12395188776E+04  0.71315506649E+02 0.  0.
         25    2    1    2    0    0  0.13280078009E+03  0.12176562012E+03 -0.18841645003E+03  0.28915842333E+03  0.12509565023E+03 0.  0.
        -24    2    1    2    0    0  0.29503313324E+02 -0.66845889871E+02  0.60154815678E+03  0.61162738276E+03  0.83000312799E+02 0.  0.
        -13    1    3    3    0    0 -0.73190596483E+02  0.29210392119E+01 -0.66256944554E+03  0.66660608012E+03  0.00000000000E+00 0.  1.
         14    1    3    3    0    0 -0.89113496930E+02 -0.57840769457E+02 -0.56297629039E+03  0.57291279745E+03  0.00000000000E+00 0. -1.
         13    1    5    5    0    0 -0.15481000066E+02 -0.56663430397E+02  0.23689409627E+03  0.24406806132E+03  0.00000000000E+00 0. -1.
        -14    1    5    5    0    0  0.44984313390E+02 -0.10182459474E+02  0.36465406051E+03  0.36755932145E+03  0.00000000000E+00 0.  1.
          5    1    4    4  501    0  0.68146658031E+02  0.11736444388E+03 -0.17723102558E+03  0.22326371966E+03  0.41800000000E+01 0. -1.
         -5    1    4    4    0  501  0.64654122058E+02  0.44011762395E+01 -0.11185424445E+02  0.65894703667E+02  0.41800000000E+01 0. -1.
</event>
<event>
11    1  0.6930157E-009  0.1411749E+03  0.7561462E-02  0.1106253E+00
         22   -1    0    0    0    0  0.00000000000E+00  0.00000000000E+00  0.26899048592E+03  0.26899048592E+03  0.00000000000E+00 0. -1.
         22   -1    0    0    0    0 -0.00000000000E+00 -0.00000000000E+00 -0.71978988269E+03  0.71978988269E+03  0.00000000000E+00 0. -1.
         24    2    1    2    0    0  0.40952268374E+02 -0.50451069778E+02 -0.61200562941E+03  0.62031552033E+03  0.77576127798E+02 0.  0.
         25    2    1    2    0    0 -0.30802141004E+02  0.67239019613E+02 -0.41084576207E+02  0.15100735487E+03  0.12508165803E+03 0.  0.
        -24    2    1    2    0    0 -0.10150127370E+02 -0.16787949835E+02  0.20229080886E+03  0.21745749340E+03  0.77339057042E+02 0.  0.
        -11    1    3    3    0    0  0.51497277134E+02 -0.35246351764E+02 -0.24429033929E+03  0.25213497325E+03  0.00000000000E+00 0.  1.
         12    1    3    3    0    0 -0.10545008759E+02 -0.15204718014E+02 -0.36771529013E+03  0.36818054709E+03  0.00000000000E+00 0. -1.
         13    1    5    5    0    0 -0.15216223628E+02 -0.58380531639E+01  0.20453686826E+03  0.20518515250E+03  0.00000000000E+00 0. -1.
        -14    1    5    5    0    0  0.50660962579E+01 -0.10949896671E+02 -0.22460594089E+01  0.12272340905E+02  0.00000000000E+00 0.  1.
          5    1    4    4  501    0  0.39819509192E+02  0.62657403497E+02 -0.23203769092E+02  0.77893714928E+02  0.41800000000E+01 0. -1.
         -5    1    4    4    0  501 -0.70621650197E+02  0.45816161162E+01 -0.17880807115E+02  0.73113639944E+02  0.41800000000E+01 0. -1.
</event>
<event>
11    1  0.6930157E-009  0.1430892E+03  0.7561462E-02  0.1104157E+00
         22   -1    0    0    0    0  0.00000000000E+00  0.00000000000E+00  0.21733912968E+04  0.21733912968E+04  0.00000000000E+00 0. -1.
         22   -1    0    0    0    0 -0.00000000000E+00 -0.00000000000E+00 -0.13739955491E+03  0.13739955491E+03  0.00000000000E+00 0. -1.
         24    2    1    2    0    0  0.61803362180E+02  0.29573253388E+02 -0.79272494429E+02  0.13293785412E+03  0.81817551855E+02 0.  0.
         25    2    1    2    0    0 -0.39413104768E+02 -0.88918245322E+02  0.17829276574E+03  0.23851921501E+03  0.12507301242E+03 0.  0.
        -24    2    1    2    0    0 -0.22390257413E+02  0.59344991933E+02  0.19369714705E+04  0.19393337825E+04  0.71651174128E+02 0.  0.
        -13    1    3    3    0    0 -0.19480280479E+02  0.79125910740E+01 -0.73851342289E+01  0.22285211074E+02  0.00000000000E+00 0.  1.
         14    1    3    3    0    0  0.81283642659E+02  0.21660662314E+02 -0.71887360200E+02  0.11065264304E+03  0.00000000000E+00 0. -1.
         11    1    5    5    0    0 -0.45385216289E+02  0.55955862722E+02  0.13840453724E+04  0.13859193589E+04  0.00000000000E+00 0. -1.
        -12    1    5    5    0    0  0.22994958876E+02  0.33891292111E+01  0.55292609813E+03  0.55341442367E+03  0.00000000000E+00 0.  1.
          5    1    4    4  501    0 -0.51153284927E+02 -0.56901113000E+02  0.23780524063E+02  0.80233290747E+02  0.41800000000E+01 0. -1.
         -5    1    4    4    0  501  0.11740180159E+02 -0.32017132321E+02  0.15451224168E+03  0.15828592427E+03  0.41800000000E+01 0. -1.
</event>
<event>
11    1  0.6930157E-009  0.1588061E+03  0.7561462E-02  0.1088206E+00
         22   -1    0    0    0    0  0.00000000000E+00  0.00000000000E+00  0.97888586660E+03  0.97888586660E+03  0.00000000000E+00 0.  1.
         22   -1    0    0    0    0 -0.00000000000E+00 -0.00000000000E+00 -0.47808134260E+03  0.47808134260E+03  0.00000000000E+00 0.  1.
         24    2    1    2    0    0  0.68292179170E+02  0.73433071407E+01 -0.41888386589E+03  0.43252105636E+03  0.83024244666E+02 0.  0.
         25    2    1    2    0    0 -0.11503383719E+03 -0.88629968954E+02  0.14687828866E+03  0.24147193740E+03  0.12508960699E+03 0.  0.
        -24    2    1    2    0    0  0.46741658024E+02  0.81286661814E+02  0.77281010123E+03  0.78297421544E+03  0.83790605036E+02 0.  0.
        -11    1    3    3    0    0  0.85690451309E+02  0.14603620123E+02 -0.37128134965E+03  0.38132133400E+03  0.00000000000E+00 0.  1.
         12    1    3    3    0    0 -0.17398272138E+02 -0.72603129821E+01 -0.47602516238E+02  0.51199722364E+02  0.00000000000E+00 0. -1.
         11    1    5    5    0    0 -0.16397621589E+02  0.48354994014E+02  0.23592395595E+03  0.24138599883E+03  0.00000000000E+00 0. -1.
        -12    1    5    5    0    0  0.63139279614E+02  0.32931667799E+02  0.53688614528E+03  0.54158821660E+03  0.00000000000E+00 0.  1.
          5    1    4    4  501    0 -0.95948194829E+02 -0.10504544272E+03  0.15884787749E+03  0.21328554032E+03  0.41800000000E+01 0. -1.
         -5    1    4    4    0  501 -0.19085642366E+02  0.16415473768E+02 -0.11969588832E+02  0.28186397080E+02  0.41800000000E+01 0. -1.
</event>
<event>
11    1  0.6930157E-009  0.1346827E+03  0.7561462E-02  0.1113646E+00
         22   -1    0    0    0    0  0.00000000000E+00  0.00000000000E+00  0.16055490272E+03  0.16055490272E+03  0.00000000000E+00 0. -1.
         22   -1    0    0    0    0 -0.00000000000E+00 -0.00000000000E+00 -0.57213001529E+03  0.57213001529E+03  0.00000000000E+00 0.  1.
         24    2    1    2    0    0  0.44960651126E+02  0.19435043029E+02 -0.46834967232E+03  0.47768267622E+03  0.80188169667E+02 0.  0.
         25    2    1    2    0    0 -0.42417552146E+02 -0.61177972098E+02 -0.46177139920E+01  0.14563757394E+03  0.12508791572E+03 0.  0.
        -24    2    1    2    0    0 -0.25430989797E+01  0.41742929069E+02  0.61392273741E+02  0.10936466785E+03  0.80266305627E+02 0.  0.
        -13    1    3    3    0    0  0.52342522792E+02  0.41941437521E+02 -0.39347532652E+03  0.39915116992E+03  0.00000000000E+00 0.  1.
         14    1    3    3    0    0 -0.73818716657E+01 -0.22506394492E+02 -0.74874345803E+02  0.78531506300E+02  0.00000000000E+00 0. -1.
         11    1    5    5    0    0  0.29503922511E+01  0.64732748832E+02  0.54694640142E+02  0.84797035597E+02  0.00000000000E+00 0. -1.
        -12    1    5    5    0    0 -0.54934912308E+01 -0.22989819763E+02  0.66976335995E+01  0.24567632252E+02  0.00000000000E+00 0.  1.
          5    1    4    4  501    0 -0.64132966974E+02 -0.88677547789E+02 -0.98643260631E+01  0.10996145808E+03  0.41800000000E+01 0.  1.
         -5    1    4    4    0  501  0.21715414828E+02  0.27499575690E+02  0.52466120711E+01  0.35676115855E+02  0.41800000000E+01 0.  1.
</event>
<event>
11    1  0.6930157E-009  0.1632889E+03  0.7561462E-02  0.1084024E+00
         22   -1    0    0    0    0  0.00000000000E+00  0.00000000000E+00  0.99495714051E+03  0.99495714051E+03  0.00000000000E+00 0.  1.
         22   -1    0    0    0    0 -0.00000000000E+00 -0.00000000000E+00 -0.15890238354E+03  0.15890238354E+03  0.00000000000E+00 0.  1.
        -24    2    1    2    0    0 -0.76268632995E+02  0.26348117135E+02 -0.95686096189E+02  0.15038509027E+03  0.83358975012E+02 0.  0.
         25    2    1    2    0    0 -0.40006536556E+02 -0.35082333586E+00  0.11658861342E+03  0.17561614269E+03  0.12508988269E+03 0.  0.
         24    2    1    2    0    0  0.11627516955E+03 -0.25997293799E+02  0.81515223974E+03  0.82785829109E+03  0.81733725185E+02 0.  0.
        -13    1    5    5    0    0  0.86269477545E+02  0.89047171790E+01  0.66982897470E+03  0.67542029293E+03  0.00000000000E+00 0.  1.
         14    1    5    5    0    0  0.30005692006E+02 -0.34902010978E+02  0.14532326504E+03  0.15243799816E+03  0.00000000000E+00 0. -1.
         11    1    3    3    0    0  0.28034749304E+01  0.13672635471E+02  0.10443564953E+02  0.17431823810E+02  0.00000000000E+00 0. -1.
        -12    1    3    3    0    0 -0.79072107925E+02  0.12675481664E+02 -0.10612966114E+03  0.13295326646E+03  0.00000000000E+00 0.  1.
          5    1    4    4  501    0 -0.65753747754E+02 -0.41859667677E+02  0.92370548965E+02  0.12093625527E+03  0.41800000000E+01 0.  1.
         -5    1    4    4    0  501  0.25747211198E+02  0.41508844341E+02  0.24218064458E+02  0.54679887427E+02  0.41800000000E+01 0.  1.
</event>
<event>
11    1  0.6930157E-009  0.1383053E+03  0.7561462E-02  0.1109466E+00
         22   -1    0    0    0    0  0.00000000000E+00  0.00000000000E+00  0.10917167436E+03  0.10917167436E+03  0.00000000000E+00 0. -1.
         22   -1    0    0    0    0 -0.00000000000E+00 -0.00000000000E+00 -0.14721546873E+04  0.14721546873E+04  0.00000000000E+00 0. -1.
        -24    2    1    2    0    0  0.15948861343E+02  0.18046122531E+02 -0.11712889342E+04  0.11742897041E+04  0.80364875755E+02 0.  0.
         25    2    1    2    0    0  0.43973955352E+02 -0.84867349990E+01 -0.25539195579E+03  0.28789062309E+03  0.12510086477E+03 0.  0.
         24    2    1    2    0    0 -0.59922816695E+02 -0.95593875320E+01  0.63697876965E+02  0.11914603445E+03  0.80350682297E+02 0.  0.
        -13    1    5    5    0    0 -0.68739315781E+02 -0.29377763871E+02  0.33380701143E+02  0.81868295163E+02  0.00000000000E+00 0.  1.
         14    1    5    5    0    0  0.88164990855E+01  0.19818376339E+02  0.30317175822E+02  0.37277739291E+02  0.00000000000E+00 0. -1.
         11    1    3    3    0    0  0.95197207102E+00 -0.30619425031E+02 -0.31439938029E+03  0.31588831217E+03  0.00000000000E+00 0. -1.
        -12    1    3    3    0    0  0.14996889272E+02  0.48665547562E+02 -0.85688955386E+03  0.85840139197E+03  0.00000000000E+00 0.  1.
          5    1    4    4  501    0  0.69998380475E+02 -0.41893685456E+02 -0.21164674887E+03  0.22686267400E+03  0.41800000000E+01 0. -1.
         -5    1    4    4    0  501 -0.26024425123E+02  0.33406950457E+02 -0.43745206918E+02  0.61027949090E+02  0.41800000000E+01 0. -1.
</event>
<event>
11    1  0.6930157E-009  0.2022368E+03  0.7561462E-02  0.1052953E+00
         22   -1    0    0    0    0  0.00000000000E+00  0.00000000000E+00  0.15820015048E+03  0.15820015048E+03  0.00000000000E+00 0.  1.
         22   -1    0    0    0    0 -0.00000000000E+00 -0.00000000000E+00 -0.14659255421E+04  0.14659255421E+04  0.00000000000E+00 0.  1.
         24    2    1    2    0    0  0.11395961936E+03 -0.10478399679E+03 -0.10706419881E+04  0.10847872080E+04  0.80762238196E+02 0.  0.
         25    2    1    2    0    0 -0.15981521169E+03  0.87734792436E+02 -0.33624207672E+03  0.40242362972E+03  0.12509095854E+03 0.  0.
        -24    2    1    2    0    0  0.45855592333E+02  0.17049204357E+02  0.99158673244E+02  0.13691485482E+03  0.80745428811E+02 0.  0.
        -13    1    3    3    0    0  0.70281042186E+02 -0.36677487156E+02 -0.74659351524E+03  0.75079060992E+03  0.00000000000E+00 0.  1.
         14    1    3    3    0    0  0.43678577172E+02 -0.68106509637E+02 -0.32404847287E+03  0.33399659808E+03  0.00000000000E+00 0. -1.
         11    1    5    5    0    0 -0.19455181123E+02  0.90760895179E+01  0.49949020836E+01  0.22041518103E+02  0.00000000000E+00 0. -1.
        -12    1    5    5    0    0  0.65310773456E+02  0.79731148390E+01  0.94163771161E+02  0.11487333672E+03  0.00000000000E+00 0.  1.
          5    1    4    4  501    0 -0.15879925667E+03  0.74160951704E+02 -0.34408146162E+03  0.38616910196E+03  0.41800000000E+01 0.  1.
         -5    1    4    4    0  501 -0.10159550207E+01  0.13573840732E+02  0.78393849069E+01  0.16254527755E+02  0.41800000000E+01 0.  1.
</event>
<event>
11    1  0.6930157E-009  0.2193511E+03  0.7561462E-02  0.1041625E+00
         22   -1    0    0    0    0  0.00000000000E+00  0.00000000000E+00  0.79949922121E+03  0.79949922121E+03  0.00000000000E+00 0. -1.
         22   -1    0    0    0    0 -0.00000000000E+00 -0.00000000000E+00 -0.70051778173E+03  0.70051778173E+03  0.00000000000E+00 0.  1.
         24    2    1    2    0    0 -0.83658073190E+02 -0.61595253656E+02 -0.32894726679E+03  0.35405504720E+03  0.79724673937E+02 0.  0.
         25    2    1    2    0    0 -0.77376532761E+02  0.14604245403E+03 -0.31467695888E+03  0.37680941589E+03  0.12509285052E+03 0.  0.
        -24    2    1    2    0    0  0.16103460595E+03 -0.84447200374E+02  0.74260566516E+03  0.76915253985E+03  0.84077236338E+02 0.  0.
        -13    1    3    3    0    0 -0.97494787203E+02 -0.58288272561E+02 -0.31136766314E+03  0.33144015735E+03  0.00000000000E+00 0.  1.
         14    1    3    3    0    0  0.13836714013E+02 -0.33069810951E+01 -0.17579603646E+02  0.22614889852E+02  0.00000000000E+00 0. -1.
         13    1    5    5    0    0  0.51836139544E+02 -0.69033210633E+02  0.40098722623E+03  0.41017474950E+03  0.00000000000E+00 0. -1.
        -14    1    5    5    0    0  0.10919846641E+03 -0.15413989742E+02  0.34161843893E+03  0.35897779035E+03  0.00000000000E+00 0.  1.
          5    1    4    4  501    0 -0.91362126574E+02  0.73723727151E+02 -0.25895389214E+03  0.28435333086E+03  0.41800000000E+01 0. -1.
         -5    1    4    4    0  501  0.13985593814E+02  0.72318726879E+02 -0.55723066746E+02  0.92456085032E+02  0.41800000000E+01 0. -1.
</event>
<event>
11    1  0.6930157E-009  0.1542885E+03  0.7561462E-02  0.1092576E+00
         22   -1    0    0    0    0  0.00000000000E+00  0.00000000000E+00  0.38240785450E+03  0.38240785450E+03  0.00000000000E+00 0.  1.
         22   -1    0    0    0    0 -0.00000000000E+00 -0.00000000000E+00 -0.83894479805E+03  0.83894479805E+03  0.00000000000E+00 0.  1.
        -24    2    1    2    0    0 -0.19671189314E+02 -0.42771665364E+02 -0.77908663940E+03  0.78460302858E+03  0.80059663544E+02 0.  0.
         25    2    1    2    0    0  0.91260393984E+02  0.77570039870E+02  0.14242648886E+03  0.22422736109E+03  0.12508810551E+03 0.  0.
         24    2    1    2    0    0 -0.71589204669E+02 -0.34798374506E+02  0.18012320699E+03  0.21252226287E+03  0.79908706827E+02 0.  0.
        -13    1    5    5    0    0 -0.89310237976E+02 -0.26385485196E+02  0.15103606946E+03  0.17743845895E+03  0.00000000000E+00 0.  1.
         14    1    5    5    0    0  0.17721033307E+02 -0.84128893109E+01  0.29087137526E+02  0.35083803920E+02  0.00000000000E+00 0. -1.
         13    1    3    3    0    0  0.28814115107E+02 -0.13099884039E+02 -0.17428012601E+03  0.17713108850E+03  0.00000000000E+00 0. -1.
        -14    1    3    3    0    0 -0.48485304422E+02 -0.29671781325E+02 -0.60480651339E+03  0.60747194008E+03  0.00000000000E+00 0.  1.
          5    1    4    4  501    0  0.84938682996E+02  0.22447060868E+01  0.33178540482E+02  0.91312137873E+02  0.41800000000E+01 0. -1.
         -5    1    4    4    0  501  0.63217109880E+01  0.75325333784E+02  0.10924794837E+03  0.13291522322E+03  0.41800000000E+01 0. -1.
</event>
<event>
11    1  0.6930157E-009  0.1727295E+03  0.7561462E-02  0.1075680E+00
         22   -1    0    0    0    0  0.00000000000E+00  0.00000000000E+00  0.55673996612E+03  0.55673996612E+03  0.00000000000E+00 0.  1.
         22   -1    0    0    0    0 -0.00000000000E+00 -0.00000000000E+00 -0.40901614397E+03  0.40901614397E+03  0.00000000000E+00 0.  1.
         24    2    1    2    0    0  0.20021734055E+02 -0.11708572664E+03 -0.34743531408E+03  0.37563180348E+03  0.79233939038E+02 0.  0.
         25    2    1    2    0    0  0.67197972399E+02  0.13837234376E+03  0.28757593938E+03  0.34929958919E+03  0.12509120307E+03 0.  0.
        -24    2    1    2    0    0 -0.87219706454E+02 -0.21286617120E+02  0.20758319685E+03  0.24082471743E+03  0.82736712831E+02 0.  0.
        -13    1    3    3    0    0 -0.13716434391E+02 -0.99905572718E+02 -0.28817309453E+03  0.30530803534E+03  0.00000000000E+00 0.  1.
         14    1    3    3    0    0  0.33738168446E+02 -0.17180153924E+02 -0.59262219552E+02  0.70323768138E+02  0.00000000000E+00 0. -1.
         13    1    5    5    0    0  0.55549140395E+01  0.19390997418E+02  0.26130229092E+02  0.33009948853E+02  0.00000000000E+00 0. -1.
        -14    1    5    5    0    0 -0.92774620493E+02 -0.40677614538E+02  0.18145296776E+03  0.20781476858E+03  0.00000000000E+00 0.  1.
          5    1    4    4  501    0  0.79068431289E+02  0.59703628408E+02  0.23158470479E+03  0.25192317869E+03  0.41800000000E+01 0.  1.
         -5    1    4    4    0  501 -0.11870458890E+02  0.78668715354E+02  0.55991234593E+02  0.97376410495E+02  0.41800000000E+01 0.  1.
</event>
<event>
11    1  0.6930157E-009  0.1314020E+03  0.7561462E-02  0.1117558E+00
         22   -1    0    0    0    0  0.00000000000E+00  0.00000000000E+00  0.26341914407E+03  0.26341914407E+03  0.00000000000E+00 0. -1.
         22   -1    0    0    0    0 -0.00000000000E+00 -0.00000000000E+00 -0.17441369366E+03  0.17441369366E+03  0.00000000000E+00 0. -1.
        -24    2    1    2    0    0  0.39112673576E+02 -0.11706376943E+02 -0.11617451946E+03  0.14653980129E+03  0.79438994803E+02 0.  0.
         25    2    1    2    0    0 -0.22796553868E+02  0.40214728116E+02  0.11887252715E+03  0.17864588656E+03  0.12508704109E+03 0.  0.
         24    2    1    2    0    0 -0.16316119709E+02 -0.28508351173E+02  0.86307442725E+02  0.11264714988E+03  0.64509409060E+02 0.  0.
        -11    1    5    5    0    0 -0.36154941417E+01  0.38381610173E+01 -0.94266144357E+01  0.10801126682E+02  0.00000000000E+00 0.  1.
         12    1    5    5    0    0 -0.12700625567E+02 -0.32346512190E+02  0.95734057161E+02  0.10184602320E+03  0.00000000000E+00 0. -1.
         11    1    3    3    0    0 -0.40264653897E+01 -0.33146759744E+02 -0.19861410164E+02  0.38850942315E+02  0.00000000000E+00 0. -1.
        -12    1    3    3    0    0  0.43139138966E+02  0.21440382801E+02 -0.96313109293E+02  0.10768885897E+03  0.00000000000E+00 0.  1.
          5    1    4    4  501    0 -0.10563941400E+02  0.80910319004E+02  0.10642157105E+03  0.13416817716E+03  0.41800000000E+01 0.  1.
         -5    1    4    4    0  501 -0.12232612468E+02 -0.40695590888E+02  0.12450956102E+02  0.44477709398E+02  0.41800000000E+01 0.  1.
</event>
<event>
11    1  0.6930157E-009  0.1471768E+03  0.7561462E-02  0.1099799E+00
         22   -1    0    0    0    0  0.00000000000E+00  0.00000000000E+00  0.25745814027E+04  0.25745814027E+04  0.00000000000E+00 0. -1.
         22   -1    0    0    0    0 -0.00000000000E+00 -0.00000000000E+00 -0.25086061735E+02  0.25086061735E+02  0.00000000000E+00 0. -1.
        -24    2    1    2    0    0  0.36615505274E+02  0.73859529822E+02  0.18462274858E+03  0.21763028420E+03  0.80507489938E+02 0.  0.
         25    2    1    2    0    0 -0.48388076011E+02 -0.43022090353E+02  0.67741235721E+03  0.69190122371E+03  0.12508994969E+03 0.  0.
         24    2    1    2    0    0  0.11772570737E+02 -0.30837439470E+02  0.16874602352E+04  0.16901359565E+04  0.89151360836E+02 0.  0.
        -11    1    5    5    0    0 -0.58181824157E+01 -0.38980954910E+01  0.91752452284E+01  0.11542595899E+02  0.00000000000E+00 0.  1.
         12    1    5    5    0    0  0.17590753152E+02 -0.26939343979E+02  0.16782849900E+04  0.16785933606E+04  0.00000000000E+00 0. -1.
         11    1    3    3    0    0  0.11558861562E+02  0.66679611646E+02  0.60417721034E+02  0.90719782323E+02  0.00000000000E+00 0. -1.
        -12    1    3    3    0    0  0.25056643712E+02  0.71799181766E+01  0.12420502755E+03  0.12691050188E+03  0.00000000000E+00 0.  1.
          5    1    4    4  501    0  0.23311012406E+02  0.22059736069E+02  0.74193940208E+02  0.80945959864E+02  0.41800000000E+01 0. -1.
         -5    1    4    4    0  501 -0.71699088417E+02 -0.65081826422E+02  0.60321841700E+03  0.61095526384E+03  0.41800000000E+01 0. -1.
</event>
<event>
11    1  0.6930157E-009  0.1661272E+03  0.7561462E-02  0.1081452E+00
         22   -1    0    0    0    0  0.00000000000E+00  0.00000000000E+00  0.11122645584E+04  0.11122645584E+04  0.00000000000E+00 0.  1.
         22   -1    0    0    0    0 -0.00000000000E+00 -0.00000000000E+00 -0.25844658167E+03  0.25844658167E+03  0.00000000000E+00 0. -1.
        -24    2    1    2    0    0 -0.17626737215E+01 -0.50989903059E+01 -0.17745029568E+03  0.19485079013E+03  0.80306389899E+02 0.  0.
         25    2    1    2    0    0  0.91221995432E+02 -0.57899047914E+02  0.33215303756E+02  0.16859494653E+03  0.12508895791E+03 0.  0.
         24    2    1    2    0    0 -0.89459321711E+02  0.62998038220E+02  0.99805296870E+03  0.10072654035E+04  0.80635857994E+02 0.  0.
        -11    1    5    5    0    0 -0.35079883086E+02  0.17208873821E+02  0.69044154276E+03  0.69154628732E+03  0.00000000000E+00 0.  1.
         12    1    5    5    0    0 -0.54379438624E+02  0.45789164398E+02  0.30761142594E+03  0.31571911613E+03  0.00000000000E+00 0. -1.
         11    1    3    3    0    0  0.21595654841E+02 -0.35539725997E+02 -0.10341036356E+03  0.11145917514E+03  0.00000000000E+00 0. -1.
        -12    1    3    3    0    0 -0.23358328562E+02  0.30440735691E+02 -0.74039932118E+02  0.83391614990E+02  0.00000000000E+00 0.  1.
          5    1    4    4  501    0 -0.15786404134E+01 -0.18130922440E+02  0.61001098823E+02  0.63795210727E+02  0.41800000000E+01 0.  1.
         -5    1    4    4    0  501  0.92800635846E+02 -0.39768125474E+02 -0.27785795067E+02  0.10479973580E+03  0.41800000000E+01 0.  1.
</event>
<event>
11    1  0.6930157E-009  0.1349817E+03  0.7561462E-02  0.1113295E+00
         22   -1    0    0    0    0  0.00000000000E+00  0.00000000000E+00  0.68587078623E+03  0.68587078623E+03  0.00000000000E+00 0. -1.
         22   -1    0    0    0    0 -0.00000000000E+00 -0.00000000000E+00 -0.17178075228E+03  0.17178075228E+03  0.00000000000E+00 0.  1.
         24    2    1    2    0    0 -0.22214834688E+02  0.63127793366E+01 -0.12336080535E+03  0.14819662478E+03  0.78809905697E+02 0.  0.
         25    2    1    2    0    0  0.61075195332E+02 -0.34492456316E+02  0.13172205781E+03  0.19472494768E+03  0.12508875132E+03 0.  0.
        -24    2    1    2    0    0 -0.38860360643E+02  0.28179676980E+02  0.50572878149E+03  0.51472996605E+03  0.82952490648E+02 0.  0.
        -13    1    3    3    0    0 -0.41295471683E+02 -0.48889183662E+01 -0.11844329372E+03  0.12553099750E+03  0.00000000000E+00 0.  1.
         14    1    3    3    0    0  0.19080636994E+02  0.11201697703E+02 -0.49175116268E+01  0.22665627283E+02  0.00000000000E+00 0. -1.
         11    1    5    5    0    0 -0.20394741184E+02 -0.21792845099E+02  0.32347966645E+03  0.32485376429E+03  0.00000000000E+00 0. -1.
        -12    1    5    5    0    0 -0.18465619459E+02  0.49972522079E+02  0.18224911503E+03  0.18987620176E+03  0.00000000000E+00 0.  1.
          5    1    4    4  501    0  0.89384097723E+02 -0.40706122600E+02  0.55091454601E+02  0.11269004443E+03  0.41800000000E+01 0. -1.
         -5    1    4    4    0  501 -0.28308902392E+02  0.62136662834E+01  0.76630603212E+02  0.82034903255E+02  0.41800000000E+01 0. -1.
</event>
<event>
11    1  0.6930157E-009  0.2013096E+03  0.7561462E-02  0.1053601E+00
         22   -1    0    0    0    0  0.00000000000E+00  0.00000000000E+00  0.30036222791E+03  0.30036222791E+03  0.00000000000E+00 0. -1.
         22   -1    0    0    0    0 -0.00000000000E+00 -0.00000000000E+00 -0.71249698799E+03  0.71249698799E+03  0.00000000000E+00 0.  1.
        -24    2    1    2    0    0  0.29318669598E+02 -0.14777093737E+03 -0.45106646006E+03  0.48208014341E+03  0.79022015708E+02 0.  0.
         25    2    1    2    0    0 -0.92078094506E+02  0.16577339527E+03 -0.17917951477E+03  0.28932855011E+03  0.12508603968E+03 0.  0.
         24    2    1    2    0    0  0.62759424908E+02 -0.18002457901E+02  0.21811121475E+03  0.24145052238E+03  0.80392903005E+02 0.  0.
        -11    1    5    5    0    0  0.50204580718E+02  0.68638695391E+00  0.46709944694E+02  0.68576891045E+02  0.00000000000E+00 0.  1.
         12    1    5    5    0    0  0.12554844190E+02 -0.18688844855E+02  0.17140127006E+03  0.17287363134E+03  0.00000000000E+00 0. -1.
         13    1    3    3    0    0 -0.19692131933E+02 -0.98966809680E+02 -0.27309941448E+03  0.29114515223E+03  0.00000000000E+00 0. -1.
        -14    1    3    3    0    0  0.49010801531E+02 -0.48804127693E+02 -0.17796704557E+03  0.19093499118E+03  0.00000000000E+00 0.  1.
          5    1    4    4  501    0 -0.62897903980E+02  0.15734899728E+03 -0.19198227275E+03  0.25610450742E+03  0.41800000000E+01 0.  1.
         -5    1    4    4    0  501 -0.29180190526E+02  0.84243979960E+01  0.12802757977E+02  0.33224042688E+02  0.41800000000E+01 0.  1.
</event>
<event>
11    1  0.6930157E-009  0.2233574E+03  0.7561462E-02  0.1039134E+00
         22   -1    0    0    0    0  0.00000000000E+00  0.00000000000E+00  0.81657336404E+03  0.81657336404E+03  0.00000000000E+00 0. -1.
         22   -1    0    0    0    0 -0.00000000000E+00 -0.00000000000E+00 -0.57691396271E+03  0.57691396271E+03  0.00000000000E+00 0. -1.
         24    2    1    2    0    0  0.17345369897E+03  0.37861440642E+02 -0.43114882586E+03  0.47479768293E+03  0.89575975023E+02 0.  0.
         25    2    1    2    0    0 -0.25114040713E+03  0.19534409521E+02  0.50408999854E+02  0.28573050950E+03  0.12509100505E+03 0.  0.
        -24    2    1    2    0    0  0.77686708158E+02 -0.57395850162E+02  0.62039922734E+03  0.63295913432E+03  0.80078437774E+02 0.  0.
        -13    1    3    3    0    0  0.50468569439E+02 -0.17665585911E+02 -0.62631565699E+02  0.82352064022E+02  0.00000000000E+00 0.  1.
         14    1    3    3    0    0  0.12298512953E+03  0.55527026553E+02 -0.36851726016E+03  0.39244561891E+03  0.00000000000E+00 0. -1.
         11    1    5    5    0    0  0.69482025143E+01 -0.54130484631E+02  0.28120697194E+03  0.28645374487E+03  0.00000000000E+00 0. -1.
        -12    1    5    5    0    0  0.70738505644E+02 -0.32653655310E+01  0.33919225540E+03  0.34650538945E+03  0.00000000000E+00 0.  1.
          5    1    4    4  501    0 -0.13881096412E+03 -0.19006955079E+02 -0.28565672970E+02  0.14304970525E+03  0.41800000000E+01 0.  1.
         -5    1    4    4    0  501 -0.11232944301E+03  0.38541364600E+02  0.78974672823E+02  0.14268080425E+03  0.41800000000E+01 0.  1.
</event>
<event>
11    1  0.6930157E-009  0.1631935E+03  0.7561462E-02  0.1084112E+00
         22   -1    0    0    0    0  0.00000000000E+00  0.00000000000E+00  0.13495425028E+04  0.13495425028E+04  0.00000000000E+00 0. -1.
         22   -1    0    0    0    0 -0.00000000000E+00 -0.00000000000E+00 -0.77952664836E+03  0.77952664836E+03  0.00000000000E+00 0.  1.
        -24    2    1    2    0    0 -0.10346709457E+01  0.73108246951E+02 -0.67852976975E+03  0.68708306989E+03  0.79590264381E+02 0.  0.
         25    2    1    2    0    0 -0.56194494092E+02 -0.15830243324E+03  0.24381447904E+02  0.21085410940E+03  0.12509004323E+03 0.  0.
         24    2    1    2    0    0  0.57229165038E+02  0.85194186290E+02  0.12241641763E+04  0.12311319719E+04  0.81084985786E+02 0.  0.
        -13    1    5    5    0    0  0.30956260177E+02 -0.38333209211E+01  0.16606984974E+03  0.16897390149E+03  0.00000000000E+00 0.  1.
         14    1    5    5    0    0  0.26272904861E+02  0.89027507211E+02  0.10580943265E+04  0.10621580704E+04  0.00000000000E+00 0. -1.
         11    1    3    3    0    0 -0.34138575742E+02  0.19064292404E+02 -0.37335500050E+03  0.37539691794E+03  0.00000000000E+00 0. -1.
        -12    1    3    3    0    0  0.33103904796E+02  0.54043954547E+02 -0.30517476925E+03  0.31168615196E+03  0.00000000000E+00 0.  1.
          5    1    4    4  501    0 -0.24593015168E+02 -0.10359227257E+03 -0.46107708192E+02  0.11610154385E+03  0.41800000000E+01 0. -1.
         -5    1    4    4    0  501 -0.31601478924E+02 -0.54710160673E+02  0.70489156096E+02  0.94752565550E+02  0.41800000000E+01 0. -1.
</event>
<event>
11    1  0.6930157E-009  0.1471444E+03  0.7561462E-02  0.1099833E+00
         22   -1    0    0    0    0  0.00000000000E+00  0.00000000000E+00  0.30325392650E+03  0.30325392650E+03  0.00000000000E+00 0. -1.
         22   -1    0    0    0    0 -0.00000000000E+00 -0.00000000000E+00 -0.24214968535E+03  0.24214968535E+03  0.00000000000E+00 0. -1.
        -24    2    1    2    0    0 -0.19613128300E+02 -0.31432047363E+02 -0.15264324256E+03  0.17592807294E+03  0.79234329340E+02 0.  0.
         25    2    1    2    0    0  0.74902001242E+02 -0.24871073466E+02  0.26287233990E+02  0.15022348624E+03  0.12508875674E+03 0.  0.
         24    2    1    2    0    0 -0.55288872941E+02  0.56303120829E+02  0.18746024973E+03  0.21925205266E+03  0.81873173160E+02 0.  0.
        -11    1    5    5    0    0 -0.21590887991E+02  0.44833521378E+02  0.30630308660E+02  0.58433097573E+02  0.00000000000E+00 0.  1.
         12    1    5    5    0    0 -0.33697984950E+02  0.11469599451E+02  0.15682994107E+03  0.16081895509E+03  0.00000000000E+00 0. -1.
         11    1    3    3    0    0 -0.16782679370E+02 -0.21313417826E+02 -0.16052013591E+03  0.16279629646E+03  0.00000000000E+00 0. -1.
        -12    1    3    3    0    0 -0.28304489301E+01 -0.10118629537E+02  0.78768933497E+01  0.13131776487E+02  0.00000000000E+00 0.  1.
          5    1    4    4  501    0  0.10440319001E+03 -0.56937961352E+01 -0.23437424490E+01  0.10466809890E+03  0.41800000000E+01 0. -1.
         -5    1    4    4    0  501 -0.29501188764E+02 -0.19177277331E+02  0.28630976439E+02  0.45555387345E+02  0.41800000000E+01 0. -1.
</event>
<event>
11    1  0.6930157E-009  0.1338275E+03  0.7561462E-02  0.1114654E+00
         22   -1    0    0    0    0  0.00000000000E+00  0.00000000000E+00  0.19053959866E+02  0.19053959866E+02  0.00000000000E+00 0. -1.
         22   -1    0    0    0    0 -0.00000000000E+00 -0.00000000000E+00 -0.16723323088E+04  0.16723323088E+04  0.00000000000E+00 0.  1.
         24    2    1    2    0    0 -0.47337030933E+02  0.32754985452E+02 -0.76318503221E+03  0.76886838464E+03  0.73440560584E+02 0.  0.
         25    2    1    2    0    0 -0.22897385845E+02 -0.32514676981E+02 -0.39500129316E+03  0.41623933787E+03  0.12509064829E+03 0.  0.
        -24    2    1    2    0    0  0.70234416777E+02 -0.24030847101E+00 -0.49509202352E+03  0.50627854612E+03  0.79176533518E+02 0.  0.
        -11    1    3    3    0    0 -0.27556998950E+02 -0.10830413704E+02 -0.52975276852E+03  0.53057957161E+03  0.00000000000E+00 0.  1.
         12    1    3    3    0    0 -0.19780031983E+02  0.43585399156E+02 -0.23343226369E+03  0.23828881303E+03  0.00000000000E+00 0. -1.
         11    1    5    5    0    0  0.84605060015E+02  0.60650621056E+01 -0.34107220413E+03  0.35146130597E+03  0.00000000000E+00 0. -1.
        -12    1    5    5    0    0 -0.14370643238E+02 -0.63053705766E+01 -0.15401981939E+03  0.15481724015E+03  0.00000000000E+00 0.  1.
          5    1    4    4  501    0 -0.30024678206E+02 -0.69523364394E+02 -0.14757508963E+03  0.16592425674E+03  0.41800000000E+01 0.  1.
         -5    1    4    4    0  501  0.71272923610E+01  0.37008687413E+02 -0.24742620354E+03  0.25031508112E+03  0.41800000000E+01 0.  1.
</event>
<event>
11    1  0.6930157E-009  0.1495127E+03  0.7561462E-02  0.1097378E+00
         22   -1    0    0    0    0  0.00000000000E+00  0.00000000000E+00  0.61125006956E+03  0.61125006956E+03  0.00000000000E+00 0. -1.
         22   -1    0    0    0    0 -0.00000000000E+00 -0.00000000000E+00 -0.13396720291E+04  0.13396720291E+04  0.00000000000E+00 0. -1.
        -24    2    1    2    0    0 -0.20923784153E+02 -0.38656420289E+02 -0.12891801861E+04  0.12917419373E+04  0.68407286573E+02 0.  0.
         25    2    1    2    0    0 -0.47788185463E+02  0.81889521250E+02  0.10335937659E+03  0.18797019875E+03  0.12514004368E+03 0.  0.
         24    2    1    2    0    0  0.68711969616E+02 -0.43233100961E+02  0.45739884997E+03  0.47120996259E+03  0.78960022172E+02 0.  0.
        -13    1    5    5    0    0 -0.99154301762E+00 -0.44068047668E+01 -0.19956498820E+01  0.49381883580E+01  0.00000000000E+00 0.  1.
         14    1    5    5    0    0  0.69703512634E+02 -0.38826296194E+02  0.45939449985E+03  0.46627177423E+03  0.00000000000E+00 0. -1.
         11    1    3    3    0    0 -0.14693168727E+02  0.33530379406E+01 -0.92056262846E+03  0.92068598609E+03  0.00000000000E+00 0. -1.
        -12    1    3    3    0    0 -0.62306154262E+01 -0.42009458230E+02 -0.36861755762E+03  0.37105595122E+03  0.00000000000E+00 0.  1.
          5    1    4    4  501    0 -0.88474728066E+02  0.36597884186E+02  0.66986182760E+02  0.11692648850E+03  0.41800000000E+01 0.  1.
         -5    1    4    4    0  501  0.40686542603E+02  0.45291637064E+02  0.36373193826E+02  0.71043710250E+02  0.41800000000E+01 0.  1.
</event>
<event>
11    1  0.6930157E-009  0.1303401E+03  0.7561462E-02  0.1118852E+00
         22   -1    0    0    0    0  0.00000000000E+00  0.00000000000E+00  0.47295735040E+03  0.47295735040E+03  0.00000000000E+00 0. -1.
         22   -1    0    0    0    0 -0.00000000000E+00 -0.00000000000E+00 -0.32493653182E+03  0.32493653182E+03  0.00000000000E+00 0. -1.
        -24    2    1    2    0    0  0.50729333908E+00  0.36322787191E+02 -0.24847723490E+03  0.26328097928E+03  0.79097001012E+02 0.  0.
         25    2    1    2    0    0 -0.22245586753E+02 -0.38424622824E+02  0.33257414738E+01  0.13277642002E+03  0.12508876603E+03 0.  0.
         24    2    1    2    0    0  0.21738293414E+02  0.21018356339E+01  0.39317231201E+03  0.40183648293E+03  0.80069475877E+02 0.  0.
        -11    1    5    5    0    0 -0.18996700490E+02  0.11613692970E+02  0.36756492865E+02  0.42974320956E+02  0.00000000000E+00 0.  1.
         12    1    5    5    0    0  0.40734993904E+02 -0.95118573366E+01  0.35641581914E+03  0.35886216197E+03  0.00000000000E+00 0. -1.
         13    1    3    3    0    0  0.35955467849E+02  0.29514668803E+02 -0.17950347410E+03  0.18543302984E+03  0.00000000000E+00 0. -1.
        -14    1    3    3    0    0 -0.35448174510E+02  0.68081183870E+01 -0.68973760802E+02  0.77847949435E+02  0.00000000000E+00 0.  1.
          5    1    4    4  501    0 -0.30440772677E+02 -0.19884417619E+02  0.61202112590E+02  0.71310600129E+02  0.41800000000E+01 0.  1.
         -5    1    4    4    0  501  0.81951859243E+01 -0.18540205205E+02 -0.57876371117E+02  0.61465819892E+02  0.41800000000E+01 0.  1.
</event>
<event>
11    1  0.6930157E-009  0.1505471E+03  0.7561462E-02  0.1096321E+00
         22   -1    0    0    0    0  0.00000000000E+00  0.00000000000E+00  0.22084903719E+04  0.22084903719E+04  0.00000000000E+00 0.  1.
         22   -1    0    0    0    0 -0.00000000000E+00 -0.00000000000E+00 -0.19675657962E+03  0.19675657962E+03  0.00000000000E+00 0.  1.
        -24    2    1    2    0    0 -0.52256889438E+02 -0.65314670687E+02 -0.16709571699E+03  0.20276055941E+03  0.78702459391E+02 0.  0.
         25    2    1    2    0    0  0.11450510299E+03  0.21197650111E+02  0.74653758572E+03  0.76585021900E+03  0.12508969607E+03 0.  0.
         24    2    1    2    0    0 -0.62248213550E+02  0.44117020576E+02  0.14322919235E+04  0.14366361731E+04  0.81499619866E+02 0.  0.
        -13    1    5    5    0    0 -0.41284539243E+02 -0.18747474828E+02  0.56566790126E+03  0.56748220722E+03  0.00000000000E+00 0.  1.
         14    1    5    5    0    0 -0.20963674307E+02  0.62864495404E+02  0.86662402228E+03  0.86915396589E+03  0.00000000000E+00 0. -1.
         11    1    3    3    0    0 -0.16279315422E+02 -0.22409085817E+01 -0.10770827179E+03  0.10895462172E+03  0.00000000000E+00 0. -1.
        -12    1    3    3    0    0 -0.35977574015E+02 -0.63073762105E+02 -0.59387445199E+02  0.93805937687E+02  0.00000000000E+00 0.  1.
          5    1    4    4  501    0  0.31601963080E+02 -0.20884494170E+01  0.55366941906E+03  0.55459024846E+03  0.41800000000E+01 0. -1.
         -5    1    4    4    0  501  0.82903139907E+02  0.23286099528E+02  0.19286816667E+03  0.21125997054E+03  0.41800000000E+01 0. -1.
</event>
<event>
11    1  0.6930157E-009  0.1526959E+03  0.7561462E-02  0.1094156E+00
         22   -1    0    0    0    0  0.00000000000E+00  0.00000000000E+00  0.67519798478E+03  0.67519798478E+03  0.00000000000E+00 0. -1.
         22   -1    0    0    0    0 -0.00000000000E+00 -0.00000000000E+00 -0.62512311711E+03  0.62512311711E+03  0.00000000000E+00 0. -1.
         24    2    1    2    0    0  0.45813696609E+02  0.67579314967E+01 -0.59221077325E+03  0.59930399748E+03  0.79417359597E+02 0.  0.
         25    2    1    2    0    0 -0.84220670119E+02 -0.64846632395E+02  0.46390228635E+03  0.49208901108E+03  0.12509219217E+03 0.  0.
        -24    2    1    2    0    0  0.38406973510E+02  0.58088700898E+02  0.17838335457E+03  0.20892809333E+03  0.83551985072E+02 0.  0.
        -13    1    3    3    0    0 -0.20580937138E+02 -0.40911074173E+01 -0.80504862154E+02  0.83194621003E+02  0.00000000000E+00 0.  1.
         14    1    3    3    0    0  0.66394633746E+02  0.10849038914E+02 -0.51170591110E+03  0.51610937648E+03  0.00000000000E+00 0. -1.
         13    1    5    5    0    0  0.15717586175E+02  0.44198387539E+02  0.17608389294E+03  0.18222534766E+03  0.00000000000E+00 0. -1.
        -14    1    5    5    0    0  0.22689387336E+02  0.13890313359E+02  0.22994616332E+01  0.26702745677E+02  0.00000000000E+00 0.  1.
          5    1    4    4  501    0 -0.45146108750E+02 -0.26037748921E+02  0.41511990106E+03  0.41839949828E+03  0.41800000000E+01 0. -1.
         -5    1    4    4    0  501 -0.39074561369E+02 -0.38808883474E+02  0.48782385282E+02  0.73689512799E+02  0.41800000000E+01 0. -1.
</event>
<event>
11    1  0.7242602E-009  0.1882427E+03  0.7561462E-02  0.1063164E+00
         22   -1    0    0    0    0  0.00000000000E+00  0.00000000000E+00  0.11457004401E+03  0.11457004401E+03  0.00000000000E+00 0.  1.
         22   -1    0    0    0    0 -0.00000000000E+00 -0.00000000000E+00 -0.23804032352E+04  0.23804032352E+04  0.00000000000E+00 0. -1.
         24    2    1    2    0    0  0.79115004275E+02  0.11273848615E+02 -0.17923055372E+04  0.17956707526E+04  0.75419027015E+02 0.  0.
         25    2    1    2    0    0  0.21856924790E+02  0.96958556437E+02 -0.50353330195E+03  0.52827304573E+03  0.12509171774E+03 0.  0.
        -24    2    1    2    0    0 -0.10097192907E+03 -0.10823240505E+03  0.30005647917E+02  0.17102948089E+03  0.80256840609E+02 0.  0.
        -11    1    3    3    0    0  0.52572306991E+02  0.23696503367E+02 -0.54907415296E+03  0.55209401118E+03  0.00000000000E+00 0.  1.
         12    1    3    3    0    0  0.26542697284E+02 -0.12422654751E+02 -0.12432313842E+04  0.12435767414E+04  0.00000000000E+00 0. -1.
         11    1    5    5    0    0  0.75440680447E+01  0.66972429662E+01 -0.26803822749E+00  0.10091475140E+02  0.00000000000E+00 0. -1.
        -12    1    5    5    0    0 -0.10851599711E+03 -0.11492964802E+03  0.30273686144E+02  0.16093800575E+03  0.00000000000E+00 0.  1.
          5    1    4    4  501    0  0.29936945008E+02 -0.23894078251E+02 -0.11616424090E+03  0.12238770737E+03  0.41800000000E+01 0.  1.
         -5    1    4    4    0  501 -0.80800202180E+01  0.12085263469E+03 -0.38736906105E+03  0.40588533836E+03  0.41800000000E+01 0.  1.
</event>
<event>
11    1  0.6930157E-009  0.1702503E+03  0.7561462E-02  0.1077814E+00
         22   -1    0    0    0    0  0.00000000000E+00  0.00000000000E+00  0.88779853958E+03  0.88779853958E+03  0.00000000000E+00 0.  1.
         22   -1    0    0    0    0 -0.00000000000E+00 -0.00000000000E+00 -0.86769280930E+03  0.86769280930E+03  0.00000000000E+00 0. -1.
        -24    2    1    2    0    0  0.11244457415E+03 -0.33101064337E+02 -0.82353807217E+03  0.83566546182E+03  0.79889580325E+02 0.  0.
         25    2    1    2    0    0 -0.79542160970E+02 -0.34468786763E+02  0.13622091153E+03  0.20425123772E+03  0.12508948293E+03 0.  0.
         24    2    1    2    0    0 -0.32902413177E+02  0.67569851100E+02  0.70742289092E+03  0.71557464934E+03  0.77147123169E+02 0.  0.
        -13    1    5    5    0    0 -0.19436480650E+02  0.19146548287E+02  0.54196673203E+03  0.54265302516E+03  0.00000000000E+00 0.  1.
         14    1    5    5    0    0 -0.13465932527E+02  0.48423302812E+02  0.16545615888E+03  0.17292162417E+03  0.00000000000E+00 0. -1.
         11    1    3    3    0    0  0.81346028619E+02 -0.20681474332E+02 -0.75209202360E+03  0.75676106646E+03  0.00000000000E+00 0. -1.
        -12    1    3    3    0    0  0.31098545528E+02 -0.12419590004E+02 -0.71446048577E+02  0.78904395360E+02  0.00000000000E+00 0.  1.
          5    1    4    4  501    0 -0.34053616885E+02 -0.77930152731E+02  0.10072977588E+03  0.13189661738E+03  0.41800000000E+01 0.  1.
         -5    1    4    4    0  501 -0.45488544085E+02  0.43461365968E+02  0.35491135645E+02  0.72354620338E+02  0.41800000000E+01 0.  1.
</event>
<event>
11    1  0.6930157E-009  0.1444792E+03  0.7561462E-02  0.1102657E+00
         22   -1    0    0    0    0  0.00000000000E+00  0.00000000000E+00  0.11742052113E+04  0.11742052113E+04  0.00000000000E+00 0.  1.
         22   -1    0    0    0    0 -0.00000000000E+00 -0.00000000000E+00 -0.55952003797E+03  0.55952003797E+03  0.00000000000E+00 0.  1.
         24    2    1    2    0    0 -0.71659709145E+02 -0.13768132752E+02 -0.53936368239E+03  0.54995698609E+03  0.78834188472E+02 0.  0.
         25    2    1    2    0    0  0.35213635955E+02 -0.13359961946E+02  0.30291884951E+03  0.32988730207E+03  0.12508922392E+03 0.  0.
        -24    2    1    2    0    0  0.36446073190E+02  0.27128094698E+02  0.85113000618E+03  0.85388096107E+03  0.51246058259E+02 0.  0.
        -11    1    3    3    0    0 -0.39571357538E+02 -0.37759039199E+02 -0.43038814967E+03  0.43384973983E+03  0.00000000000E+00 0.  1.
         12    1    3    3    0    0 -0.32088351607E+02  0.23990906447E+02 -0.10897553272E+03  0.11610724626E+03  0.00000000000E+00 0. -1.
         13    1    5    5    0    0 -0.94596020269E+01 -0.64622652703E+01  0.12293332974E+03  0.12346598117E+03  0.00000000000E+00 0. -1.
        -14    1    5    5    0    0  0.45905675217E+02  0.33590359968E+02  0.72819667644E+03  0.73041497991E+03  0.00000000000E+00 0.  1.
          5    1    4    4  501    0  0.78657035854E+02  0.59549887841E+01  0.22554191426E+03  0.23897493314E+03  0.41800000000E+01 0.  1.
         -5    1    4    4    0  501 -0.43443399899E+02 -0.19314950730E+02  0.77376935248E+02  0.90912368932E+02  0.41800000000E+01 0.  1.
</event>
<event>
11    1  0.6930157E-009  0.1415343E+03  0.7561462E-02  0.1105857E+00
         22   -1    0    0    0    0  0.00000000000E+00  0.00000000000E+00  0.18079069528E+04  0.18079069528E+04  0.00000000000E+00 0. -1.
         22   -1    0    0    0    0 -0.00000000000E+00 -0.00000000000E+00 -0.12908011595E+03  0.12908011595E+03  0.00000000000E+00 0.  1.
        -24    2    1    2    0    0 -0.42268825581E+02 -0.49289144025E+02 -0.94491242887E+02  0.13962237573E+03  0.79685252634E+02 0.  0.
         25    2    1    2    0    0  0.98411229942E+02  0.57372265489E+02  0.72736870253E+03  0.74678643132E+03  0.12509355523E+03 0.  0.
         24    2    1    2    0    0 -0.56142404361E+02 -0.80831214648E+01  0.10459493772E+04  0.10505782617E+04  0.80543639363E+02 0.  0.
        -13    1    5    5    0    0  0.35124216579E+01  0.10414659955E+02  0.20776257848E+02  0.23504364234E+02  0.00000000000E+00 0.  1.
         14    1    5    5    0    0 -0.59654826019E+02 -0.18497781420E+02  0.10251731193E+04  0.10270738974E+04  0.00000000000E+00 0. -1.
         11    1    3    3    0    0  0.27856742655E+01 -0.10705700050E+02  0.12865948369E+02  0.16967752418E+02  0.00000000000E+00 0. -1.
        -12    1    3    3    0    0 -0.45054499846E+02 -0.38583443975E+02 -0.10735719126E+03  0.12265462331E+03  0.00000000000E+00 0.  1.
          5    1    4    4  501    0  0.97601336213E+02 -0.32973713171E+01  0.31099298411E+03  0.32599233434E+03  0.41800000000E+01 0. -1.
         -5    1    4    4    0  501  0.80989372947E+00  0.60669636807E+02  0.41637571842E+03  0.42079409697E+03  0.41800000000E+01 0. -1.
</event>
<event>
11    1  0.6930157E-009  0.2338126E+03  0.7561462E-02  0.1032894E+00
         22   -1    0    0    0    0  0.00000000000E+00  0.00000000000E+00  0.81309278815E+03  0.81309278815E+03  0.00000000000E+00 0. -1.
         22   -1    0    0    0    0 -0.00000000000E+00 -0.00000000000E+00 -0.22484198568E+03  0.22484198568E+03  0.00000000000E+00 0.  1.
        -24    2    1    2    0    0  0.16242689166E+02  0.28692696511E+02 -0.11018724469E+03  0.14176864390E+03  0.82885606214E+02 0.  0.
         25    2    1    2    0    0  0.27399723745E+02  0.16988772797E+03  0.59546425408E+02  0.22092262535E+03  0.12509374339E+03 0.  0.
         24    2    1    2    0    0 -0.43642412911E+02 -0.19858042449E+03  0.63889162175E+03  0.67524350457E+03  0.80202499521E+02 0.  0.
        -13    1    5    5    0    0  0.81827273450E+01 -0.88171806554E+02  0.18269296190E+03  0.20302202547E+03  0.00000000000E+00 0.  1.
         14    1    5    5    0    0 -0.51825140256E+02 -0.11040861793E+03  0.45619865985E+03  0.47222147911E+03  0.00000000000E+00 0. -1.
         13    1    3    3    0    0 -0.80701280972E+01  0.31288375780E+02 -0.37153524706E+01  0.32525271259E+02  0.00000000000E+00 0. -1.
        -14    1    3    3    0    0  0.24312817263E+02 -0.25956792689E+01 -0.10647189222E+03  0.10924337264E+03  0.00000000000E+00 0.  1.
          5    1    4    4  501    0 -0.36618170877E+02  0.50639399509E+02 -0.17627042350E+02  0.65064769599E+02  0.41800000000E+01 0.  1.
         -5    1    4    4    0  501  0.64017894622E+02  0.11924832847E+03  0.77173467758E+02  0.15585785575E+03  0.41800000000E+01 0.  1.
</event>
<event>
11    1  0.6930157E-009  0.1861512E+03  0.7561462E-02  0.1064773E+00
         22   -1    0    0    0    0  0.00000000000E+00  0.00000000000E+00  0.26415535043E+04  0.26415535043E+04  0.00000000000E+00 0.  1.
         22   -1    0    0    0    0 -0.00000000000E+00 -0.00000000000E+00 -0.81429143560E+03  0.81429143560E+03  0.00000000000E+00 0.  1.
        -24    2    1    2    0    0 -0.12989500856E+03 -0.46045209746E+02 -0.79813835952E+03  0.81388026696E+03  0.79896016357E+02 0.  0.
         25    2    1    2    0    0  0.12623806729E+03  0.79177966081E+02  0.14244224313E+04  0.14376481931E+04  0.12509142445E+03 0.  0.
         24    2    1    2    0    0  0.36569412734E+01 -0.33132756335E+02  0.12009779969E+04  0.12043164798E+04  0.83179815461E+02 0.  0.
        -13    1    5    5    0    0 -0.20591338701E+02 -0.30229029161E+02  0.10929746187E+04  0.10935864459E+04  0.00000000000E+00 0.  1.
         14    1    5    5    0    0  0.24248279974E+02 -0.29037271736E+01  0.10800337817E+03  0.11073003391E+03  0.00000000000E+00 0. -1.
         11    1    3    3    0    0 -0.13889041872E+02 -0.28928067400E+02 -0.79404359401E+02  0.85643393554E+02  0.00000000000E+00 0. -1.
        -12    1    3    3    0    0 -0.11600596669E+03 -0.17117142347E+02 -0.71873400012E+03  0.72823687341E+03  0.00000000000E+00 0.  1.
          5    1    4    4  501    0  0.22531762342E+02 -0.24479175543E+02  0.54884098351E+03  0.54986435412E+03  0.41800000000E+01 0.  1.
         -5    1    4    4    0  501  0.10370630494E+03  0.10365714162E+03  0.87558144777E+03  0.88778383899E+03  0.41800000000E+01 0.  1.
</event>
<event>
11    1  0.6930157E-009  0.1433323E+03  0.7561462E-02  0.1103893E+00
         22   -1    0    0    0    0  0.00000000000E+00  0.00000000000E+00  0.18638209013E+04  0.18638209013E+04  0.00000000000E+00 0. -1.
         22   -1    0    0    0    0 -0.00000000000E+00 -0.00000000000E+00 -0.16118590959E+03  0.16118590959E+03  0.00000000000E+00 0. -1.
        -24    2    1    2    0    0  0.18652194656E+02  0.34115551377E+02 -0.13096761320E+03  0.15697607745E+03  0.77312340373E+02 0.  0.
         25    2    1    2    0    0 -0.23599216395E+02  0.39264031400E+02  0.27434494069E+03  0.30497863491E+03  0.12509290186E+03 0.  0.
         24    2    1    2    0    0  0.49470217384E+01 -0.73379582777E+02  0.15592576642E+04  0.15630520985E+04  0.80239410940E+02 0.  0.
        -13    1    5    5    0    0  0.27724907698E+02 -0.53387380056E+02  0.53939340745E+03  0.54273762617E+03  0.00000000000E+00 0.  1.
         14    1    5    5    0    0 -0.22777885960E+02 -0.19992202721E+02  0.10198642568E+04  0.10203144724E+04  0.00000000000E+00 0. -1.
         11    1    3    3    0    0 -0.22650079909E+02  0.70945418255E+01 -0.89247078270E+02  0.92349334720E+02  0.00000000000E+00 0. -1.
        -12    1    3    3    0    0  0.41302274565E+02  0.27021009552E+02 -0.41720534932E+02  0.64626742734E+02  0.00000000000E+00 0.  1.
          5    1    4    4  501    0 -0.62013480042E+02 -0.99491936554E+01  0.18863179887E+03  0.19885694885E+03  0.41800000000E+01 0.  1.
         -5    1    4    4    0  501  0.38414263647E+02  0.49213225055E+02  0.85713141814E+02  0.10612168606E+03  0.41800000000E+01 0.  1.
</event>
<event>
11    1  0.6930157E-009  0.2692218E+03  0.7561462E-02  0.1014130E+00
         22   -1    0    0    0    0  0.00000000000E+00  0.00000000000E+00  0.94871183516E+03  0.94871183516E+03  0.00000000000E+00 0. -1.
         22   -1    0    0    0    0 -0.00000000000E+00 -0.00000000000E+00 -0.75158272187E+03  0.75158272187E+03  0.00000000000E+00 0. -1.
        -24    2    1    2    0    0 -0.16503790489E+02  0.93290424521E+02 -0.55721075049E+03  0.57189309752E+03  0.87191835165E+02 0.  0.
         25    2    1    2    0    0  0.12086130563E+03  0.12978907266E+03 -0.97684159526E+02  0.23799776588E+03  0.12509229777E+03 0.  0.
         24    2    1    2    0    0 -0.10435751514E+03 -0.22307949718E+03  0.85202402331E+03  0.89040369363E+03  0.78859674792E+02 0.  0.
        -11    1    5    5    0    0 -0.18313247014E+02 -0.60689254721E+02  0.12060935487E+03  0.13625409035E+03  0.00000000000E+00 0.  1.
         12    1    5    5    0    0 -0.86044268128E+02 -0.16239024246E+03  0.73141466843E+03  0.75414960328E+03  0.00000000000E+00 0. -1.
         11    1    3    3    0    0 -0.35145880511E+02  0.74058104935E+02 -0.51775906080E+03  0.52420824189E+03  0.00000000000E+00 0. -1.
        -12    1    3    3    0    0  0.18642090022E+02  0.19232319586E+02 -0.39451689693E+02  0.47684855632E+02  0.00000000000E+00 0.  1.
          5    1    4    4  501    0  0.19725140201E+02  0.15299937485E+02 -0.80297852441E+02  0.84192557567E+02  0.41800000000E+01 0. -1.
         -5    1    4    4    0  501  0.10113616543E+03  0.11448913518E+03 -0.17386307084E+02  0.15380520832E+03  0.41800000000E+01 0. -1.
</event>
<event>
11    1  0.6930157E-009  0.1830118E+03  0.7561462E-02  0.1067232E+00
         22   -1    0    0    0    0  0.00000000000E+00  0.00000000000E+00  0.31318058325E+04  0.31318058325E+04  0.00000000000E+00 0. -1.
         22   -1    0    0    0    0 -0.00000000000E+00 -0.00000000000E+00 -0.65354335276E+03  0.65354335276E+03  0.00000000000E+00 0. -1.
        -24    2    1    2    0    0  0.62644574968E+02 -0.51185099602E+02 -0.63107024440E+03  0.64130356326E+03  0.80475770803E+02 0.  0.
         25    2    1    2    0    0 -0.17159050516E+02 -0.84186577379E+02  0.36921343215E+03  0.39918478937E+03  0.12509246483E+03 0.  0.
         24    2    1    2    0    0 -0.45485524452E+02  0.13537167698E+03  0.27401192920E+04  0.27448608326E+04  0.74918838707E+02 0.  0.
        -11    1    5    5    0    0 -0.50480756308E+02  0.43750574560E+02  0.14090943883E+04  0.14106769349E+04  0.00000000000E+00 0.  1.
         12    1    5    5    0    0  0.49952318557E+01  0.91621102420E+02  0.13310249037E+04  0.13341838977E+04  0.00000000000E+00 0. -1.
         13    1    3    3    0    0  0.49272593960E+02 -0.23884742734E+00 -0.45112514149E+03  0.45380804185E+03  0.00000000000E+00 0. -1.
        -14    1    3    3    0    0  0.13371981008E+02 -0.50946252174E+02 -0.17994510291E+03  0.18749552141E+03  0.00000000000E+00 0.  1.
          5    1    4    4  501    0  0.32859541453E+02  0.17761253564E+02  0.10693358007E+03  0.11334670061E+03  0.41800000000E+01 0.  1.
         -5    1    4    4    0  501 -0.50018591969E+02 -0.10194783094E+03  0.26227985208E+03  0.28583808876E+03  0.41800000000E+01 0.  1.
</event>
<event>
11    1  0.6930157E-009  0.1378932E+03  0.7561462E-02  0.1109934E+00
         22   -1    0    0    0    0  0.00000000000E+00  0.00000000000E+00  0.16141777978E+04  0.16141777978E+04  0.00000000000E+00 0. -1.
         22   -1    0    0    0    0 -0.00000000000E+00 -0.00000000000E+00 -0.81021714270E+02  0.81021714270E+02  0.00000000000E+00 0.  1.
        -24    2    1    2    0    0 -0.73499890094E+01 -0.29562339439E+02  0.30773769594E+00  0.88756062992E+02  0.83364199533E+02 0.  0.
         25    2    1    2    0    0  0.60350626951E+02  0.53386020529E+01  0.10271543056E+03  0.17282557765E+03  0.12509005464E+03 0.  0.
         24    2    1    2    0    0 -0.53000637942E+02  0.24223737386E+02  0.14301329153E+04  0.14336178714E+04  0.81143014804E+02 0.  0.
        -13    1    5    5    0    0 -0.19099150926E+02 -0.16122632726E+02  0.12791316090E+03  0.13033224307E+03  0.00000000000E+00 0.  1.
         14    1    5    5    0    0 -0.33901487016E+02  0.40346370112E+02  0.13022197544E+04  0.13032856284E+04  0.00000000000E+00 0. -1.
         13    1    3    3    0    0  0.28916336837E+02 -0.40356995139E+02  0.75868679155E+01  0.50223521954E+02  0.00000000000E+00 0. -1.
        -14    1    3    3    0    0 -0.36266325846E+02  0.10794655700E+02 -0.72791302195E+01  0.38532541038E+02  0.00000000000E+00 0.  1.
          5    1    4    4  501    0  0.22236235447E+02 -0.85432580965E+01 -0.27354766776E+02  0.36512916771E+02  0.41800000000E+01 0.  1.
         -5    1    4    4    0  501  0.38114391504E+02  0.13881860149E+02  0.13007019734E+03  0.13631266088E+03  0.41800000000E+01 0.  1.
</event>
<event>
11    1  0.6930157E-009  0.1352987E+03  0.7561462E-02  0.1112925E+00
         22   -1    0    0    0    0  0.00000000000E+00  0.00000000000E+00  0.75756913733E+03  0.75756913733E+03  0.00000000000E+00 0.  1.
         22   -1    0    0    0    0 -0.00000000000E+00 -0.00000000000E+00 -0.12112819148E+04  0.12112819148E+04  0.00000000000E+00 0.  1.
         24    2    1    2    0    0  0.92942476608E+01 -0.18349896273E+02 -0.11463107705E+04  0.11492870381E+04  0.80057553122E+02 0.  0.
         25    2    1    2    0    0 -0.36236567941E+02 -0.26264638470E+02  0.13302489496E+02  0.13352328531E+03  0.12509433002E+03 0.  0.
        -24    2    1    2    0    0  0.26942320281E+02  0.44614534743E+02  0.67929550350E+03  0.68604072868E+03  0.80580115376E+02 0.  0.
        -13    1    3    3    0    0 -0.15823855575E+02 -0.37945202944E+02 -0.89805544967E+03  0.89899600862E+03  0.00000000000E+00 0.  1.
         14    1    3    3    0    0  0.25118103236E+02  0.19595306671E+02 -0.24825532079E+03  0.25029102951E+03  0.00000000000E+00 0. -1.
         11    1    5    5    0    0 -0.15961017421E+02  0.27186860608E+02  0.98953376483E+02  0.10385398492E+03  0.00000000000E+00 0. -1.
        -12    1    5    5    0    0  0.42903337701E+02  0.17427674135E+02  0.58034212702E+03  0.58218674376E+03  0.00000000000E+00 0.  1.
          5    1    4    4  501    0  0.52253210872E+01 -0.85344089173E+01 -0.52519076879E+02  0.53627100912E+02  0.41800000000E+01 0.  1.
         -5    1    4    4    0  501 -0.41461889029E+02 -0.17730229553E+02  0.65821566375E+02  0.79896184401E+02  0.41800000000E+01 0.  1.
</event>
<event>
11    1  0.6930157E-009  0.2115898E+03  0.7561462E-02  0.1046618E+00
         22   -1    0    0    0    0  0.00000000000E+00  0.00000000000E+00  0.89426674420E+03  0.89426674420E+03  0.00000000000E+00 0.  1.
         22   -1    0    0    0    0 -0.00000000000E+00 -0.00000000000E+00 -0.16001680200E+03  0.16001680200E+03  0.00000000000E+00 0.  1.
         24    2    1    2    0    0 -0.18067462723E+03  0.64976287770E+01 -0.42700262193E+02  0.20082745911E+03  0.76307377335E+02 0.  0.
         25    2    1    2    0    0  0.13375255000E+03  0.57354025265E+02  0.25312364163E+03  0.31764492157E+03  0.12508992525E+03 0.  0.
        -24    2    1    2    0    0  0.46922077233E+02 -0.63851654042E+02  0.52382656276E+03  0.53581116552E+03  0.80128785015E+02 0.  0.
        -13    1    3    3    0    0 -0.12359663900E+03 -0.31565369279E+02 -0.25270622921E+02  0.13004270873E+03  0.00000000000E+00 0.  1.
         14    1    3    3    0    0 -0.57077988227E+02  0.38062998056E+02 -0.17429639271E+02  0.70784750379E+02  0.00000000000E+00 0. -1.
         13    1    5    5    0    0  0.43932084446E+02 -0.34913156828E+02  0.13919115087E+03  0.15007709033E+03  0.00000000000E+00 0. -1.
        -14    1    5    5    0    0  0.29899927870E+01 -0.28938497214E+02  0.38463541190E+03  0.38573407519E+03  0.00000000000E+00 0.  1.
          5    1    4    4  501    0  0.91105221549E+02  0.68767963445E+02  0.81326189651E+02  0.14021631757E+03  0.41800000000E+01 0. -1.
         -5    1    4    4    0  501  0.42647328449E+02 -0.11413938180E+02  0.17179745198E+03  0.17742860400E+03  0.41800000000E+01 0. -1.
</event>
<event>
11    1  0.6930157E-009  0.1433144E+03  0.7561462E-02  0.1103913E+00
         22   -1    0    0    0    0  0.00000000000E+00  0.00000000000E+00  0.19822134980E+04  0.19822134980E+04  0.00000000000E+00 0.  1.
         22   -1    0    0    0    0 -0.00000000000E+00 -0.00000000000E+00 -0.23903667901E+03  0.23903667901E+03  0.00000000000E+00 0.  1.
        -24    2    1    2    0    0  0.10690293230E+01  0.34043001167E+02 -0.20331568725E+03  0.22295418430E+03  0.84918966452E+02 0.  0.
         25    2    1    2    0    0  0.68874233509E+02 -0.34817608706E+02  0.19820357840E+03  0.24675582283E+03  0.12509137338E+03 0.  0.
         24    2    1    2    0    0 -0.69943262832E+02  0.77460753881E+00  0.17482889279E+04  0.17515401699E+04  0.80536522475E+02 0.  0.
        -11    1    5    5    0    0 -0.21713881834E+02 -0.74938014028E+01  0.13581861724E+04  0.13583804064E+04  0.00000000000E+00 0.  1.
         12    1    5    5    0    0 -0.48229380998E+02  0.82684089416E+01  0.39010275550E+03  0.39315976349E+03  0.00000000000E+00 0. -1.
         11    1    3    3    0    0 -0.32843663343E+02  0.81055105524E+01 -0.32599233594E+02  0.46979948426E+02  0.00000000000E+00 0. -1.
        -12    1    3    3    0    0  0.33912692666E+02  0.25937490614E+02 -0.17071645365E+03  0.17597423587E+03  0.00000000000E+00 0.  1.
          5    1    4    4  501    0  0.76453026377E+02 -0.61528234195E+02  0.19519621987E+03  0.21851733455E+03  0.41800000000E+01 0.  1.
         -5    1    4    4    0  501 -0.75787928678E+01  0.26710625490E+02  0.30073585253E+01  0.28238488286E+02  0.41800000000E+01 0.  1.
</event>
<event>
11    1  0.6930157E-009  0.1663314E+03  0.7561462E-02  0.1081269E+00
         22   -1    0    0    0    0  0.00000000000E+00  0.00000000000E+00  0.13783625130E+04  0.13783625130E+04  0.00000000000E+00 0.  1.
         22   -1    0    0    0    0 -0.00000000000E+00 -0.00000000000E+00 -0.17204147328E+03  0.17204147328E+03  0.00000000000E+00 0. -1.
        -24    2    1    2    0    0 -0.27044235782E+02 -0.44125542313E+01 -0.14301906869E+03  0.16660260877E+03  0.80938951779E+02 0.  0.
         25    2    1    2    0    0 -0.56879366123E+02  0.86465496345E+02  0.77617471572E+03  0.79297361391E+03  0.12509363967E+03 0.  0.
         24    2    1    2    0    0  0.83923601906E+02 -0.82052942114E+02  0.57316539269E+03  0.59082776360E+03  0.82359107524E+02 0.  0.
        -13    1    5    5    0    0  0.66150465881E+02 -0.76405090333E+02  0.55716196064E+03  0.56625354070E+03  0.00000000000E+00 0.  1.
         14    1    5    5    0    0  0.17773136024E+02 -0.56478517804E+01  0.16003432053E+02  0.24574222904E+02  0.00000000000E+00 0. -1.
         11    1    3    3    0    0 -0.53558319217E+02 -0.13997620171E+02 -0.11030193828E+03  0.12341371283E+03  0.00000000000E+00 0. -1.
        -12    1    3    3    0    0  0.26514083434E+02  0.95850659393E+01 -0.32717130411E+02  0.43188895931E+02  0.00000000000E+00 0.  1.
          5    1    4    4  501    0 -0.83398581181E+02  0.27584524349E+02  0.30666686927E+03  0.31902706849E+03  0.41800000000E+01 0.  1.
         -5    1    4    4    0  501  0.26519215058E+02  0.58880971995E+02  0.46950784645E+03  0.47394654542E+03  0.41800000000E+01 0.  1.
</event>
<event>
11    1  0.6930157E-009  0.1710934E+03  0.7561462E-02  0.1077084E+00
         22   -1    0    0    0    0  0.00000000000E+00  0.00000000000E+00  0.23419132639E+04  0.23419132639E+04  0.00000000000E+00 0.  1.
         22   -1    0    0    0    0 -0.00000000000E+00 -0.00000000000E+00 -0.43819034522E+03  0.43819034522E+03  0.00000000000E+00 0.  1.
         24    2    1    2    0    0  0.61279915881E+02 -0.10228114483E+03 -0.37688664381E+03  0.40212325794E+03  0.73776091108E+02 0.  0.
         25    2    1    2    0    0  0.15294486446E+02  0.10928290783E+03  0.99857876826E+02  0.19441144433E+03  0.12509012297E+03 0.  0.
        -24    2    1    2    0    0 -0.76574402327E+02 -0.70017630027E+01  0.21807516856E+04  0.21835689068E+04  0.79891129845E+02 0.  0.
        -11    1    3    3    0    0  0.10327298898E+02 -0.85660924414E+02 -0.24580775052E+03  0.26051083910E+03  0.00000000000E+00 0.  1.
         12    1    3    3    0    0  0.50952616983E+02 -0.16620220415E+02 -0.13107889328E+03  0.14161241884E+03  0.00000000000E+00 0. -1.
         11    1    5    5    0    0 -0.13542733919E+01  0.88663270304E+01  0.27101560605E+02  0.28547160956E+02  0.00000000000E+00 0. -1.
        -12    1    5    5    0    0 -0.75220128935E+02 -0.15868090033E+02  0.21536501250E+04  0.21550217458E+04  0.00000000000E+00 0.  1.
          5    1    4    4  501    0 -0.40812535706E+02  0.79311532582E+02  0.18735068488E+02  0.91238464819E+02  0.41800000000E+01 0. -1.
         -5    1    4    4    0  501  0.56107022153E+02  0.29971375249E+02  0.81122808338E+02  0.10317297951E+03  0.41800000000E+01 0. -1.
</event>
<event>
11    1  0.6930157E-009  0.1429644E+03  0.7561462E-02  0.1104293E+00
         22   -1    0    0    0    0  0.00000000000E+00  0.00000000000E+00  0.57231751776E+03  0.57231751776E+03  0.00000000000E+00 0. -1.
         22   -1    0    0    0    0 -0.00000000000E+00 -0.00000000000E+00 -0.92197552784E+03  0.92197552784E+03  0.00000000000E+00 0. -1.
         24    2    1    2    0    0  0.71538879949E+01 -0.15256746607E+02 -0.88182488647E+03  0.88487233621E+03  0.71414106167E+02 0.  0.
         25    2    1    2    0    0  0.63356913790E+02  0.13154647643E+02  0.12509779469E+03  0.18837220244E+03  0.12508990822E+03 0.  0.
        -24    2    1    2    0    0 -0.70510801785E+02  0.21020989637E+01  0.40706908170E+03  0.42104850695E+03  0.81242943962E+02 0.  0.
        -11    1    3    3    0    0  0.27358660051E+02 -0.19827229982E+02 -0.20778339018E+03  0.21051259478E+03  0.00000000000E+00 0.  1.
         12    1    3    3    0    0 -0.20204772056E+02  0.45704833758E+01 -0.67404149629E+03  0.67435974142E+03  0.00000000000E+00 0. -1.
         11    1    5    5    0    0 -0.57965764384E+02 -0.33397832034E+02  0.30514990434E+03  0.31239703766E+03  0.00000000000E+00 0. -1.
        -12    1    5    5    0    0 -0.12545037401E+02  0.35499930997E+02  0.10191917736E+03  0.10865146929E+03  0.00000000000E+00 0.  1.
          5    1    4    4  501    0  0.23760511795E+01 -0.44829303895E+02  0.82378247789E+02  0.93909319110E+02  0.41800000000E+01 0.  1.
         -5    1    4    4    0  501  0.60980862610E+02  0.57983951538E+02  0.42719546897E+02  0.94462883334E+02  0.41800000000E+01 0.  1.
</event>
<event>
11    1  0.6930157E-009  0.3076450E+03  0.7561462E-02  0.9970066E-01
         22   -1    0    0    0    0  0.00000000000E+00  0.00000000000E+00  0.10165150210E+04  0.10165150210E+04  0.00000000000E+00 0.  1.
         22   -1    0    0    0    0 -0.00000000000E+00 -0.00000000000E+00 -0.15099308226E+04  0.15099308226E+04  0.00000000000E+00 0. -1.
        -24    2    1    2    0    0 -0.29819476679E+02  0.84071601503E+02 -0.12390048943E+04  0.12448202308E+04  0.80542184848E+02 0.  0.
         25    2    1    2    0    0 -0.24299154679E+03  0.69466340966E+00 -0.16814883674E+03  0.32088749547E+03  0.12509747832E+03 0.  0.
         24    2    1    2    0    0  0.27281102347E+03 -0.84766264912E+02  0.91373792947E+03  0.96073811734E+03  0.80557756712E+02 0.  0.
        -13    1    5    5    0    0  0.25940752855E+03 -0.92111116463E+02  0.80128030105E+03  0.84724662554E+03  0.00000000000E+00 0.  1.
         14    1    5    5    0    0  0.13403494915E+02  0.73448515502E+01  0.11245762842E+03  0.11349149180E+03  0.00000000000E+00 0. -1.
         13    1    3    3    0    0 -0.54455561792E+01  0.43658094606E+02 -0.10122693341E+04  0.10132249938E+04  0.00000000000E+00 0. -1.
        -14    1    3    3    0    0 -0.24373920499E+02  0.40413506897E+02 -0.22673556015E+03  0.23159523695E+03  0.00000000000E+00 0.  1.
          5    1    4    4  501    0 -0.16118903375E+03 -0.41299200724E+02 -0.55593254544E+02  0.17548678279E+03  0.41800000000E+01 0. -1.
         -5    1    4    4    0  501 -0.81802513038E+02  0.41993864134E+02 -0.11255558220E+03  0.14540071268E+03  0.41800000000E+01 0. -1.
</event>
<event>
11    1  0.6930157E-009  0.1517607E+03  0.7561462E-02  0.1095093E+00
         22   -1    0    0    0    0  0.00000000000E+00  0.00000000000E+00  0.45777029481E+03  0.45777029481E+03  0.00000000000E+00 0. -1.
         22   -1    0    0    0    0 -0.00000000000E+00 -0.00000000000E+00 -0.59663523091E+03  0.59663523091E+03  0.00000000000E+00 0.  1.
        -24    2    1    2    0    0  0.11839098068E+02  0.74082152376E+02 -0.52485090976E+03  0.53626812963E+03  0.80540051158E+02 0.  0.
         25    2    1    2    0    0 -0.56496765304E+02  0.10374571394E+02  0.30908375933E+02  0.14109423931E+03  0.12511091257E+03 0.  0.
         24    2    1    2    0    0  0.44657667236E+02 -0.84456723770E+02  0.35507759773E+03  0.37704315677E+03  0.83391823495E+02 0.  0.
        -11    1    5    5    0    0  0.15607214475E+02  0.12136005023E+02  0.11420998130E+03  0.11590853113E+03  0.00000000000E+00 0.  1.
         12    1    5    5    0    0  0.29050452761E+02 -0.96592728793E+02  0.24086761643E+03  0.26113462564E+03  0.00000000000E+00 0. -1.
         11    1    3    3    0    0 -0.18766661664E+01 -0.53316175178E+01 -0.40536624504E+00  0.56667753661E+01  0.00000000000E+00 0. -1.
        -12    1    3    3    0    0  0.13715764235E+02  0.79413769894E+02 -0.52444554351E+03  0.53060135427E+03  0.00000000000E+00 0.  1.
          5    1    4    4  501    0 -0.10862766145E+02 -0.41671704846E+02 -0.26785738762E+02  0.50886922427E+02  0.41800000000E+01 0. -1.
         -5    1    4    4    0  501 -0.45633999158E+02  0.52046276240E+02  0.57694114695E+02  0.90207316887E+02  0.41800000000E+01 0. -1.
</event>
<event>
11    1  0.6930157E-009  0.1707719E+03  0.7561462E-02  0.1077362E+00
         22   -1    0    0    0    0  0.00000000000E+00  0.00000000000E+00  0.10006342199E+04  0.10006342199E+04  0.00000000000E+00 0. -1.
         22   -1    0    0    0    0 -0.00000000000E+00 -0.00000000000E+00 -0.21747124528E+03  0.21747124528E+03  0.00000000000E+00 0. -1.
         24    2    1    2    0    0  0.72770736800E+02  0.78886681605E+02 -0.11990950179E+03  0.17870299059E+03  0.77703163114E+02 0.  0.
         25    2    1    2    0    0 -0.17576542682E+03 -0.78797271216E+02  0.14740080413E+03  0.27290346005E+03  0.12508719451E+03 0.  0.
        -24    2    1    2    0    0  0.10299469002E+03 -0.89410388853E-01  0.75567167228E+03  0.76649901455E+03  0.76636472080E+02 0.  0.
        -11    1    3    3    0    0  0.31038920187E+02 -0.97056865922E+01 -0.17198726281E+02  0.36788736106E+02  0.00000000000E+00 0.  1.
         12    1    3    3    0    0  0.41731816613E+02  0.88592368197E+02 -0.10271077550E+03  0.14191425448E+03  0.00000000000E+00 0. -1.
         11    1    5    5    0    0  0.32164078911E+02  0.13941146053E+02  0.48805144450E+03  0.48930879412E+03  0.00000000000E+00 0. -1.
        -12    1    5    5    0    0  0.70830611112E+02 -0.14030556442E+02  0.26762022778E+03  0.27719022042E+03  0.00000000000E+00 0.  1.
          5    1    4    4  501    0 -0.16387746937E+03 -0.83024652489E+02  0.73653175926E+02  0.19796762516E+03  0.41800000000E+01 0. -1.
         -5    1    4    4    0  501 -0.11887957454E+02  0.42273812730E+01  0.73747628203E+02  0.74935834888E+02  0.41800000000E+01 0. -1.
</event>
<event>
11    1  0.6930157E-009  0.1806647E+03  0.7561462E-02  0.1069106E+00
         22   -1    0    0    0    0  0.00000000000E+00  0.00000000000E+00  0.78660321458E+03  0.78660321458E+03  0.00000000000E+00 0.  1.
         22   -1    0    0    0    0 -0.00000000000E+00 -0.00000000000E+00 -0.54573189520E+03  0.54573189520E+03  0.00000000000E+00 0. -1.
         24    2    1    2    0    0  0.57615904633E+02 -0.43064189281E+02 -0.46807455005E+03  0.48040441670E+03  0.80749627369E+02 0.  0.
         25    2    1    2    0    0 -0.18042470174E+03  0.33566553156E+02  0.13597625347E+03  0.26042552927E+03  0.12510846614E+03 0.  0.
        -24    2    1    2    0    0  0.12280879711E+03  0.94976361249E+01  0.57296961596E+03  0.59150516380E+03  0.80074791614E+02 0.  0.
        -11    1    3    3    0    0 -0.10161780016E+02 -0.11642931654E+01 -0.67639769581E+01  0.12262493057E+02  0.00000000000E+00 0.  1.
         12    1    3    3    0    0  0.67777684650E+02 -0.41899896116E+02 -0.46131057309E+03  0.46814192365E+03  0.00000000000E+00 0. -1.
         13    1    5    5    0    0 -0.52643682833E+01 -0.15549161353E+02  0.63859308067E+02  0.65935583860E+02  0.00000000000E+00 0. -1.
        -14    1    5    5    0    0  0.12807316539E+03  0.25046797478E+02  0.50911030790E+03  0.52556957994E+03  0.00000000000E+00 0.  1.
          5    1    4    4  501    0 -0.19890497837E+03  0.38245306607E+02  0.12406110656E+03  0.23755951772E+03  0.41800000000E+01 0.  1.
         -5    1    4    4    0  501  0.18480276633E+02 -0.46787534506E+01  0.11915146911E+02  0.22866011550E+02  0.41800000000E+01 0.  1.
</event>
<event>
11    1  0.6930157E-009  0.1332329E+03  0.7561462E-02  0.1115359E+00
         22   -1    0    0    0    0  0.00000000000E+00  0.00000000000E+00  0.10251236845E+03  0.10251236845E+03  0.00000000000E+00 0.  1.
         22   -1    0    0    0    0 -0.00000000000E+00 -0.00000000000E+00 -0.21284627631E+04  0.21284627631E+04  0.00000000000E+00 0.  1.
         24    2    1    2    0    0 -0.14267710629E+02  0.45786901479E+02 -0.17797866942E+04  0.17822210355E+04  0.79819387252E+02 0.  0.
         25    2    1    2    0    0  0.36548903067E+01 -0.24534715010E+02 -0.31470734818E+03  0.33956316344E+03  0.12508843473E+03 0.  0.
        -24    2    1    2    0    0  0.10612820322E+02 -0.21252186469E+02  0.68543647755E+02  0.10919093259E+03  0.81609685255E+02 0.  0.
        -13    1    3    3    0    0  0.21893566480E+02  0.42347195322E+02 -0.13695068917E+04  0.13703363601E+04  0.00000000000E+00 0.  1.
         14    1    3    3    0    0 -0.36161277108E+02  0.34397061566E+01 -0.41027980249E+03  0.41188467545E+03  0.00000000000E+00 0. -1.
         11    1    5    5    0    0 -0.80196328518E+01 -0.19060201011E+02 -0.13719275915E+02  0.24815807569E+02  0.00000000000E+00 0. -1.
        -12    1    5    5    0    0  0.18632453174E+02 -0.21919854576E+01  0.82262923670E+02  0.84375125021E+02  0.00000000000E+00 0.  1.
          5    1    4    4  501    0  0.27788756488E+02  0.36048969723E+02 -0.53791742133E+02  0.70588718128E+02  0.41800000000E+01 0.  1.
         -5    1    4    4    0  501 -0.24133866182E+02 -0.60583684733E+02 -0.26091560605E+03  0.26897444531E+03  0.41800000000E+01 0.  1.
</event>
<event>
11    1  0.6930157E-009  0.1387070E+03  0.7561462E-02  0.1109011E+00
         22   -1    0    0    0    0  0.00000000000E+00  0.00000000000E+00  0.13527841918E+04  0.13527841918E+04  0.00000000000E+00 0.  1.
         22   -1    0    0    0    0 -0.00000000000E+00 -0.00000000000E+00 -0.55959665608E+02  0.55959665608E+02  0.00000000000E+00 0. -1.
        -24    2    1    2    0    0  0.59601883315E+02  0.10314014901E+02  0.38409628140E+02  0.10776223693E+03  0.80489979347E+02 0.  0.
         25    2    1    2    0    0 -0.13636170581E+02 -0.54831047486E+02  0.23300420619E+03  0.27041958694E+03  0.12507359427E+03 0.  0.
         24    2    1    2    0    0 -0.45965712734E+02  0.44517032586E+02  0.10254106919E+04  0.10305620336E+04  0.80600279449E+02 0.  0.
        -13    1    5    5    0    0  0.10566975222E+02  0.36074031553E+02  0.62039796998E+03  0.62153570926E+03  0.00000000000E+00 0.  1.
         14    1    5    5    0    0 -0.56532687956E+02  0.84430010323E+01  0.40501272189E+03  0.40902632430E+03  0.00000000000E+00 0. -1.
         11    1    3    3    0    0  0.57365193953E+02 -0.74119532936E+01 -0.76622587100E+01  0.58347345590E+02  0.00000000000E+00 0. -1.
        -12    1    3    3    0    0  0.22366893615E+01  0.17725968194E+02  0.46071886850E+02  0.49414891335E+02  0.00000000000E+00 0.  1.
          5    1    4    4  501    0  0.23214687878E+02 -0.80949029680E+02  0.10529153566E+03  0.13489050011E+03  0.41800000000E+01 0. -1.
         -5    1    4    4    0  501 -0.36850858459E+02  0.26117982193E+02  0.12771267053E+03  0.13552908683E+03  0.41800000000E+01 0. -1.
</event>
<event>
11    1  0.6930157E-009  0.1511150E+03  0.7561462E-02  0.1095745E+00
         22   -1    0    0    0    0  0.00000000000E+00  0.00000000000E+00  0.46404670484E+03  0.46404670484E+03  0.00000000000E+00 0.  1.
         22   -1    0    0    0    0 -0.00000000000E+00 -0.00000000000E+00 -0.58120412996E+03  0.58120412996E+03  0.00000000000E+00 0.  1.
        -24    2    1    2    0    0 -0.70147559174E+02 -0.40550692885E+02 -0.44572970810E+03  0.45998976773E+03  0.79690494879E+02 0.  0.
         25    2    1    2    0    0  0.74083887750E+02  0.10946179259E+03 -0.52955580433E+02  0.18953141261E+03  0.12509019309E+03 0.  0.
         24    2    1    2    0    0 -0.39363285758E+01 -0.68911099706E+02  0.38152786341E+03  0.39572965446E+03  0.79209939495E+02 0.  0.
        -13    1    5    5    0    0  0.16013665661E+02 -0.62928360572E+02  0.35987274834E+03  0.36568403171E+03  0.00000000000E+00 0.  1.
         14    1    5    5    0    0 -0.19949994237E+02 -0.59827391346E+01  0.21655115077E+02  0.30045622753E+02  0.00000000000E+00 0. -1.
         13    1    3    3    0    0 -0.22428778934E+02  0.24117111112E+02 -0.11387003471E+03  0.11853720925E+03  0.00000000000E+00 0. -1.
        -14    1    3    3    0    0 -0.47718780240E+02 -0.64667803998E+02 -0.33185967340E+03  0.34145255847E+03  0.00000000000E+00 0.  1.
          5    1    4    4  501    0  0.25587645472E+02  0.30883217958E+02  0.41156823742E+02  0.57618202790E+02  0.41800000000E+01 0.  1.
         -5    1    4    4    0  501  0.48496242278E+02  0.78578574634E+02 -0.94112404175E+02  0.13191320982E+03  0.41800000000E+01 0.  1.
</event>
<event>
11    1  0.6930157E-009  0.1400475E+03  0.7561462E-02  0.1107505E+00
         22   -1    0    0    0    0  0.00000000000E+00  0.00000000000E+00  0.57304113389E+03  0.57304113389E+03  0.00000000000E+00 0. -1.
         22   -1    0    0    0    0 -0.00000000000E+00 -0.00000000000E+00 -0.71092171746E+03  0.71092171746E+03  0.00000000000E+00 0. -1.
        -24    2    1    2    0    0  0.15311299634E+02  0.21476470112E+02 -0.67869191046E+03  0.68421495331E+03  0.82654209500E+02 0.  0.
         25    2    1    2    0    0  0.44447032927E+02 -0.45109806309E+02  0.20253738092E+03  0.24633103697E+03  0.12508859159E+03 0.  0.
         24    2    1    2    0    0 -0.59758332561E+02  0.23633336197E+02  0.33827394596E+03  0.35341686106E+03  0.79653137261E+02 0.  0.
        -13    1    5    5    0    0 -0.74586652575E+02  0.31216392906E+02  0.22843626402E+03  0.24232366506E+03  0.00000000000E+00 0.  1.
         14    1    5    5    0    0  0.14828320014E+02 -0.75830567092E+01  0.10983768195E+03  0.11109319601E+03  0.00000000000E+00 0. -1.
         11    1    3    3    0    0  0.90303128096E+01  0.33185693211E+02 -0.66194116340E+03  0.66283402190E+03  0.00000000000E+00 0. -1.
        -12    1    3    3    0    0  0.62809868243E+01 -0.11709223099E+02 -0.16750747062E+02  0.21380931416E+02  0.00000000000E+00 0.  1.
          5    1    4    4  501    0 -0.23557722557E+02  0.28057943424E+01  0.14029874124E+03  0.14235184567E+03  0.41800000000E+01 0.  1.
         -5    1    4    4    0  501  0.68004755484E+02 -0.47915600651E+02  0.62238639681E+02  0.10397919130E+03  0.41800000000E+01 0.  1.
</event>
<event>
11    1  0.6930157E-009  0.1399832E+03  0.7561462E-02  0.1107577E+00
         22   -1    0    0    0    0  0.00000000000E+00  0.00000000000E+00  0.60423866960E+03  0.60423866960E+03  0.00000000000E+00 0. -1.
         22   -1    0    0    0    0 -0.00000000000E+00 -0.00000000000E+00 -0.31024490036E+03  0.31024490036E+03  0.00000000000E+00 0.  1.
        -24    2    1    2    0    0 -0.56079830105E+02 -0.30112888777E+02 -0.27680413041E+03  0.29460622824E+03  0.78234069883E+02 0.  0.
         25    2    1    2    0    0  0.49944751632E+02 -0.71594970068E+01  0.22136759247E+03  0.25922161573E+03  0.12508596425E+03 0.  0.
         24    2    1    2    0    0  0.61350784732E+01  0.37272385784E+02  0.34943030719E+03  0.36065572599E+03  0.80895878609E+02 0.  0.
        -13    1    5    5    0    0 -0.11111858285E+02  0.39684024419E+02  0.74207865038E+02  0.84882874728E+02  0.00000000000E+00 0.  1.
         14    1    5    5    0    0  0.17246936758E+02 -0.24116386350E+01  0.27522244215E+03  0.27577285126E+03  0.00000000000E+00 0. -1.
         11    1    3    3    0    0 -0.39932477048E+02 -0.15471924863E+02 -0.46280734616E+02  0.63054655489E+02  0.00000000000E+00 0. -1.
        -12    1    3    3    0    0 -0.16147353057E+02 -0.14640963914E+02 -0.23052339580E+03  0.23155157275E+03  0.00000000000E+00 0.  1.
          5    1    4    4  501    0  0.60892797304E+02 -0.44930816814E+01  0.31237878788E+02  0.68712429863E+02  0.41800000000E+01 0. -1.
         -5    1    4    4    0  501 -0.10948045672E+02 -0.26664153254E+01  0.19012971368E+03  0.19050918586E+03  0.41800000000E+01 0. -1.
</event>
<event>
11    1  0.6930157E-009  0.1627564E+03  0.7561462E-02  0.1084513E+00
         22   -1    0    0    0    0  0.00000000000E+00  0.00000000000E+00  0.74519513905E+03  0.74519513905E+03  0.00000000000E+00 0.  1.
         22   -1    0    0    0    0 -0.00000000000E+00 -0.00000000000E+00 -0.32231799206E+03  0.32231799206E+03  0.00000000000E+00 0. -1.
        -24    2    1    2    0    0 -0.10352153401E+03 -0.14632271914E+02 -0.11670967858E+03  0.17264069981E+03  0.72476553252E+02 0.  0.
         25    2    1    2    0    0  0.10474197343E+03 -0.97256947026E+01 -0.13656714660E+03  0.21298616961E+03  0.12508818001E+03 0.  0.
         24    2    1    2    0    0 -0.12204394202E+01  0.24357966617E+02  0.67615397216E+03  0.68188626170E+03  0.84793158972E+02 0.  0.
        -13    1    5    5    0    0 -0.62275469912E+01  0.40789247831E+02  0.64493558993E+03  0.64625417618E+03  0.00000000000E+00 0.  1.
         14    1    5    5    0    0  0.50071075711E+01 -0.16431281214E+02  0.31218382236E+02  0.35632085513E+02  0.00000000000E+00 0. -1.
         11    1    3    3    0    0 -0.94887183014E+02 -0.51020329183E+01 -0.55394882394E+02  0.10999182349E+03  0.00000000000E+00 0. -1.
        -12    1    3    3    0    0 -0.86343509986E+01 -0.95302389957E+01 -0.61314796182E+02  0.62648876313E+02  0.00000000000E+00 0.  1.
          5    1    4    4  501    0  0.34262853131E+02  0.33913628020E+02  0.52417640660E+01  0.48672638727E+02  0.41800000000E+01 0. -1.
         -5    1    4    4    0  501  0.70479120302E+02 -0.43639322722E+02 -0.14180891066E+03  0.16431353088E+03  0.41800000000E+01 0. -1.
</event>
<event>
11    1  0.6930157E-009  0.3104921E+03  0.7561462E-02  0.9958460E-01
         22   -1    0    0    0    0  0.00000000000E+00  0.00000000000E+00  0.39027334633E+03  0.39027334633E+03  0.00000000000E+00 0. -1.
         22   -1    0    0    0    0 -0.00000000000E+00 -0.00000000000E+00 -0.35022509467E+04  0.35022509467E+04  0.00000000000E+00 0.  1.
        -24    2    1    2    0    0  0.28041649493E+03 -0.37070780641E+02 -0.30603371472E+04  0.30744188968E+04  0.79877687658E+02 0.  0.
         25    2    1    2    0    0 -0.28591819731E+03  0.90451066221E+02 -0.36482517179E+03  0.48854466876E+03  0.12509147238E+03 0.  0.
         24    2    1    2    0    0  0.55017023802E+01 -0.53380285581E+02  0.31318471862E+03  0.32956072749E+03  0.87440731423E+02 0.  0.
        -13    1    5    5    0    0 -0.53215567400E+01 -0.13902800307E+00 -0.46789288401E+01  0.70873598761E+01  0.00000000000E+00 0.  1.
         14    1    5    5    0    0  0.10823259120E+02 -0.53241257578E+02  0.31786364746E+03  0.32247336762E+03  0.00000000000E+00 0. -1.
         13    1    3    3    0    0  0.17494153041E+03  0.14508535903E+02 -0.17097935872E+04  0.17187812972E+04  0.00000000000E+00 0. -1.
        -14    1    3    3    0    0  0.10547496453E+03 -0.51579316544E+02 -0.13505435600E+04  0.13556375996E+04  0.00000000000E+00 0.  1.
          5    1    4    4  501    0 -0.17164663878E+03  0.10765296324E+03 -0.27759739391E+03  0.34369974484E+03  0.41800000000E+01 0. -1.
         -5    1    4    4    0  501 -0.11427155854E+03 -0.17201897014E+02 -0.87227777888E+02  0.14484492392E+03  0.41800000000E+01 0. -1.
</event>
<event>
11    1  0.6930157E-009  0.1572211E+03  0.7561462E-02  0.1089720E+00
         22   -1    0    0    0    0  0.00000000000E+00  0.00000000000E+00  0.42803446673E+03  0.42803446673E+03  0.00000000000E+00 0. -1.
         22   -1    0    0    0    0 -0.00000000000E+00 -0.00000000000E+00 -0.11154462369E+04  0.11154462369E+04  0.00000000000E+00 0.  1.
         24    2    1    2    0    0 -0.25900005394E+02  0.10676324897E+02 -0.10628662478E+04  0.10663512998E+04  0.81459434900E+02 0.  0.
         25    2    1    2    0    0 -0.32383980651E+02 -0.88294375660E+02  0.14031184392E+03  0.21018582101E+03  0.12508415899E+03 0.  0.
        -24    2    1    2    0    0  0.58283986045E+02  0.77618050763E+02  0.23514263377E+03  0.26694358282E+03  0.80902616504E+02 0.  0.
        -13    1    3    3    0    0 -0.48770737207E+02 -0.13802124609E+02 -0.74574320109E+03  0.74746371512E+03  0.00000000000E+00 0.  1.
         14    1    3    3    0    0  0.22870731813E+02  0.24478449506E+02 -0.31712304674E+03  0.31888758464E+03  0.00000000000E+00 0. -1.
         13    1    5    5    0    0  0.24329363218E+02  0.32753500207E+02  0.19133098265E+03  0.19563295891E+03  0.00000000000E+00 0. -1.
        -14    1    5    5    0    0  0.33954622827E+02  0.44864550556E+02  0.43811651118E+02  0.71310623904E+02  0.00000000000E+00 0.  1.
          5    1    4    4  501    0 -0.45180269800E+02 -0.24775856611E+02 -0.40894887506E+01  0.51858424275E+02  0.41800000000E+01 0. -1.
         -5    1    4    4    0  501  0.12796289149E+02 -0.63518519049E+02  0.14440133267E+03  0.15832739673E+03  0.41800000000E+01 0. -1.
</event>
<event>
11    1  0.6930157E-009  0.1391588E+03  0.7561462E-02  0.1108501E+00
         22   -1    0    0    0    0  0.00000000000E+00  0.00000000000E+00  0.39007793182E+03  0.39007793182E+03  0.00000000000E+00 0.  1.
         22   -1    0    0    0    0 -0.00000000000E+00 -0.00000000000E+00 -0.40659842890E+03  0.40659842890E+03  0.00000000000E+00 0. -1.
        -24    2    1    2    0    0 -0.50489432742E+02 -0.11734914550E+02 -0.34835894313E+03  0.36158539031E+03  0.81872768285E+02 0.  0.
         25    2    1    2    0    0  0.91646209020E+02 -0.23789170820E+02  0.10717985529E+03  0.18999752156E+03  0.12508630837E+03 0.  0.
         24    2    1    2    0    0 -0.41156776278E+02  0.35524085370E+02  0.22465859076E+03  0.24509344886E+03  0.81507517438E+02 0.  0.
        -13    1    5    5    0    0 -0.49327405436E+02  0.55731470910E+02  0.19105751124E+03  0.20504185519E+03  0.00000000000E+00 0.  1.
         14    1    5    5    0    0  0.81706291575E+01 -0.20207385541E+02  0.33601079513E+02  0.40051593671E+02  0.00000000000E+00 0. -1.
         11    1    3    3    0    0  0.71156172279E+01  0.15718719065E+02 -0.19103187614E+03  0.19180950925E+03  0.00000000000E+00 0. -1.
        -12    1    3    3    0    0 -0.57605049970E+02 -0.27453633615E+02 -0.15732706699E+03  0.16977588106E+03  0.00000000000E+00 0.  1.
          5    1    4    4  501    0 -0.18827699999E+02 -0.40529345669E+02  0.26601134414E+02  0.52174734304E+02  0.41800000000E+01 0.  1.
         -5    1    4    4    0  501  0.11047390902E+03  0.16740174849E+02  0.80578720881E+02  0.13782278726E+03  0.41800000000E+01 0.  1.
</event>
<event>
11    1  0.1208051E-008  0.1629570E+03  0.7561462E-02  0.1084329E+00
         22   -1    0    0    0    0  0.00000000000E+00  0.00000000000E+00  0.20990525085E+04  0.20990525085E+04  0.00000000000E+00 0.  1.
         22   -1    0    0    0    0 -0.00000000000E+00 -0.00000000000E+00 -0.15205182284E+04  0.15205182284E+04  0.00000000000E+00 0.  1.
         24    2    1    2    0    0  0.66826946684E+01 -0.78064870085E+02 -0.10599050282E+04  0.10658037629E+04  0.80001312263E+02 0.  0.
         25    2    1    2    0    0  0.70988207506E+02  0.78547381980E+01 -0.44420033845E+03  0.46697117311E+03  0.12508842198E+03 0.  0.
        -24    2    1    2    0    0 -0.77670902174E+02  0.70210131887E+02  0.20826396468E+04  0.20867958008E+04  0.79790879520E+02 0.  0.
        -11    1    3    3    0    0 -0.34789952817E+02 -0.29093350080E+02 -0.55217966790E+03  0.55403894221E+03  0.00000000000E+00 0.  1.
         12    1    3    3    0    0  0.41472647486E+02 -0.48971520005E+02 -0.50772536029E+03  0.51176482073E+03  0.00000000000E+00 0. -1.
         13    1    5    5    0    0  0.10731388392E+02 -0.47453513754E+01  0.86237016197E+02  0.87031626545E+02  0.00000000000E+00 0. -1.
        -14    1    5    5    0    0 -0.88402290566E+02  0.74955483262E+02  0.19964026306E+04  0.19997641743E+04  0.00000000000E+00 0.  1.
          5    1    4    4  501    0  0.26517041775E+02 -0.42614407782E+02 -0.67118260496E+02  0.83913494428E+02  0.41800000000E+01 0. -1.
         -5    1    4    4    0  501  0.44471165731E+02  0.50469145980E+02 -0.37708207796E+03  0.38305767868E+03  0.41800000000E+01 0. -1.
</event>
<event>
11    1  0.6930157E-009  0.1411581E+03  0.7561462E-02  0.1106272E+00
         22   -1    0    0    0    0  0.00000000000E+00  0.00000000000E+00  0.17088624680E+04  0.17088624680E+04  0.00000000000E+00 0.  1.
         22   -1    0    0    0    0 -0.00000000000E+00 -0.00000000000E+00 -0.12442662204E+03  0.12442662204E+03  0.00000000000E+00 0.  1.
         24    2    1    2    0    0  0.69811999691E+02 -0.54039282122E+01 -0.81617771436E+02  0.13967103902E+03  0.89126992472E+02 0.  0.
         25    2    1    2    0    0 -0.11900131841E+02 -0.22842892712E+02  0.33408873364E+03  0.35766768111E+03  0.12508987680E+03 0.  0.
        -24    2    1    2    0    0 -0.57911867850E+02  0.28246820925E+02  0.13319648838E+04  0.13359503699E+04  0.80506347357E+02 0.  0.
        -13    1    3    3    0    0  0.90485631486E+02 -0.11243312416E+02 -0.59736498010E+02  0.10900692994E+03  0.00000000000E+00 0.  1.
         14    1    3    3    0    0 -0.20673631795E+02  0.58393842039E+01 -0.21881273426E+02  0.30664109089E+02  0.00000000000E+00 0. -1.
         13    1    5    5    0    0 -0.34031346228E+01 -0.27568806410E+01  0.25715731186E+01  0.50788487311E+01  0.00000000000E+00 0. -1.
        -14    1    5    5    0    0 -0.54508733227E+02  0.31003701566E+02  0.13293933107E+04  0.13308715212E+04  0.00000000000E+00 0.  1.
          5    1    4    4  501    0 -0.31726732583E+02 -0.22422026313E+02  0.21843533728E+02  0.44765446385E+02  0.41800000000E+01 0.  1.
         -5    1    4    4    0  501  0.19826600742E+02 -0.42086639963E+00  0.31224519991E+03  0.31290223472E+03  0.41800000000E+01 0.  1.
</event>
<event>
11    1  0.6930157E-009  0.1657257E+03  0.7561462E-02  0.1081812E+00
         22   -1    0    0    0    0  0.00000000000E+00  0.00000000000E+00  0.46319162721E+03  0.46319162721E+03  0.00000000000E+00 0.  1.
         22   -1    0    0    0    0 -0.00000000000E+00 -0.00000000000E+00 -0.14479924136E+04  0.14479924136E+04  0.00000000000E+00 0.  1.
        -24    2    1    2    0    0  0.15632416503E+02 -0.93926444584E+02 -0.11828401398E+04  0.11893991636E+04  0.80579306507E+02 0.  0.
         25    2    1    2    0    0 -0.11449663551E+03  0.13379057061E+03 -0.20455222911E+03  0.29748732687E+03  0.12509076260E+03 0.  0.
         24    2    1    2    0    0  0.98864219010E+02 -0.39864126023E+02  0.40259158256E+03  0.42429755029E+03  0.81148915500E+02 0.  0.
        -13    1    5    5    0    0  0.84240640421E+02 -0.44693820022E+02  0.39638263334E+03  0.40769254968E+03  0.00000000000E+00 0.  1.
         14    1    5    5    0    0  0.14623578589E+02  0.48296939988E+01  0.62089492190E+01  0.16605000611E+02  0.00000000000E+00 0. -1.
         13    1    3    3    0    0  0.23036707277E+02 -0.40096284291E+02 -0.20947159929E+03  0.21451515752E+03  0.00000000000E+00 0. -1.
        -14    1    3    3    0    0 -0.74042907736E+01 -0.53830160293E+02 -0.97336854052E+03  0.97488400610E+03  0.00000000000E+00 0.  1.
          5    1    4    4  501    0 -0.11971639822E+03  0.87345005053E+02 -0.20190520639E+03  0.25048822463E+03  0.41800000000E+01 0.  1.
         -5    1    4    4    0  501  0.52197627084E+01  0.46445565554E+02 -0.26470227201E+01  0.46999102243E+02  0.41800000000E+01 0.  1.
</event>
<event>
11    1  0.6930157E-009  0.1333996E+03  0.7561462E-02  0.1115161E+00
         22   -1    0    0    0    0  0.00000000000E+00  0.00000000000E+00  0.53657126319E+03  0.53657126319E+03  0.00000000000E+00 0. -1.
         22   -1    0    0    0    0 -0.00000000000E+00 -0.00000000000E+00 -0.26200801904E+03  0.26200801904E+03  0.00000000000E+00 0. -1.
         24    2    1    2    0    0 -0.30292066717E+02 -0.58901440832E+02 -0.22030633537E+03  0.24392104236E+03  0.81090100906E+02 0.  0.
         25    2    1    2    0    0 -0.25763725876E+02  0.31520974334E+02  0.19955831485E+03  0.23901618665E+03  0.12509146677E+03 0.  0.
        -24    2    1    2    0    0  0.56055792592E+02  0.27380466498E+02  0.29531126466E+03  0.31564205322E+03  0.92353781187E+02 0.  0.
        -11    1    3    3    0    0 -0.48465333098E+02 -0.68353847777E+02 -0.18523627433E+03  0.20330670020E+03  0.00000000000E+00 0.  1.
         12    1    3    3    0    0  0.18173266381E+02  0.94524069449E+01 -0.35070061039E+02  0.40614342163E+02  0.00000000000E+00 0. -1.
         11    1    5    5    0    0  0.71730481868E+02  0.34615756117E+02  0.28410974504E+03  0.29506246767E+03  0.00000000000E+00 0. -1.
        -12    1    5    5    0    0 -0.15674689276E+02 -0.72352896191E+01  0.11201519619E+02  0.20579585553E+02  0.00000000000E+00 0.  1.
          5    1    4    4  501    0  0.35947176091E+02  0.44751483301E+02  0.48549193647E+02  0.75295360616E+02  0.41800000000E+01 0.  1.
         -5    1    4    4    0  501 -0.61710901967E+02 -0.13230508967E+02  0.15100912120E+03  0.16372082603E+03  0.41800000000E+01 0.  1.
</event>
<event>
11    1  0.6930157E-009  0.2022295E+03  0.7561462E-02  0.1052958E+00
         22   -1    0    0    0    0  0.00000000000E+00  0.00000000000E+00  0.71391678555E+03  0.71391678555E+03  0.00000000000E+00 0.  1.
         22   -1    0    0    0    0 -0.00000000000E+00 -0.00000000000E+00 -0.11139597494E+04  0.11139597494E+04  0.00000000000E+00 0. -1.
         24    2    1    2    0    0  0.77106592950E+02 -0.12460890351E+03 -0.74957997007E+03  0.76808770566E+03  0.81337485497E+02 0.  0.
         25    2    1    2    0    0 -0.10373315340E+03  0.19448320470E+03 -0.30481138527E+03  0.39641273030E+03  0.12509511634E+03 0.  0.
        -24    2    1    2    0    0  0.26626560455E+02 -0.69874301183E+02  0.65434839147E+03  0.66337609901E+03  0.79401760879E+02 0.  0.
        -11    1    3    3    0    0  0.68150266399E+00 -0.74207604624E+02 -0.28003474330E+03  0.28970103639E+03  0.00000000000E+00 0.  1.
         12    1    3    3    0    0  0.76425090286E+02 -0.50401298891E+02 -0.46954522677E+03  0.47838666927E+03  0.00000000000E+00 0. -1.
         13    1    5    5    0    0  0.43573098745E+02 -0.39222415450E+02  0.55395298186E+03  0.55704660390E+03  0.00000000000E+00 0. -1.
        -14    1    5    5    0    0 -0.16946538290E+02 -0.30651885733E+02  0.10039540961E+03  0.10632949511E+03  0.00000000000E+00 0.  1.
          5    1    4    4  501    0 -0.28034032306E+02  0.12726250403E+02 -0.12811319151E+03  0.13182688138E+03  0.41800000000E+01 0. -1.
         -5    1    4    4    0  501 -0.75699121099E+02  0.18175695429E+03 -0.17669819376E+03  0.26458584892E+03  0.41800000000E+01 0. -1.
</event>
<event>
11    1  0.6930157E-009  0.1543419E+03  0.7561462E-02  0.1092523E+00
         22   -1    0    0    0    0  0.00000000000E+00  0.00000000000E+00  0.69532997342E+03  0.69532997342E+03  0.00000000000E+00 0.  1.
         22   -1    0    0    0    0 -0.00000000000E+00 -0.00000000000E+00 -0.86501089817E+03  0.86501089817E+03  0.00000000000E+00 0. -1.
         24    2    1    2    0    0  0.39315588731E+02  0.14535333196E+02 -0.83453805669E+03  0.83933237394E+03  0.79171171873E+02 0.  0.
         25    2    1    2    0    0  0.50508183835E+02  0.44990762616E+02  0.29847519380E+03  0.33062148207E+03  0.12509147748E+03 0.  0.
        -24    2    1    2    0    0 -0.89823772566E+02 -0.59526095812E+02  0.36638193813E+03  0.39038701557E+03  0.80960676485E+02 0.  0.
        -11    1    3    3    0    0 -0.16196405286E+02  0.27382772990E+02 -0.35443314138E+03  0.35585810586E+03  0.00000000000E+00 0.  1.
         12    1    3    3    0    0  0.55511994017E+02 -0.12847439794E+02 -0.48010491531E+03  0.48347426808E+03  0.00000000000E+00 0. -1.
         13    1    5    5    0    0 -0.10065510969E+02  0.13114346526E+02  0.13377871354E+02  0.21266594411E+02  0.00000000000E+00 0. -1.
        -14    1    5    5    0    0 -0.79758261597E+02 -0.72640442339E+02  0.35300406678E+03  0.36912042116E+03  0.00000000000E+00 0.  1.
          5    1    4    4  501    0  0.49654289924E+02  0.63434002937E+02  0.88311373984E+02  0.11960682427E+03  0.41800000000E+01 0. -1.
         -5    1    4    4    0  501  0.85389391030E+00 -0.18443240321E+02  0.21016381982E+03  0.21101465781E+03  0.41800000000E+01 0. -1.
</event>
<event>
11    1  0.6930157E-009  0.1309223E+03  0.7561462E-02  0.1118141E+00
         22   -1    0    0    0    0  0.00000000000E+00  0.00000000000E+00  0.59372318328E+03  0.59372318328E+03  0.00000000000E+00 0.  1.
         22   -1    0    0    0    0 -0.00000000000E+00 -0.00000000000E+00 -0.24144235855E+03  0.24144235855E+03  0.00000000000E+00 0.  1.
        -24    2    1    2    0    0  0.52694557103E+01 -0.22893604804E+02 -0.19614841918E+03  0.21340304581E+03  0.80714145649E+02 0.  0.
         25    2    1    2    0    0 -0.19666181794E+02  0.55702444408E+02  0.11627168325E+03  0.18071224432E+03  0.12509312492E+03 0.  0.
         24    2    1    2    0    0  0.14396726083E+02 -0.32808839604E+02  0.43215756067E+03  0.44105025170E+03  0.80507649333E+02 0.  0.
        -11    1    5    5    0    0 -0.85109928057E+01 -0.39130286478E+02  0.39446089083E+03  0.39648834877E+03  0.00000000000E+00 0.  1.
         12    1    5    5    0    0  0.22907718889E+02  0.63214468740E+01  0.37696669837E+02  0.44561902922E+02  0.00000000000E+00 0. -1.
         13    1    3    3    0    0 -0.25191178196E+02 -0.60586487546E+00 -0.17179700074E+02  0.30497616723E+02  0.00000000000E+00 0. -1.
        -14    1    3    3    0    0  0.30460633907E+02 -0.22287739929E+02 -0.17896871911E+03  0.18290542908E+03  0.00000000000E+00 0.  1.
          5    1    4    4  501    0  0.37930844604E+01  0.75026769726E+02  0.17447367345E+02  0.77235268449E+02  0.41800000000E+01 0.  1.
         -5    1    4    4    0  501 -0.23459266254E+02 -0.19324325317E+02  0.98824315904E+02  0.10347697587E+03  0.41800000000E+01 0.  1.
</event>
<event>
11    1  0.6930157E-009  0.1604741E+03  0.7561462E-02  0.1086632E+00
         22   -1    0    0    0    0  0.00000000000E+00  0.00000000000E+00  0.99977192462E+03  0.99977192462E+03  0.00000000000E+00 0.  1.
         22   -1    0    0    0    0 -0.00000000000E+00 -0.00000000000E+00 -0.11079025838E+03  0.11079025838E+03  0.00000000000E+00 0. -1.
        -24    2    1    2    0    0  0.11111975065E+02  0.23321069556E+02  0.29012117761E+02  0.89431156943E+02  0.80553588251E+02 0.  0.
         25    2    1    2    0    0 -0.79897997290E+02  0.50777898226E+02  0.57901211694E+01  0.15697801629E+03  0.12508591918E+03 0.  0.
         24    2    1    2    0    0  0.68786022225E+02 -0.74098967782E+02  0.85417942732E+03  0.86415300977E+03  0.83161026702E+02 0.  0.
        -11    1    5    5    0    0  0.73611036646E+02 -0.20267917961E+02  0.46184864086E+03  0.46811701558E+03  0.00000000000E+00 0.  1.
         12    1    5    5    0    0 -0.48250144206E+01 -0.53831049821E+02  0.39233078646E+03  0.39603599419E+03  0.00000000000E+00 0. -1.
         13    1    3    3    0    0  0.44808439549E+02  0.23698475751E+02  0.20471554628E+02  0.54667161592E+02  0.00000000000E+00 0. -1.
        -14    1    3    3    0    0 -0.33696464484E+02 -0.37740619493E+00  0.85405631332E+01  0.34763995351E+02  0.00000000000E+00 0.  1.
          5    1    4    4  501    0 -0.84396303660E+02 -0.17510344367E+02 -0.92335373373E+01  0.86787550046E+02  0.41800000000E+01 0.  1.
         -5    1    4    4    0  501  0.44983063698E+01  0.68288242593E+02  0.15023658507E+02  0.70190466244E+02  0.41800000000E+01 0.  1.
</event>
<event>
11    1  0.6930157E-009  0.1408385E+03  0.7561462E-02  0.1106626E+00
         22   -1    0    0    0    0  0.00000000000E+00  0.00000000000E+00  0.76298209675E+03  0.76298209675E+03  0.00000000000E+00 0.  1.
         22   -1    0    0    0    0 -0.00000000000E+00 -0.00000000000E+00 -0.62461937852E+03  0.62461937852E+03  0.00000000000E+00 0.  1.
        -24    2    1    2    0    0 -0.41441633029E+02 -0.17281582205E+02 -0.48339049537E+03  0.49232308554E+03  0.81851007990E+02 0.  0.
         25    2    1    2    0    0  0.49189233937E+01  0.70980683749E+02 -0.94211770718E+02  0.17200620817E+03  0.12509126522E+03 0.  0.
         24    2    1    2    0    0  0.36522709635E+02 -0.53699101543E+02  0.71596498431E+03  0.72327218156E+03  0.79368054263E+02 0.  0.
        -11    1    5    5    0    0  0.29850490216E+02 -0.72552807229E+02  0.63703832718E+03  0.64185106676E+03  0.00000000000E+00 0.  1.
         12    1    5    5    0    0  0.66722194186E+01  0.18853705686E+02  0.78926657129E+02  0.81421114802E+02  0.00000000000E+00 0. -1.
         11    1    3    3    0    0 -0.48136302189E+02 -0.87183813324E+01 -0.13214168856E+03  0.14090613761E+03  0.00000000000E+00 0. -1.
        -12    1    3    3    0    0  0.66946691601E+01 -0.85632008728E+01 -0.35124880681E+03  0.35141694793E+03  0.00000000000E+00 0.  1.
          5    1    4    4  501    0  0.13203285032E+02  0.41331193208E+02 -0.12247834569E+03  0.13000389159E+03  0.41800000000E+01 0.  1.
         -5    1    4    4    0  501 -0.82843616385E+01  0.29649490540E+02  0.28266574968E+02  0.42002316573E+02  0.41800000000E+01 0.  1.
</event>
<event>
11    1  0.6930157E-009  0.1445304E+03  0.7561462E-02  0.1102602E+00
         22   -1    0    0    0    0  0.00000000000E+00  0.00000000000E+00  0.60441255140E+03  0.60441255140E+03  0.00000000000E+00 0.  1.
         22   -1    0    0    0    0 -0.00000000000E+00 -0.00000000000E+00 -0.15163060932E+03  0.15163060932E+03  0.00000000000E+00 0.  1.
         24    2    1    2    0    0 -0.46943777237E+02  0.60186240072E+02 -0.94349200797E+02  0.14591567413E+03  0.81015495746E+02 0.  0.
         25    2    1    2    0    0  0.43080228372E+02 -0.24621548597E+02  0.14558678321E+03  0.19825338081E+03  0.12508702900E+03 0.  0.
        -24    2    1    2    0    0  0.38635488655E+01 -0.35564691474E+02  0.40154435967E+03  0.41187410578E+03  0.84395686734E+02 0.  0.
        -11    1    3    3    0    0 -0.75770706892E+01  0.16860397659E+02 -0.84568111699E+02  0.86564718712E+02  0.00000000000E+00 0.  1.
         12    1    3    3    0    0 -0.39366706548E+02  0.43325842413E+02 -0.97810890984E+01  0.59350955419E+02  0.00000000000E+00 0. -1.
         11    1    5    5    0    0 -0.10777998827E+02 -0.51914291100E+02  0.14495267538E+03  0.15434551169E+03  0.00000000000E+00 0. -1.
        -12    1    5    5    0    0  0.14641547692E+02  0.16349599626E+02  0.25659168429E+03  0.25752859409E+03  0.00000000000E+00 0.  1.
          5    1    4    4  501    0  0.42189305168E+02  0.46012304887E+02  0.81800917913E+02  0.10298510690E+03  0.41800000000E+01 0.  1.
         -5    1    4    4    0  501  0.89092320390E+00 -0.70633853484E+02  0.63785865298E+02  0.95268273911E+02  0.41800000000E+01 0.  1.
</event>
<event>
11    1  0.6930157E-009  0.1466637E+03  0.7561462E-02  0.1100337E+00
         22   -1    0    0    0    0  0.00000000000E+00  0.00000000000E+00  0.29200100573E+03  0.29200100573E+03  0.00000000000E+00 0.  1.
         22   -1    0    0    0    0 -0.00000000000E+00 -0.00000000000E+00 -0.76713503525E+03  0.76713503525E+03  0.00000000000E+00 0.  1.
        -24    2    1    2    0    0  0.67484402357E+02 -0.33812169617E+02 -0.65144003555E+03  0.66078558183E+03  0.81031215337E+02 0.  0.
         25    2    1    2    0    0 -0.86137917242E+02  0.28876225396E+02 -0.45424066048E+02  0.16113494696E+03  0.12509016019E+03 0.  0.
         24    2    1    2    0    0  0.18653514886E+02  0.49359442205E+01  0.22173007209E+03  0.23721551219E+03  0.82064957162E+02 0.  0.
        -13    1    5    5    0    0  0.47792027325E+02  0.16151172242E+02  0.16399499677E+03  0.17157883671E+03  0.00000000000E+00 0.  1.
         14    1    5    5    0    0 -0.29138512439E+02 -0.11215228021E+02  0.57735075316E+02  0.65636675483E+02  0.00000000000E+00 0. -1.
         11    1    3    3    0    0 -0.94527327892E+01  0.14629586309E+02 -0.63002470721E+02  0.65365818818E+02  0.00000000000E+00 0. -1.
        -12    1    3    3    0    0  0.76937135146E+02 -0.48441755926E+02 -0.58843756483E+03  0.59541976301E+03  0.00000000000E+00 0.  1.
          5    1    4    4  501    0 -0.90485760092E+01 -0.30710259606E+02  0.25006325100E+02  0.40838529208E+02  0.41800000000E+01 0. -1.
         -5    1    4    4    0  501 -0.77089341233E+02  0.59586485002E+02 -0.70430391147E+02  0.12029641775E+03  0.41800000000E+01 0. -1.
</event>
<event>
11    1  0.6930157E-009  0.1336681E+03  0.7561462E-02  0.1114842E+00
         22   -1    0    0    0    0  0.00000000000E+00  0.00000000000E+00  0.73236253249E+03  0.73236253249E+03  0.00000000000E+00 0. -1.
         22   -1    0    0    0    0 -0.00000000000E+00 -0.00000000000E+00 -0.17829071421E+04  0.17829071421E+04  0.00000000000E+00 0. -1.
        -24    2    1    2    0    0 -0.13228709492E+01 -0.20490313129E+02 -0.17581378507E+04  0.17600702343E+04  0.79855648105E+02 0.  0.
         25    2    1    2    0    0 -0.21429751266E+02  0.57882540706E+02  0.23491846428E+03  0.27320947491E+03  0.12508840700E+03 0.  0.
         24    2    1    2    0    0  0.22752622215E+02 -0.37392227577E+02  0.47267477683E+03  0.48198996539E+03  0.83528567464E+02 0.  0.
        -11    1    5    5    0    0  0.11094973651E+02 -0.25268454491E+02  0.37862734061E+02  0.46852746592E+02  0.00000000000E+00 0.  1.
         12    1    5    5    0    0  0.11657648564E+02 -0.12123773086E+02  0.43481204277E+03  0.43513721880E+03  0.00000000000E+00 0. -1.
         13    1    3    3    0    0 -0.22415513466E+02 -0.27329432969E+02 -0.15994691733E+04  0.15998596781E+04  0.00000000000E+00 0. -1.
        -14    1    3    3    0    0  0.21092642517E+02  0.68391198404E+01 -0.15866867738E+03  0.16021055617E+03  0.00000000000E+00 0.  1.
          5    1    4    4  501    0 -0.14093010968E+02 -0.21317876542E+02  0.79335830164E+00  0.25906883946E+02  0.41800000000E+01 0. -1.
         -5    1    4    4    0  501 -0.73367402978E+01  0.79200417248E+02  0.23412510598E+03  0.24730259097E+03  0.41800000000E+01 0. -1.
</event>
<event>
11    1  0.1105618E-008  0.1853350E+03  0.7561462E-02  0.1065407E+00
         22   -1    0    0    0    0  0.00000000000E+00  0.00000000000E+00  0.68403111296E+03  0.68403111296E+03  0.00000000000E+00 0. -1.
         22   -1    0    0    0    0 -0.00000000000E+00 -0.00000000000E+00 -0.11640964966E+04  0.11640964966E+04  0.00000000000E+00 0.  1.
         24    2    1    2    0    0  0.11223514741E+02  0.15181867695E+01 -0.82885374982E+03  0.83227781840E+03  0.74562431758E+02 0.  0.
         25    2    1    2    0    0  0.20593326381E+02  0.13160145554E+03 -0.29808828220E+03  0.34963963425E+03  0.12509285216E+03 0.  0.
        -24    2    1    2    0    0 -0.31816841123E+02 -0.13311964231E+03  0.64687664839E+03  0.66621015690E+03  0.81568525617E+02 0.  0.
        -13    1    3    3    0    0  0.31719448700E+02  0.18995201012E+02 -0.68015713902E+03  0.68116126934E+03  0.00000000000E+00 0.  1.
         14    1    3    3    0    0 -0.20495933959E+02 -0.17477014243E+02 -0.14869661080E+03  0.15111654906E+03  0.00000000000E+00 0. -1.
         11    1    5    5    0    0  0.10293965903E+02 -0.74044688452E+02  0.45453345812E+03  0.46064003969E+03  0.00000000000E+00 0. -1.
        -12    1    5    5    0    0 -0.42110807026E+02 -0.59074953861E+02  0.19234319027E+03  0.20557011720E+03  0.00000000000E+00 0.  1.
          5    1    4    4  501    0  0.72876842325E+02  0.68860212035E+02 -0.17828375584E+03  0.20458575939E+03  0.41800000000E+01 0.  1.
         -5    1    4    4    0  501 -0.52283515943E+02  0.62741243508E+02 -0.11980452637E+03  0.14505387487E+03  0.41800000000E+01 0.  1.
</event>
<event>
11    1  0.6930157E-009  0.1755557E+03  0.7561462E-02  0.1073296E+00
         22   -1    0    0    0    0  0.00000000000E+00  0.00000000000E+00  0.16664141827E+04  0.16664141827E+04  0.00000000000E+00 0. -1.
         22   -1    0    0    0    0 -0.00000000000E+00 -0.00000000000E+00 -0.14554174059E+03  0.14554174059E+03  0.00000000000E+00 0. -1.
        -24    2    1    2    0    0 -0.93594784456E+02 -0.77369120136E+02 -0.83799573793E+02  0.16768975547E+03  0.79696430863E+02 0.  0.
         25    2    1    2    0    0  0.13011838037E+03  0.69422944427E+02  0.50063810949E+03  0.53668922673E+03  0.12508585570E+03 0.  0.
         24    2    1    2    0    0 -0.36523595913E+02  0.79461757092E+01  0.11040339065E+04  0.11075769411E+04  0.80241505160E+02 0.  0.
        -13    1    5    5    0    0 -0.30397308200E+02 -0.93709404321E+01  0.14859422368E+03  0.15196069946E+03  0.00000000000E+00 0.  1.
         14    1    5    5    0    0 -0.61262877127E+01  0.17317116141E+02  0.95543968277E+03  0.95561624166E+03  0.00000000000E+00 0. -1.
         11    1    3    3    0    0 -0.82334361329E+02 -0.92616724327E+02 -0.82116263524E+02  0.14866030208E+03  0.00000000000E+00 0. -1.
        -12    1    3    3    0    0 -0.11260423126E+02  0.15247604191E+02 -0.16833102691E+01  0.19029453382E+02  0.00000000000E+00 0.  1.
          5    1    4    4  501    0 -0.17777961227E+02  0.29794603194E+02  0.52235660326E+02  0.62847520989E+02  0.41800000000E+01 0.  1.
         -5    1    4    4    0  501  0.14789634159E+03  0.39628341233E+02  0.44840244917E+03  0.47384170574E+03  0.41800000000E+01 0.  1.
</event>
<event>
11    1  0.6930157E-009  0.1379943E+03  0.7561462E-02  0.1109819E+00
         22   -1    0    0    0    0  0.00000000000E+00  0.00000000000E+00  0.16616532818E+04  0.16616532818E+04  0.00000000000E+00 0.  1.
         22   -1    0    0    0    0 -0.00000000000E+00 -0.00000000000E+00 -0.72063185615E+02  0.72063185615E+02  0.00000000000E+00 0.  1.
         24    2    1    2    0    0  0.22795651041E+02  0.38056645086E+02  0.37998859450E+00  0.90904583874E+02  0.79344495942E+02 0.  0.
         25    2    1    2    0    0  0.31556817941E+02 -0.60019863033E+02  0.17576953285E+03  0.22614249203E+03  0.12508909348E+03 0.  0.
        -24    2    1    2    0    0 -0.54352468982E+02  0.21963217946E+02  0.14134405747E+04  0.14166693915E+04  0.75507169784E+02 0.  0.
        -13    1    3    3    0    0  0.24410601806E+02  0.19783127244E+02 -0.37435719034E+02  0.48874151284E+02  0.00000000000E+00 0.  1.
         14    1    3    3    0    0 -0.16149507651E+01  0.18273517842E+02  0.37815707628E+02  0.42030432590E+02  0.00000000000E+00 0. -1.
         13    1    5    5    0    0  0.91866277206E+01 -0.98202288236E+01  0.65938460807E+02  0.67295702958E+02  0.00000000000E+00 0. -1.
        -14    1    5    5    0    0 -0.63539096703E+02  0.31783446770E+02  0.13475021139E+04  0.13493736885E+04  0.00000000000E+00 0.  1.
          5    1    4    4  501    0  0.47075369897E+02  0.26376220724E+02  0.60119306104E+02  0.80892514098E+02  0.41800000000E+01 0.  1.
         -5    1    4    4    0  501 -0.15518551957E+02 -0.86396083757E+02  0.11565022674E+03  0.14524997793E+03  0.41800000000E+01 0.  1.
</event>
<event>
11    1  0.6930157E-009  0.1367567E+03  0.7561462E-02  0.1111235E+00
         22   -1    0    0    0    0  0.00000000000E+00  0.00000000000E+00  0.10928951054E+04  0.10928951054E+04  0.00000000000E+00 0.  1.
         22   -1    0    0    0    0 -0.00000000000E+00 -0.00000000000E+00 -0.18480184284E+03  0.18480184284E+03  0.00000000000E+00 0. -1.
        -24    2    1    2    0    0 -0.20984253542E+01 -0.29679600456E+02 -0.82984662751E+02  0.11879926429E+03  0.79633716924E+02 0.  0.
         25    2    1    2    0    0  0.47248288709E+02 -0.29746468528E+01 -0.26571224434E+02  0.13636354480E+03  0.12509091523E+03 0.  0.
         24    2    1    2    0    0 -0.45149863355E+02  0.32654247309E+02  0.10176491497E+04  0.10225341391E+04  0.82833952705E+02 0.  0.
        -11    1    5    5    0    0 -0.63548845952E+02  0.41470992164E+02  0.66929298225E+03  0.67358102341E+03  0.00000000000E+00 0.  1.
         12    1    5    5    0    0  0.18398982596E+02 -0.88167448549E+01  0.34835616745E+03  0.34895311569E+03  0.00000000000E+00 0. -1.
         13    1    3    3    0    0 -0.32264735757E+02 -0.86565608680E+01 -0.73637522573E+02  0.80860583415E+02  0.00000000000E+00 0. -1.
        -14    1    3    3    0    0  0.30166310402E+02 -0.21023039588E+02 -0.93471401781E+01  0.37938680872E+02  0.00000000000E+00 0.  1.
          5    1    4    4  501    0  0.69569261242E+02  0.43285130711E+02 -0.19698812107E+02  0.84374168137E+02  0.41800000000E+01 0. -1.
         -5    1    4    4    0  501 -0.22320972532E+02 -0.46259777564E+02 -0.68724123272E+01  0.51989376667E+02  0.41800000000E+01 0. -1.
</event>
<event>
11    1  0.6930157E-009  0.1504141E+03  0.7561462E-02  0.1096456E+00
         22   -1    0    0    0    0  0.00000000000E+00  0.00000000000E+00  0.28902918659E+03  0.28902918659E+03  0.00000000000E+00 0. -1.
         22   -1    0    0    0    0 -0.00000000000E+00 -0.00000000000E+00 -0.32506905814E+03  0.32506905814E+03  0.00000000000E+00 0. -1.
        -24    2    1    2    0    0 -0.79018605072E+02 -0.21262353421E+02 -0.15263821479E+03  0.19102514407E+03  0.80598718559E+02 0.  0.
         25    2    1    2    0    0  0.80595615021E+02  0.34376262842E+02 -0.10609392201E+03  0.18596065263E+03  0.12509221971E+03 0.  0.
         24    2    1    2    0    0 -0.15770099487E+01 -0.13113909421E+02  0.22269226525E+03  0.23711244803E+03  0.80349277701E+02 0.  0.
        -11    1    5    5    0    0  0.12829960164E+02 -0.12538384758E+02  0.45674831037E+01  0.18511641527E+02  0.00000000000E+00 0.  1.
         12    1    5    5    0    0 -0.14406970113E+02 -0.57552466291E+00  0.21812478215E+03  0.21860080650E+03  0.00000000000E+00 0. -1.
         13    1    3    3    0    0 -0.22909378003E+01 -0.26455383233E+02 -0.83470841208E+02  0.87592905135E+02  0.00000000000E+00 0. -1.
        -14    1    3    3    0    0 -0.76727667272E+02  0.51930298119E+01 -0.69167373584E+02  0.10343223894E+03  0.00000000000E+00 0.  1.
          5    1    4    4  501    0  0.34023401889E+02  0.22816083481E+02  0.23704192092E+02  0.47513436670E+02  0.41800000000E+01 0.  1.
         -5    1    4    4    0  501  0.46572213132E+02  0.11560179362E+02 -0.12979811410E+03  0.13844721596E+03  0.41800000000E+01 0.  1.
</event>
<event>
11    1  0.6930157E-009  0.3523985E+03  0.7561462E-02  0.9801692E-01
         22   -1    0    0    0    0  0.00000000000E+00  0.00000000000E+00  0.78274011226E+03  0.78274011226E+03  0.00000000000E+00 0.  1.
         22   -1    0    0    0    0 -0.00000000000E+00 -0.00000000000E+00 -0.19813577715E+04  0.19813577715E+04  0.00000000000E+00 0. -1.
         24    2    1    2    0    0  0.44439019361E+02  0.30441370265E+02 -0.16548002345E+04  0.16574901842E+04  0.77513811921E+02 0.  0.
         25    2    1    2    0    0 -0.11606428546E+02 -0.35475558727E+03 -0.15663544905E+03  0.40763733852E+03  0.12508916809E+03 0.  0.
        -24    2    1    2    0    0 -0.32832590816E+02  0.32431421701E+03  0.61281802430E+03  0.69897036108E+03  0.82194552055E+02 0.  0.
        -13    1    3    3    0    0 -0.26343626629E+01 -0.84286196856E+01 -0.24423378797E+02  0.25970809157E+02  0.00000000000E+00 0.  1.
         14    1    3    3    0    0  0.47073382024E+02  0.38869989951E+02 -0.16303768557E+04  0.16315193750E+04  0.00000000000E+00 0. -1.
         11    1    5    5    0    0  0.16735994792E+02  0.18075075520E+03  0.28859872055E+03  0.34094009815E+03  0.00000000000E+00 0. -1.
        -12    1    5    5    0    0 -0.49568585608E+02  0.14356346181E+03  0.32421930375E+03  0.35803026293E+03  0.00000000000E+00 0.  1.
          5    1    4    4  501    0 -0.36463516720E+02 -0.31971583722E+02 -0.16898302675E+01  0.48704190206E+02  0.41800000000E+01 0.  1.
         -5    1    4    4    0  501  0.24857088174E+02 -0.32278400355E+03 -0.15494561879E+03  0.35893314832E+03  0.41800000000E+01 0.  1.
</event>
<event>
11    1  0.6930157E-009  0.1592009E+03  0.7561462E-02  0.1087831E+00
         22   -1    0    0    0    0  0.00000000000E+00  0.00000000000E+00  0.11899382121E+03  0.11899382121E+03  0.00000000000E+00 0.  1.
         22   -1    0    0    0    0 -0.00000000000E+00 -0.00000000000E+00 -0.13559006959E+04  0.13559006959E+04  0.00000000000E+00 0.  1.
         24    2    1    2    0    0  0.50095792598E+02  0.83260575316E+01 -0.11235371941E+04  0.11276357397E+04  0.81532958497E+02 0.  0.
         25    2    1    2    0    0 -0.13434324173E+03 -0.30520177290E+02 -0.13015611131E+03  0.22708481386E+03  0.12508921437E+03 0.  0.
        -24    2    1    2    0    0  0.84247449134E+02  0.22194119759E+02  0.16786430641E+02  0.12017396360E+03  0.81054214179E+02 0.  0.
        -11    1    3    3    0    0  0.29930590311E+02 -0.35923606287E+02 -0.48451459875E+03  0.48676559259E+03  0.00000000000E+00 0.  1.
         12    1    3    3    0    0  0.20165202286E+02  0.44249663819E+02 -0.63902259531E+03  0.64087014711E+03  0.00000000000E+00 0. -1.
         13    1    5    5    0    0  0.43447415510E+02  0.41298429351E+02 -0.18735173945E+02  0.62803223835E+02  0.00000000000E+00 0. -1.
        -14    1    5    5    0    0  0.40800033624E+02 -0.19104309592E+02  0.35521604587E+02  0.57370739764E+02  0.00000000000E+00 0.  1.
          5    1    4    4  501    0 -0.56754665253E+01 -0.53835986441E+02 -0.48935472717E+02  0.73093619738E+02  0.41800000000E+01 0.  1.
         -5    1    4    4    0  501 -0.12866777521E+03  0.23315809151E+02 -0.81220638595E+02  0.15399119412E+03  0.41800000000E+01 0.  1.
</event>
<event>
11    1  0.7451695E-009  0.1559127E+03  0.7561462E-02  0.1090986E+00
         22   -1    0    0    0    0  0.00000000000E+00  0.00000000000E+00  0.27020392939E+03  0.27020392939E+03  0.00000000000E+00 0.  1.
         22   -1    0    0    0    0 -0.00000000000E+00 -0.00000000000E+00 -0.91948702393E+03  0.91948702393E+03  0.00000000000E+00 0.  1.
         24    2    1    2    0    0 -0.69033470708E+02 -0.70307894221E+01 -0.68525036821E+03  0.69175773178E+03  0.64386646689E+02 0.  0.
         25    2    1    2    0    0 -0.29082614432E+01  0.71030279142E+02 -0.19068330035E+03  0.23887461647E+03  0.12508877976E+03 0.  0.
        -24    2    1    2    0    0  0.71941732151E+02 -0.63999489720E+02  0.22665057402E+03  0.25905860506E+03  0.80432149310E+02 0.  0.
        -13    1    3    3    0    0 -0.76689464818E+02 -0.11736627676E+02 -0.66610850567E+03  0.67061133585E+03  0.00000000000E+00 0.  1.
         14    1    3    3    0    0  0.76559941100E+01  0.47058382540E+01 -0.19141862536E+02  0.21146395931E+02  0.00000000000E+00 0. -1.
         13    1    5    5    0    0  0.75704651436E+01  0.18802594415E+02  0.30338097362E+02  0.36486294012E+02  0.00000000000E+00 0. -1.
        -14    1    5    5    0    0  0.64371267008E+02 -0.82802084135E+02  0.19631247666E+03  0.22257231105E+03  0.00000000000E+00 0.  1.
          5    1    4    4  501    0  0.45129241065E+02 -0.50841408730E+01 -0.29802781647E+02  0.54480960724E+02  0.41800000000E+01 0. -1.
         -5    1    4    4    0  501 -0.48037502509E+02  0.76114420015E+02 -0.16088051871E+03  0.18439365575E+03  0.41800000000E+01 0. -1.
</event>
<event>
11    1  0.6930157E-009  0.1418131E+03  0.7561462E-02  0.1105550E+00
         22   -1    0    0    0    0  0.00000000000E+00  0.00000000000E+00  0.24024191394E+03  0.24024191394E+03  0.00000000000E+00 0. -1.
         22   -1    0    0    0    0 -0.00000000000E+00 -0.00000000000E+00 -0.49841037222E+03  0.49841037222E+03  0.00000000000E+00 0.  1.
        -24    2    1    2    0    0 -0.41187400246E+02 -0.45646753007E+02 -0.41514339018E+03  0.42717564118E+03  0.79718040673E+02 0.  0.
         25    2    1    2    0    0 -0.25508482996E+02 -0.52899556729E+01  0.18535240473E+02  0.12910838743E+03  0.12508698665E+03 0.  0.
         24    2    1    2    0    0  0.66695883242E+02  0.50936708680E+02  0.13843969143E+03  0.18236825754E+03  0.83962754020E+02 0.  0.
        -13    1    5    5    0    0  0.28867521441E+02 -0.21988151483E+02  0.48228814472E+02  0.60355870842E+02  0.00000000000E+00 0.  1.
         14    1    5    5    0    0  0.37828361802E+02  0.72924860163E+02  0.90210876959E+02  0.12201238670E+03  0.00000000000E+00 0. -1.
         11    1    3    3    0    0 -0.41593063955E+02  0.10399340590E+02 -0.14155146357E+03  0.14790181234E+03  0.00000000000E+00 0. -1.
        -12    1    3    3    0    0  0.40566370924E+00 -0.56046093597E+02 -0.27359192661E+03  0.27927382885E+03  0.00000000000E+00 0.  1.
          5    1    4    4  501    0 -0.32734915724E+02  0.56440287792E+02  0.12027727305E+02  0.66477209761E+02  0.41800000000E+01 0. -1.
         -5    1    4    4    0  501  0.72264327278E+01 -0.61730243465E+02  0.65075131677E+01  0.62631177666E+02  0.41800000000E+01 0. -1.
</event>
<event>
11    1  0.6930157E-009  0.1336991E+03  0.7561462E-02  0.1114806E+00
         22   -1    0    0    0    0  0.00000000000E+00  0.00000000000E+00  0.58772381100E+03  0.58772381100E+03  0.00000000000E+00 0.  1.
         22   -1    0    0    0    0 -0.00000000000E+00 -0.00000000000E+00 -0.56204787403E+03  0.56204787403E+03  0.00000000000E+00 0.  1.
        -24    2    1    2    0    0  0.37123551600E+02 -0.11738009670E+01 -0.49682718109E+03  0.50457251848E+03  0.79853883089E+02 0.  0.
         25    2    1    2    0    0 -0.73259307801E+02  0.27693065752E+02  0.39156019868E+02  0.15271308039E+03  0.12511698110E+03 0.  0.
         24    2    1    2    0    0  0.36135756200E+02 -0.26519264785E+02  0.48334709818E+03  0.49248608616E+03  0.83120776330E+02 0.  0.
        -11    1    5    5    0    0 -0.14773442044E+02 -0.20873701480E+01  0.30605547983E+03  0.30641894269E+03  0.00000000000E+00 0.  1.
         12    1    5    5    0    0  0.50909198244E+02 -0.24431894637E+02  0.17729161835E+03  0.18606714347E+03  0.00000000000E+00 0. -1.
         11    1    3    3    0    0  0.89568415531E+01 -0.37812245506E+02 -0.29339395772E+03  0.29595608685E+03  0.00000000000E+00 0. -1.
        -12    1    3    3    0    0  0.28166710047E+02  0.36638444539E+02 -0.20343322337E+03  0.20861643163E+03  0.00000000000E+00 0.  1.
          5    1    4    4  501    0 -0.22638413391E+02 -0.98445023751E+01 -0.42593688426E+02  0.49407556928E+02  0.41800000000E+01 0. -1.
         -5    1    4    4    0  501 -0.50620894410E+02  0.37537568128E+02  0.81749708294E+02  0.10330552346E+03  0.41800000000E+01 0. -1.
</event>
<event>
11    1  0.6930157E-009  0.1598922E+03  0.7561462E-02  0.1087179E+00
         22   -1    0    0    0    0  0.00000000000E+00  0.00000000000E+00  0.65482349156E+03  0.65482349156E+03  0.00000000000E+00 0.  1.
         22   -1    0    0    0    0 -0.00000000000E+00 -0.00000000000E+00 -0.51353332964E+03  0.51353332964E+03  0.00000000000E+00 0. -1.
        -24    2    1    2    0    0 -0.60990478117E+02  0.78748050613E+02 -0.46290450064E+03  0.48035845874E+03  0.80886205736E+02 0.  0.
         25    2    1    2    0    0  0.82047290492E+02 -0.61813502930E+02  0.13456884103E+03  0.21049681862E+03  0.12508985032E+03 0.  0.
         24    2    1    2    0    0 -0.21056812375E+02 -0.16934547684E+02  0.46962582153E+03  0.47750154383E+03  0.82031359005E+02 0.  0.
        -13    1    5    5    0    0 -0.19226330753E+00 -0.65269532856E+01  0.43881104086E+03  0.43885962182E+03  0.00000000000E+00 0.  1.
         14    1    5    5    0    0 -0.20864549068E+02 -0.10407594398E+02  0.30814780677E+02  0.38641922016E+02  0.00000000000E+00 0. -1.
         13    1    3    3    0    0 -0.14972992375E+02  0.14238253136E+01 -0.23281189912E+03  0.23329723134E+03  0.00000000000E+00 0. -1.
        -14    1    3    3    0    0 -0.46017485742E+02  0.77324225300E+02 -0.23009260152E+03  0.24706122740E+03  0.00000000000E+00 0.  1.
          5    1    4    4  501    0 -0.21277115906E+02 -0.48247780502E+02  0.22727762844E+02  0.57572455120E+02  0.41800000000E+01 0. -1.
         -5    1    4    4    0  501  0.10332440640E+03 -0.13565722428E+02  0.11184107819E+03  0.15292436350E+03  0.41800000000E+01 0. -1.
</event>
<event>
11    1  0.6930157E-009  0.1505332E+03  0.7561462E-02  0.1096335E+00
         22   -1    0    0    0    0  0.00000000000E+00  0.00000000000E+00  0.79963228443E+03  0.79963228443E+03  0.00000000000E+00 0.  1.
         22   -1    0    0    0    0 -0.00000000000E+00 -0.00000000000E+00 -0.76023226099E+03  0.76023226099E+03  0.00000000000E+00 0. -1.
         24    2    1    2    0    0 -0.60583826556E+02 -0.40433294503E+02 -0.48556606071E+03  0.49784428244E+03  0.82275627614E+02 0.  0.
         25    2    1    2    0    0  0.34522814546E+02  0.11967276855E+03 -0.23466655905E+03  0.29364890105E+03  0.12509151409E+03 0.  0.
        -24    2    1    2    0    0  0.26061012010E+02 -0.79239474042E+02  0.75963264319E+03  0.76837136193E+03  0.79967034658E+02 0.  0.
        -11    1    3    3    0    0 -0.20074135867E+02  0.22012703910E+02 -0.22126982293E+03  0.22326635350E+03  0.00000000000E+00 0.  1.
         12    1    3    3    0    0 -0.40509690688E+02 -0.62445998413E+02 -0.26429623778E+03  0.27457792894E+03  0.00000000000E+00 0. -1.
         13    1    5    5    0    0 -0.25312365998E+02 -0.48557624953E+02  0.41255717580E+03  0.41617542229E+03  0.00000000000E+00 0. -1.
        -14    1    5    5    0    0  0.51373378008E+02 -0.30681849089E+02  0.34707546740E+03  0.35219593964E+03  0.00000000000E+00 0.  1.
          5    1    4    4  501    0  0.69273173846E+02  0.11937018878E+03 -0.20794371789E+03  0.24961185227E+03  0.41800000000E+01 0.  1.
         -5    1    4    4    0  501 -0.34750359300E+02  0.30257976963E+00 -0.26722841158E+02  0.44037048784E+02  0.41800000000E+01 0.  1.
</event>
<event>
11    1  0.6930157E-009  0.1628848E+03  0.7561462E-02  0.1084395E+00
         22   -1    0    0    0    0  0.00000000000E+00  0.00000000000E+00  0.43149572460E+03  0.43149572460E+03  0.00000000000E+00 0.  1.
         22   -1    0    0    0    0 -0.00000000000E+00 -0.00000000000E+00 -0.71976587945E+03  0.71976587945E+03  0.00000000000E+00 0.  1.
        -24    2    1    2    0    0  0.24356574755E+02  0.18810817749E+02 -0.64193214124E+03  0.64659297032E+03  0.71123172898E+02 0.  0.
         25    2    1    2    0    0 -0.12141318190E+03 -0.39667015714E+02  0.67414420505E+02  0.19106573764E+03  0.12508708619E+03 0.  0.
         24    2    1    2    0    0  0.97056607146E+02  0.20856197966E+02  0.28624756588E+03  0.31360289608E+03  0.80957652362E+02 0.  0.
        -13    1    5    5    0    0  0.95748834510E+02  0.30456674586E+02  0.28680709817E+03  0.30389761417E+03  0.00000000000E+00 0.  1.
         14    1    5    5    0    0  0.13077726368E+01 -0.96004766206E+01 -0.55953229341E+00  0.97052819124E+01  0.00000000000E+00 0. -1.
         11    1    3    3    0    0 -0.94280915011E+01 -0.21489060291E+02 -0.14507755326E+03  0.14696314192E+03  0.00000000000E+00 0. -1.
        -12    1    3    3    0    0  0.33784666256E+02  0.40299878040E+02 -0.49685458797E+03  0.49962982841E+03  0.00000000000E+00 0.  1.
          5    1    4    4  501    0 -0.10408104039E+03 -0.51267495280E+02 -0.43862611441E+01  0.11618059532E+03  0.41800000000E+01 0.  1.
         -5    1    4    4    0  501 -0.17332141511E+02  0.11600479566E+02  0.71800681649E+02  0.74885142323E+02  0.41800000000E+01 0.  1.
</event>
<event>
11    1  0.6930157E-009  0.1466807E+03  0.7561462E-02  0.1100320E+00
         22   -1    0    0    0    0  0.00000000000E+00  0.00000000000E+00  0.28870274785E+03  0.28870274785E+03  0.00000000000E+00 0.  1.
         22   -1    0    0    0    0 -0.00000000000E+00 -0.00000000000E+00 -0.23611655739E+03  0.23611655739E+03  0.00000000000E+00 0. -1.
         24    2    1    2    0    0 -0.70427789519E+02  0.40673280285E+01 -0.11306052319E+03  0.15567485560E+03  0.80469634451E+02 0.  0.
         25    2    1    2    0    0  0.13401722083E+03 -0.95911468489E+01  0.17776993791E+02  0.18443726588E+03  0.12509387659E+03 0.  0.
        -24    2    1    2    0    0 -0.63589431312E+02  0.55238188204E+01  0.14786971986E+03  0.18470718376E+03  0.90427658010E+02 0.  0.
        -11    1    3    3    0    0 -0.48946187314E+02 -0.37115021186E+01 -0.99775989855E+01  0.50090487940E+02  0.00000000000E+00 0.  1.
         12    1    3    3    0    0 -0.21481602205E+02  0.77788301471E+01 -0.10308292421E+03  0.10558436766E+03  0.00000000000E+00 0. -1.
         13    1    5    5    0    0 -0.47483537298E+02 -0.39379466585E+02  0.69204036928E+02  0.92707213473E+02  0.00000000000E+00 0. -1.
        -14    1    5    5    0    0 -0.16105894014E+02  0.44903285405E+02  0.78665682933E+02  0.91999970291E+02  0.00000000000E+00 0.  1.
          5    1    4    4  501    0 -0.23087421216E+02  0.64302958846E+01  0.99032025300E+01  0.26266395716E+02  0.41800000000E+01 0.  1.
         -5    1    4    4    0  501  0.15710464205E+03 -0.16021442733E+02  0.78737912611E+01  0.15817087017E+03  0.41800000000E+01 0.  1.
</event>
<event>
11    1  0.6930157E-009  0.1737431E+03  0.7561462E-02  0.1074819E+00
         22   -1    0    0    0    0  0.00000000000E+00  0.00000000000E+00  0.15514840900E+03  0.15514840900E+03  0.00000000000E+00 0.  1.
         22   -1    0    0    0    0 -0.00000000000E+00 -0.00000000000E+00 -0.63239834397E+03  0.63239834397E+03  0.00000000000E+00 0. -1.
         24    2    1    2    0    0  0.11680975305E+03 -0.46533687900E+01 -0.39445000761E+03  0.41899201156E+03  0.79355686630E+02 0.  0.
         25    2    1    2    0    0 -0.13334153900E+03 -0.35252618085E+02 -0.16056517329E+03  0.24586850076E+03  0.12508969457E+03 0.  0.
        -24    2    1    2    0    0  0.16531785955E+02  0.39905986875E+02  0.77765245924E+02  0.12268624065E+03  0.84490783142E+02 0.  0.
        -13    1    3    3    0    0  0.35677574320E+01 -0.14363379815E+02 -0.94352882170E+01  0.17551644839E+02  0.00000000000E+00 0.  1.
         14    1    3    3    0    0  0.11324199561E+03  0.97100110252E+01 -0.38501471939E+03  0.40144036672E+03  0.00000000000E+00 0. -1.
         11    1    5    5    0    0 -0.25483402689E+02 -0.45884934766E+01  0.29959664843E+01  0.26065952892E+02  0.00000000000E+00 0. -1.
        -12    1    5    5    0    0  0.42015188644E+02  0.44494480351E+02  0.74769279440E+02  0.96620287758E+02  0.00000000000E+00 0.  1.
          5    1    4    4  501    0 -0.29527926169E+02 -0.29795981380E+02 -0.13113596123E+03  0.13774545966E+03  0.41800000000E+01 0. -1.
         -5    1    4    4    0  501 -0.10381361283E+03 -0.54566367050E+01 -0.29429212058E+02  0.10812304110E+03  0.41800000000E+01 0. -1.
</event>
<event>
11    1  0.6930157E-009  0.1513127E+03  0.7561462E-02  0.1095545E+00
         22   -1    0    0    0    0  0.00000000000E+00  0.00000000000E+00  0.36950313650E+03  0.36950313650E+03  0.00000000000E+00 0. -1.
         22   -1    0    0    0    0 -0.00000000000E+00 -0.00000000000E+00 -0.35253756971E+03  0.35253756971E+03  0.00000000000E+00 0.  1.
        -24    2    1    2    0    0 -0.66813059659E+02 -0.57487156792E+02 -0.23534655038E+03  0.26372542460E+03  0.79964633853E+02 0.  0.
         25    2    1    2    0    0 -0.47349156806E+01  0.10290536396E+03 -0.20103063225E+02  0.16329121090E+03  0.12509177849E+03 0.  0.
         24    2    1    2    0    0  0.71547975339E+02 -0.45418207171E+02  0.27241518041E+03  0.29502407071E+03  0.75148156762E+02 0.  0.
        -11    1    5    5    0    0 -0.12216028068E+02  0.11183669633E+00  0.98726768641E+01  0.15707119331E+02  0.00000000000E+00 0.  1.
         12    1    5    5    0    0  0.83764003408E+02 -0.45530043868E+02  0.26254250354E+03  0.27931695138E+03  0.00000000000E+00 0. -1.
         13    1    3    3    0    0  0.15903055225E+02 -0.21638825049E+02 -0.76550037552E+02  0.81123696687E+02  0.00000000000E+00 0. -1.
        -14    1    3    3    0    0 -0.82716114883E+02 -0.35848331743E+02 -0.15879651283E+03  0.18260172791E+03  0.00000000000E+00 0.  1.
          5    1    4    4  501    0  0.15794235746E+02  0.59932067689E+02 -0.70406894550E+02  0.93893097832E+02  0.41800000000E+01 0. -1.
         -5    1    4    4    0  501 -0.20529151427E+02  0.42973296275E+02  0.50303831325E+02  0.69398113065E+02  0.41800000000E+01 0. -1.
</event>
<event>
11    1  0.6930157E-009  0.2091019E+03  0.7561462E-02  0.1048267E+00
         22   -1    0    0    0    0  0.00000000000E+00  0.00000000000E+00  0.13567371310E+04  0.13567371310E+04  0.00000000000E+00 0.  1.
         22   -1    0    0    0    0 -0.00000000000E+00 -0.00000000000E+00 -0.69303714456E+03  0.69303714456E+03  0.00000000000E+00 0. -1.
        -24    2    1    2    0    0 -0.98693091056E+02 -0.13665544229E+03 -0.64654837695E+03  0.67294163783E+03  0.80066272920E+02 0.  0.
         25    2    1    2    0    0  0.13259801883E+03  0.79850373088E+02  0.29214055438E+03  0.35348714637E+03  0.12509493378E+03 0.  0.
         24    2    1    2    0    0 -0.33904927777E+02  0.56805069206E+02  0.10181078091E+04  0.10233454914E+04  0.79474045503E+02 0.  0.
        -11    1    5    5    0    0 -0.50120201951E+02  0.49520712421E+02  0.95993439931E+03  0.96251669418E+03  0.00000000000E+00 0.  1.
         12    1    5    5    0    0  0.16215274174E+02  0.72843567846E+01  0.58173409742E+02  0.60828797221E+02  0.00000000000E+00 0. -1.
         11    1    3    3    0    0 -0.10415430336E+03 -0.13376220935E+03 -0.53490352541E+03  0.56112585847E+03  0.00000000000E+00 0. -1.
        -12    1    3    3    0    0  0.54612123045E+01 -0.28932329483E+01 -0.11164485154E+03  0.11181577936E+03  0.00000000000E+00 0.  1.
          5    1    4    4  501    0  0.10484634773E+01  0.56564757032E+02  0.13952445359E+03  0.15061612319E+03  0.41800000000E+01 0.  1.
         -5    1    4    4    0  501  0.13154955536E+03  0.23285616056E+02  0.15261610078E+03  0.20287102318E+03  0.41800000000E+01 0.  1.
</event>
<event>
11    1  0.6930157E-009  0.1931312E+03  0.7561462E-02  0.1059490E+00
         22   -1    0    0    0    0  0.00000000000E+00  0.00000000000E+00  0.45376544588E+03  0.45376544588E+03  0.00000000000E+00 0.  1.
         22   -1    0    0    0    0 -0.00000000000E+00 -0.00000000000E+00 -0.25962051830E+03  0.25962051830E+03  0.00000000000E+00 0.  1.
        -24    2    1    2    0    0  0.12565503229E+03  0.63299199016E+02 -0.13449236796E+03  0.21138858469E+03  0.82467938988E+02 0.  0.
         25    2    1    2    0    0 -0.12680440312E+03 -0.12977849191E+03  0.83517826520E+02  0.23567807144E+03  0.12508841833E+03 0.  0.
         24    2    1    2    0    0  0.11493708222E+01  0.66479292892E+02  0.24511946902E+03  0.26631930805E+03  0.80134900718E+02 0.  0.
        -11    1    5    5    0    0 -0.97563055199E+01  0.83316644332E+02  0.19136369043E+03  0.20894236223E+03  0.00000000000E+00 0.  1.
         12    1    5    5    0    0  0.10905676342E+02 -0.16837351440E+02  0.53755778594E+02  0.57376945826E+02  0.00000000000E+00 0. -1.
         11    1    3    3    0    0  0.31575413924E+02  0.21514168082E+02  0.44503634079E+01  0.38466503964E+02  0.00000000000E+00 0. -1.
        -12    1    3    3    0    0  0.94079618369E+02  0.41785030934E+02 -0.13894273137E+03  0.17292208072E+03  0.00000000000E+00 0.  1.
          5    1    4    4  501    0  0.14932289863E+02 -0.53967298149E+02  0.40494782936E+02  0.69229635237E+02  0.41800000000E+01 0.  1.
         -5    1    4    4    0  501 -0.14173669298E+03 -0.75811193759E+02  0.43023043584E+02  0.16644843620E+03  0.41800000000E+01 0.  1.
</event>
<event>
11    1  0.6930157E-009  0.1824376E+03  0.7561462E-02  0.1067688E+00
         22   -1    0    0    0    0  0.00000000000E+00  0.00000000000E+00  0.10580372276E+03  0.10580372276E+03  0.00000000000E+00 0.  1.
         22   -1    0    0    0    0 -0.00000000000E+00 -0.00000000000E+00 -0.41281183598E+04  0.41281183598E+04  0.00000000000E+00 0. -1.
        -24    2    1    2    0    0 -0.33524662791E+02  0.17837315091E+02 -0.30438544620E+04  0.30452458754E+04  0.83847376945E+02 0.  0.
         25    2    1    2    0    0  0.16162269561E+03 -0.43790343187E+02 -0.10102396780E+04  0.10316345020E+04  0.12508416692E+03 0.  0.
         24    2    1    2    0    0 -0.12809803282E+03  0.25953028096E+02  0.31779502925E+02  0.15704170525E+03  0.81052419464E+02 0.  0.
        -11    1    5    5    0    0 -0.11304402311E+03  0.51287799270E+02  0.22598389962E+02  0.12617478648E+03  0.00000000000E+00 0.  1.
         12    1    5    5    0    0 -0.15054009708E+02 -0.25334771174E+02  0.91811129627E+01  0.30866918764E+02  0.00000000000E+00 0. -1.
         13    1    3    3    0    0 -0.39495458170E+02  0.42471255173E+02 -0.14065427647E+04  0.14077379897E+04  0.00000000000E+00 0. -1.
        -14    1    3    3    0    0  0.59707953790E+01 -0.24633940082E+02 -0.16373116974E+04  0.16375078857E+04  0.00000000000E+00 0.  1.
          5    1    4    4  501    0  0.96833608260E+02 -0.78022851661E+02 -0.46037445576E+03  0.47689246690E+03  0.41800000000E+01 0.  1.
         -5    1    4    4    0  501  0.64789087350E+02  0.34232508474E+02 -0.54986522220E+03  0.55474203506E+03  0.41800000000E+01 0.  1.
</event>
<event>
11    1  0.6930157E-009  0.1400709E+03  0.7561462E-02  0.1107479E+00
         22   -1    0    0    0    0  0.00000000000E+00  0.00000000000E+00  0.41251850636E+03  0.41251850636E+03  0.00000000000E+00 0. -1.
         22   -1    0    0    0    0 -0.00000000000E+00 -0.00000000000E+00 -0.37445316647E+03  0.37445316647E+03  0.00000000000E+00 0.  1.
         24    2    1    2    0    0  0.13597412049E+02  0.31164221956E+02 -0.27880848448E+03  0.29186724639E+03  0.79348724981E+02 0.  0.
         25    2    1    2    0    0  0.42683044448E+02  0.21378408757E+01 -0.27682627059E+02  0.13505829307E+03  0.12509197432E+03 0.  0.
        -24    2    1    2    0    0 -0.56280456497E+02 -0.33302062832E+02  0.34455645143E+03  0.36004613337E+03  0.81471177494E+02 0.  0.
        -11    1    3    3    0    0  0.24724287793E+02 -0.57957024058E+00 -0.23662687660E+03  0.23791575197E+03  0.00000000000E+00 0.  1.
         12    1    3    3    0    0 -0.11126875744E+02  0.31743792197E+02 -0.42181607878E+02  0.53951494419E+02  0.00000000000E+00 0. -1.
         13    1    5    5    0    0 -0.34136592198E+02 -0.19620239130E+02  0.32528412951E+03  0.32765839776E+03  0.00000000000E+00 0. -1.
        -14    1    5    5    0    0 -0.22143864299E+02 -0.13681823702E+02  0.19272321914E+02  0.32387735609E+02  0.00000000000E+00 0.  1.
          5    1    4    4  501    0 -0.84438125958E+01 -0.37686056349E+02  0.29303673045E+02  0.48659166333E+02  0.41800000000E+01 0. -1.
         -5    1    4    4    0  501  0.51126857043E+02  0.39823897225E+02 -0.56986300104E+02  0.86399126737E+02  0.41800000000E+01 0. -1.
</event>
<event>
11    1  0.6930157E-009  0.2048708E+03  0.7561462E-02  0.1051132E+00
         22   -1    0    0    0    0  0.00000000000E+00  0.00000000000E+00  0.60497275336E+03  0.60497275336E+03  0.00000000000E+00 0.  1.
         22   -1    0    0    0    0 -0.00000000000E+00 -0.00000000000E+00 -0.41909541773E+03  0.41909541773E+03  0.00000000000E+00 0. -1.
        -24    2    1    2    0    0 -0.12577243784E+03  0.86734716033E+02 -0.25573609757E+03  0.31072309504E+03  0.88353115997E+02 0.  0.
         25    2    1    2    0    0  0.15898930620E+03 -0.12018154458E+03 -0.21973647806E+02  0.23632935189E+03  0.12509004047E+03 0.  0.
         24    2    1    2    0    0 -0.33216868362E+02  0.33446828551E+02  0.46358708100E+03  0.47701572416E+03  0.10202435370E+03 0.  0.
        -11    1    5    5    0    0  0.10123459314E+02  0.49753910994E+02  0.35982685959E+03  0.36339139364E+03  0.00000000000E+00 0.  1.
         12    1    5    5    0    0 -0.43340327676E+02 -0.16307082443E+02  0.10376022141E+03  0.11362433052E+03  0.00000000000E+00 0. -1.
         11    1    3    3    0    0 -0.85725002040E+02  0.78061309381E+02 -0.24053299314E+03  0.26701772373E+03  0.00000000000E+00 0. -1.
        -12    1    3    3    0    0 -0.40047435796E+02  0.86734066517E+01 -0.15203104424E+02  0.43705371305E+02  0.00000000000E+00 0.  1.
          5    1    4    4  501    0  0.12500609618E+03 -0.12481323882E+03 -0.58423068754E+02  0.18610641050E+03  0.41800000000E+01 0. -1.
         -5    1    4    4    0  501  0.33983210013E+02  0.46316942344E+01  0.36449420948E+02  0.50222941389E+02  0.41800000000E+01 0. -1.
</event>
<event>
11    1  0.6930157E-009  0.1322585E+03  0.7561462E-02  0.1116525E+00
         22   -1    0    0    0    0  0.00000000000E+00  0.00000000000E+00  0.20444289308E+04  0.20444289308E+04  0.00000000000E+00 0. -1.
         22   -1    0    0    0    0 -0.00000000000E+00 -0.00000000000E+00 -0.55723453393E+03  0.55723453393E+03  0.00000000000E+00 0.  1.
        -24    2    1    2    0    0 -0.28302407821E+02  0.32134911794E+02 -0.52358818193E+03  0.53118043962E+03  0.78577327060E+02 0.  0.
         25    2    1    2    0    0  0.48965573192E+02 -0.18489637208E+02  0.13007384774E+03  0.18791002221E+03  0.12510586133E+03 0.  0.
         24    2    1    2    0    0 -0.20663165371E+02 -0.13645274587E+02  0.18807087310E+04  0.18825730029E+04  0.80016374828E+02 0.  0.
        -13    1    5    5    0    0  0.27481607542E+01 -0.88976603392E+00  0.16529781671E+01  0.33281237878E+01  0.00000000000E+00 0.  1.
         14    1    5    5    0    0 -0.23411326125E+02 -0.12755508553E+02  0.18790557529E+04  0.18792448791E+04  0.00000000000E+00 0. -1.
         13    1    3    3    0    0 -0.19621102539E+02  0.34231569973E+02 -0.10006304916E+03  0.10756115402E+03  0.00000000000E+00 0. -1.
        -14    1    3    3    0    0 -0.86813052821E+01 -0.20966581791E+01 -0.42352513277E+03  0.42361928559E+03  0.00000000000E+00 0.  1.
          5    1    4    4  501    0 -0.95584451697E+01  0.93996676292E+01 -0.19966120208E+02  0.24409751776E+02  0.41800000000E+01 0.  1.
         -5    1    4    4    0  501  0.58524018361E+02 -0.27889304837E+02  0.15003996795E+03  0.16350027043E+03  0.41800000000E+01 0.  1.
</event>
<event>
11    1  0.6930157E-009  0.2519505E+03  0.7561462E-02  0.1022865E+00
         22   -1    0    0    0    0  0.00000000000E+00  0.00000000000E+00  0.60060858062E+03  0.60060858062E+03  0.00000000000E+00 0. -1.
         22   -1    0    0    0    0 -0.00000000000E+00 -0.00000000000E+00 -0.40708425155E+03  0.40708425155E+03  0.00000000000E+00 0.  1.
         24    2    1    2    0    0 -0.55549007121E+02 -0.23066834751E+03  0.22929537943E+02  0.25241501663E+03  0.83030104041E+02 0.  0.
         25    2    1    2    0    0 -0.11499155492E+03  0.20050149151E+03 -0.20543791592E+03  0.33357584348E+03  0.12507677743E+03 0.  0.
        -24    2    1    2    0    0  0.17054056204E+03  0.30166855996E+02  0.37603270706E+03  0.42170197206E+03  0.80236113823E+02 0.  0.
        -11    1    3    3    0    0 -0.75910001777E+02 -0.16735534885E+03  0.27214214198E+02  0.18577070440E+03  0.00000000000E+00 0.  1.
         12    1    3    3    0    0  0.20360994656E+02 -0.63312998654E+02 -0.42846762552E+01  0.66644312230E+02  0.00000000000E+00 0. -1.
         13    1    5    5    0    0  0.50867217174E+02  0.59058384571E+01  0.20660934706E+03  0.21286092878E+03  0.00000000000E+00 0. -1.
        -14    1    5    5    0    0  0.11967334487E+03  0.24261017539E+02  0.16942336000E+03  0.20884104328E+03  0.00000000000E+00 0.  1.
          5    1    4    4  501    0 -0.14134100275E+03  0.16047164555E+03 -0.15709845033E+03  0.26537864191E+03  0.41800000000E+01 0. -1.
         -5    1    4    4    0  501  0.26349447827E+02  0.40029845967E+02 -0.48339465592E+02  0.68197201575E+02  0.41800000000E+01 0. -1.
</event>
<event>
11    1  0.6930157E-009  0.1779035E+03  0.7561462E-02  0.1071351E+00
         22   -1    0    0    0    0  0.00000000000E+00  0.00000000000E+00  0.83043707545E+03  0.83043707545E+03  0.00000000000E+00 0.  1.
         22   -1    0    0    0    0 -0.00000000000E+00 -0.00000000000E+00 -0.37230567409E+03  0.37230567409E+03  0.00000000000E+00 0. -1.
         24    2    1    2    0    0  0.62241558290E+02  0.85218471927E+02 -0.11976389654E+03  0.17653458324E+03  0.75398067820E+02 0.  0.
         25    2    1    2    0    0 -0.11740862226E+03 -0.11303947384E+03 -0.17381609378E+03  0.26911373021E+03  0.12508980017E+03 0.  0.
        -24    2    1    2    0    0  0.55167063966E+02  0.27821001914E+02  0.75171139168E+03  0.75709443608E+03  0.65609112732E+02 0.  0.
        -13    1    3    3    0    0  0.63799414855E+02  0.69839743466E+02 -0.53881355262E+02  0.10886301276E+03  0.00000000000E+00 0.  1.
         14    1    3    3    0    0 -0.15578565648E+01  0.15378728460E+02 -0.65882541275E+02  0.67671570478E+02  0.00000000000E+00 0. -1.
         13    1    5    5    0    0  0.20014766697E+02  0.18168047689E+02  0.80962611819E+02  0.85355804461E+02  0.00000000000E+00 0. -1.
        -14    1    5    5    0    0  0.35152297269E+02  0.96529542252E+01  0.67074877986E+03  0.67173863162E+03  0.00000000000E+00 0.  1.
          5    1    4    4  501    0 -0.10637460320E+03 -0.15952645259E+02 -0.91972097486E+02  0.14158524716E+03  0.41800000000E+01 0. -1.
         -5    1    4    4    0  501 -0.11034019054E+02 -0.97086828582E+02 -0.81843996292E+02  0.12752848305E+03  0.41800000000E+01 0. -1.
</event>
<event>
11    1  0.6930157E-009  0.1274025E+03  0.7561462E-02  0.1122502E+00
         22   -1    0    0    0    0  0.00000000000E+00  0.00000000000E+00  0.72476416214E+03  0.72476416214E+03  0.00000000000E+00 0.  1.
         22   -1    0    0    0    0 -0.00000000000E+00 -0.00000000000E+00 -0.14664419011E+03  0.14664419011E+03  0.00000000000E+00 0. -1.
         24    2    1    2    0    0  0.39139229658E+01 -0.26237904939E+02 -0.60838423000E+02  0.10415592398E+03  0.80270768890E+02 0.  0.
         25    2    1    2    0    0 -0.59965378562E+01  0.16327982275E+02  0.32206940248E+01  0.12633438108E+03  0.12508973380E+03 0.  0.
        -24    2    1    2    0    0  0.20826148904E+01  0.99099226643E+01  0.63573770101E+03  0.64091804718E+03  0.80690612032E+02 0.  0.
        -13    1    3    3    0    0 -0.65775821705E+01  0.97336859924E+01  0.15304043031E+02  0.19293080711E+02  0.00000000000E+00 0.  1.
         14    1    3    3    0    0  0.10491505136E+02 -0.35971590932E+02 -0.76142466032E+02  0.84862843268E+02  0.00000000000E+00 0. -1.
         13    1    5    5    0    0 -0.13948378563E+02 -0.23840760348E+02  0.96165940402E+02  0.10005412141E+03  0.00000000000E+00 0. -1.
        -14    1    5    5    0    0  0.16030993454E+02  0.33750683013E+02  0.53957176060E+03  0.54086392577E+03  0.00000000000E+00 0.  1.
          5    1    4    4  501    0  0.33122669773E+02  0.26198083330E+02 -0.45979500700E+02  0.62570262167E+02  0.41800000000E+01 0.  1.
         -5    1    4    4    0  501 -0.39119207629E+02 -0.98701010547E+01  0.49200194725E+02  0.63764118917E+02  0.41800000000E+01 0.  1.
</event>
<event>
11    1  0.6930157E-009  0.1291820E+03  0.7561462E-02  0.1120278E+00
         22   -1    0    0    0    0  0.00000000000E+00  0.00000000000E+00  0.14553169950E+04  0.14553169950E+04  0.00000000000E+00 0. -1.
         22   -1    0    0    0    0 -0.00000000000E+00 -0.00000000000E+00 -0.21419195608E+03  0.21419195608E+03  0.00000000000E+00 0.  1.
         24    2    1    2    0    0  0.31138581397E+00 -0.33581780669E+02 -0.18472330390E+03  0.20515399083E+03  0.82689950998E+02 0.  0.
         25    2    1    2    0    0 -0.17176783138E+02  0.32344310536E+01  0.20724588166E+03  0.24269798505E+03  0.12508378416E+03 0.  0.
        -24    2    1    2    0    0  0.16865397324E+02  0.30347349615E+02  0.12186024612E+04  0.12216569752E+04  0.79046843349E+02 0.  0.
        -11    1    3    3    0    0  0.32475267673E+02 -0.35715464162E+02 -0.15088865566E+03  0.15842229577E+03  0.00000000000E+00 0.  1.
         12    1    3    3    0    0 -0.32163881859E+02  0.21336834933E+01 -0.33834648237E+02  0.46731695056E+02  0.00000000000E+00 0. -1.
         13    1    5    5    0    0  0.27777469028E+02  0.34026536400E+02  0.11901801642E+04  0.11909904350E+04  0.00000000000E+00 0. -1.
        -14    1    5    5    0    0 -0.10912071704E+02 -0.36791867853E+01  0.28422296988E+02  0.30666540241E+02  0.00000000000E+00 0.  1.
          5    1    4    4  501    0  0.16066781944E+02  0.36406503097E+02  0.18726188964E+03  0.19148906669E+03  0.41800000000E+01 0. -1.
         -5    1    4    4    0  501 -0.33243565081E+02 -0.33172072044E+02  0.19983992021E+02  0.51208918365E+02  0.41800000000E+01 0. -1.
</event>
<event>
11    1  0.6930157E-009  0.2186701E+03  0.7561462E-02  0.1042054E+00
         22   -1    0    0    0    0  0.00000000000E+00  0.00000000000E+00  0.43995494544E+03  0.43995494544E+03  0.00000000000E+00 0.  1.
         22   -1    0    0    0    0 -0.00000000000E+00 -0.00000000000E+00 -0.16134094268E+03  0.16134094268E+03  0.00000000000E+00 0. -1.
         24    2    1    2    0    0 -0.33743896433E+02  0.53730813618E+02  0.62540809515E+02  0.12640219990E+03  0.89668904342E+02 0.  0.
         25    2    1    2    0    0 -0.13991339966E+03  0.50218442348E+02  0.15569297504E+03  0.24896946594E+03  0.12509133118E+03 0.  0.
        -24    2    1    2    0    0  0.17365729609E+03 -0.10394925597E+03  0.60380218204E+02  0.22592422229E+03  0.80210218573E+02 0.  0.
        -11    1    3    3    0    0 -0.24230376766E+02 -0.10766707057E+02  0.54635242366E+02  0.60729258578E+02  0.00000000000E+00 0.  1.
         12    1    3    3    0    0 -0.95135196674E+01  0.64497520675E+02  0.79055671485E+01  0.65672941320E+02  0.00000000000E+00 0. -1.
         11    1    5    5    0    0  0.14701555339E+03 -0.11711498068E+03  0.50899431931E+02  0.19473120913E+03  0.00000000000E+00 0. -1.
        -12    1    5    5    0    0  0.26641742702E+02  0.13165724714E+02  0.94807862722E+01  0.31193013156E+02  0.00000000000E+00 0.  1.
          5    1    4    4  501    0 -0.88095694246E+02  0.12036139434E+02  0.16129404277E+03  0.18422529856E+03  0.41800000000E+01 0. -1.
         -5    1    4    4    0  501 -0.51817705414E+02  0.38182302914E+02 -0.56010677247E+01  0.64744167380E+02  0.41800000000E+01 0. -1.
</event>
<event>
11    1  0.6930157E-009  0.1571287E+03  0.7561462E-02  0.1089809E+00
         22   -1    0    0    0    0  0.00000000000E+00  0.00000000000E+00  0.15944238559E+04  0.15944238559E+04  0.00000000000E+00 0. -1.
         22   -1    0    0    0    0 -0.00000000000E+00 -0.00000000000E+00 -0.84569640361E+03  0.84569640361E+03  0.00000000000E+00 0.  1.
        -24    2    1    2    0    0  0.34400853930E+02  0.26341021123E+01 -0.79322090605E+03  0.79791441708E+03  0.79231647335E+02 0.  0.
         25    2    1    2    0    0  0.14208045936E+02  0.80286467416E+02  0.69925302189E+02  0.16487829906E+03  0.12509004834E+03 0.  0.
         24    2    1    2    0    0 -0.48608899866E+02 -0.82920569528E+02  0.14720230561E+04  0.14773275433E+04  0.80038406873E+02 0.  0.
        -11    1    5    5    0    0 -0.45804050967E+01  0.40925150732E+00  0.63477920729E+03  0.63479586452E+03  0.00000000000E+00 0.  1.
         12    1    5    5    0    0 -0.44028494769E+02 -0.83329821036E+02  0.83724384883E+03  0.84253167883E+03  0.00000000000E+00 0. -1.
         13    1    3    3    0    0  0.56509427808E+02 -0.97681988707E+01 -0.42956957449E+03  0.43338060924E+03  0.00000000000E+00 0. -1.
        -14    1    3    3    0    0 -0.22108573877E+02  0.12402300983E+02 -0.36365133156E+03  0.36453380784E+03  0.00000000000E+00 0.  1.
          5    1    4    4  501    0  0.59311227674E+02  0.37840932010E+01  0.36649378458E+02  0.69948484121E+02  0.41800000000E+01 0.  1.
         -5    1    4    4    0  501 -0.45103181738E+02  0.76502374215E+02  0.33275923731E+02  0.94929814935E+02  0.41800000000E+01 0.  1.
</event>
<event>
11    1  0.6930157E-009  0.1477065E+03  0.7561462E-02  0.1099246E+00
         22   -1    0    0    0    0  0.00000000000E+00  0.00000000000E+00  0.29378069018E+03  0.29378069018E+03  0.00000000000E+00 0.  1.
         22   -1    0    0    0    0 -0.00000000000E+00 -0.00000000000E+00 -0.53038695929E+03  0.53038695929E+03  0.00000000000E+00 0. -1.
         24    2    1    2    0    0 -0.72597506070E+02 -0.26722960613E+02 -0.44447547247E+03  0.45846486533E+03  0.81529581176E+02 0.  0.
         25    2    1    2    0    0  0.86779281484E+02  0.34138226684E+02  0.16684366229E+02  0.15691584049E+03  0.12509256854E+03 0.  0.
        -24    2    1    2    0    0 -0.14181775414E+02 -0.74152660713E+01  0.19118483712E+03  0.20878694365E+03  0.82366479640E+02 0.  0.
        -13    1    3    3    0    0  0.23180403315E+01 -0.35849322685E+02 -0.17324941073E+03  0.17693474946E+03  0.00000000000E+00 0.  1.
         14    1    3    3    0    0 -0.74915546402E+02  0.91263620725E+01 -0.27122606174E+03  0.28153011587E+03  0.00000000000E+00 0. -1.
         13    1    5    5    0    0 -0.39026843823E+02  0.22470687704E+02  0.10112273653E+03  0.11069703785E+03  0.00000000000E+00 0. -1.
        -14    1    5    5    0    0  0.24845068409E+02 -0.29885953776E+02  0.90062100588E+02  0.98089905799E+02  0.00000000000E+00 0.  1.
          5    1    4    4  501    0  0.11381634251E+03  0.45477335104E+02 -0.57540486278E+00  0.12263829468E+03  0.41800000000E+01 0. -1.
         -5    1    4    4    0  501 -0.27037061027E+02 -0.11339108420E+02  0.17259771091E+02  0.34277545812E+02  0.41800000000E+01 0. -1.
</event>
<event>
11    1  0.6930157E-009  0.1531681E+03  0.7561462E-02  0.1093685E+00
         22   -1    0    0    0    0  0.00000000000E+00  0.00000000000E+00  0.21429434958E+03  0.21429434958E+03  0.00000000000E+00 0.  1.
         22   -1    0    0    0    0 -0.00000000000E+00 -0.00000000000E+00 -0.80438425587E+03  0.80438425587E+03  0.00000000000E+00 0. -1.
        -24    2    1    2    0    0  0.56696634258E+02 -0.82133929921E+02 -0.65132942859E+03  0.66311375065E+03  0.74359471293E+02 0.  0.
         25    2    1    2    0    0 -0.35115569954E+01  0.29816569518E+02 -0.98024203195E+02  0.16173246644E+03  0.12508911798E+03 0.  0.
         24    2    1    2    0    0 -0.53185077263E+02  0.52317360403E+02  0.15926372549E+03  0.19383238836E+03  0.81488047453E+02 0.  0.
        -13    1    5    5    0    0 -0.47720831345E+02  0.71596462780E+02  0.14702607683E+03  0.17035257114E+03  0.00000000000E+00 0.  1.
         14    1    5    5    0    0 -0.54642459175E+01 -0.19279102377E+02  0.12237648664E+02  0.23479817221E+02  0.00000000000E+00 0. -1.
         13    1    3    3    0    0  0.28905183076E+02 -0.83264511176E+02 -0.36736376876E+03  0.37778913037E+03  0.00000000000E+00 0. -1.
        -14    1    3    3    0    0  0.27791451182E+02  0.11305812550E+01 -0.28396565983E+03  0.28532462028E+03  0.00000000000E+00 0.  1.
          5    1    4    4  501    0 -0.56612873840E+01  0.39537087843E+02  0.18848682720E+02  0.44361883754E+02  0.41800000000E+01 0. -1.
         -5    1    4    4    0  501  0.21497303886E+01 -0.97205183249E+01 -0.11687288591E+03  0.11737058268E+03  0.41800000000E+01 0. -1.
</event>
<event>
11    1  0.6930157E-009  0.2152926E+03  0.7561462E-02  0.1044207E+00
         22   -1    0    0    0    0  0.00000000000E+00  0.00000000000E+00  0.13140974516E+04  0.13140974516E+04  0.00000000000E+00 0.  1.
         22   -1    0    0    0    0 -0.00000000000E+00 -0.00000000000E+00 -0.27170395354E+03  0.27170395354E+03  0.00000000000E+00 0.  1.
         24    2    1    2    0    0 -0.13700424218E+03  0.27335903450E+02  0.37673962066E+02  0.16892277559E+03  0.87167440600E+02 0.  0.
         25    2    1    2    0    0  0.18967852053E+03 -0.60197838979E+02 -0.13493334653E+03  0.27102950351E+03  0.12509301658E+03 0.  0.
        -24    2    1    2    0    0 -0.52674278351E+02  0.32861935529E+02  0.11396528825E+04  0.11458491260E+04  0.10152359633E+03 0.  0.
        -13    1    3    3    0    0 -0.47607639057E+02  0.32070574181E+02 -0.21847690729E+02  0.61419301649E+02  0.00000000000E+00 0.  1.
         14    1    3    3    0    0 -0.89396603126E+02 -0.47346707313E+01  0.59521652794E+02  0.10750347394E+03  0.00000000000E+00 0. -1.
         13    1    5    5    0    0  0.15401205628E+00  0.42845385725E+02  0.19426587575E+03  0.19893461558E+03  0.00000000000E+00 0. -1.
        -14    1    5    5    0    0 -0.52828290408E+02 -0.99834501954E+01  0.94538700677E+03  0.94691451046E+03  0.00000000000E+00 0.  1.
          5    1    4    4  501    0  0.20501426062E+03 -0.66150591650E+02 -0.11300268423E+03  0.24329781519E+03  0.41800000000E+01 0.  1.
         -5    1    4    4    0  501 -0.15335740081E+02  0.59527526707E+01 -0.21930662302E+02  0.27731688322E+02  0.41800000000E+01 0.  1.
</event>
<event>
11    1  0.6930157E-009  0.1766040E+03  0.7561462E-02  0.1072423E+00
         22   -1    0    0    0    0  0.00000000000E+00  0.00000000000E+00  0.72770237218E+03  0.72770237218E+03  0.00000000000E+00 0.  1.
         22   -1    0    0    0    0 -0.00000000000E+00 -0.00000000000E+00 -0.20124363204E+03  0.20124363204E+03  0.00000000000E+00 0. -1.
        -24    2    1    2    0    0 -0.17585550257E+02  0.62879591061E+02 -0.13594554452E+03  0.17104776045E+03  0.80703474092E+02 0.  0.
         25    2    1    2    0    0  0.94847016641E+02  0.46750617731E+02  0.15002182005E+03  0.22213457056E+03  0.12512251644E+03 0.  0.
         24    2    1    2    0    0 -0.77261466384E+02 -0.10963020879E+03  0.51238246461E+03  0.53576367321E+03  0.80739126997E+02 0.  0.
        -13    1    5    5    0    0 -0.60173259855E+02 -0.42721933798E+02  0.37279049197E+03  0.38002465148E+03  0.00000000000E+00 0.  1.
         14    1    5    5    0    0 -0.17088206529E+02 -0.66908274994E+02  0.13959197263E+03  0.15573902173E+03  0.00000000000E+00 0. -1.
         11    1    3    3    0    0 -0.42132586581E+02  0.65919187121E+02 -0.93414491694E+02  0.12184728697E+03  0.00000000000E+00 0. -1.
        -12    1    3    3    0    0  0.24547036325E+02 -0.30395960602E+01 -0.42531052828E+02  0.49200473485E+02  0.00000000000E+00 0.  1.
          5    1    4    4  501    0  0.15142685519E+02 -0.64645564900E+01  0.12060845808E+03  0.12179886689E+03  0.41800000000E+01 0. -1.
         -5    1    4    4    0  501  0.79704331122E+02  0.53215174221E+02  0.29413361970E+02  0.10033570366E+03  0.41800000000E+01 0. -1.
</event>
<event>
11    1  0.6930157E-009  0.1508243E+03  0.7561462E-02  0.1096039E+00
         22   -1    0    0    0    0  0.00000000000E+00  0.00000000000E+00  0.14519322686E+03  0.14519322686E+03  0.00000000000E+00 0.  1.
         22   -1    0    0    0    0 -0.00000000000E+00 -0.00000000000E+00 -0.48392102128E+03  0.48392102128E+03  0.00000000000E+00 0.  1.
        -24    2    1    2    0    0 -0.36234460584E+02  0.76706871084E+01 -0.23818952372E+03  0.25410817776E+03  0.80404858182E+02 0.  0.
         25    2    1    2    0    0  0.76183423076E+02 -0.77707786508E+02 -0.16976051663E+03  0.23729252145E+03  0.12508674467E+03 0.  0.
         24    2    1    2    0    0 -0.39948962492E+02  0.70037099399E+02  0.69222245931E+02  0.13771354893E+03  0.87591023120E+02 0.  0.
        -11    1    5    5    0    0 -0.66371716091E+02  0.41809788430E+02  0.57668412853E+02  0.97359688508E+02  0.00000000000E+00 0.  1.
         12    1    5    5    0    0  0.26422753599E+02  0.28227310969E+02  0.11553833078E+02  0.40353860424E+02  0.00000000000E+00 0. -1.
         11    1    3    3    0    0  0.94917662648E+01 -0.27235837284E+02 -0.55079367747E+02  0.62174120105E+02  0.00000000000E+00 0. -1.
        -12    1    3    3    0    0 -0.45726226849E+02  0.34906524393E+02 -0.18311015597E+03  0.19193405765E+03  0.00000000000E+00 0.  1.
          5    1    4    4  501    0  0.84899097454E+01  0.18799402573E+02 -0.95760789140E+02  0.98046403510E+02  0.41800000000E+01 0. -1.
         -5    1    4    4    0  501  0.67693513331E+02 -0.96507189080E+02 -0.73999727494E+02  0.13924611794E+03  0.41800000000E+01 0. -1.
</event>
<event>
11    1  0.6930157E-009  0.1372420E+03  0.7561462E-02  0.1110678E+00
         22   -1    0    0    0    0  0.00000000000E+00  0.00000000000E+00  0.10923674809E+04  0.10923674809E+04  0.00000000000E+00 0. -1.
         22   -1    0    0    0    0 -0.00000000000E+00 -0.00000000000E+00 -0.20155325642E+03  0.20155325642E+03  0.00000000000E+00 0. -1.
        -24    2    1    2    0    0  0.61743645128E+01  0.56930203478E+02 -0.16190064612E+03  0.18989668468E+03  0.81054060947E+02 0.  0.
         25    2    1    2    0    0  0.32823535651E+02 -0.47780979070E+02  0.18028116171E+03  0.22695647579E+03  0.12509012023E+03 0.  0.
         24    2    1    2    0    0 -0.38997900164E+02 -0.91492244075E+01  0.87243370886E+03  0.87706757682E+03  0.80637543525E+02 0.  0.
        -13    1    5    5    0    0  0.16706162415E+01  0.30395098053E+02  0.20783206089E+03  0.21004956196E+03  0.00000000000E+00 0.  1.
         14    1    5    5    0    0 -0.40668516405E+02 -0.39544322461E+02  0.66460164797E+03  0.66701801487E+03  0.00000000000E+00 0. -1.
         13    1    3    3    0    0 -0.29830418754E+02  0.90283985740E+01 -0.95485981119E+02  0.10044370789E+03  0.00000000000E+00 0. -1.
        -14    1    3    3    0    0  0.36004783267E+02  0.47901804904E+02 -0.66414664997E+02  0.89452976797E+02  0.00000000000E+00 0.  1.
          5    1    4    4  501    0  0.78541825152E+02 -0.13669531683E+02  0.11720810105E+03  0.14181285466E+03  0.41800000000E+01 0.  1.
         -5    1    4    4    0  501 -0.45718289501E+02 -0.34111447388E+02  0.63073060668E+02  0.85143621133E+02  0.41800000000E+01 0.  1.
</event>
<event>
11    1  0.6930157E-009  0.1378714E+03  0.7561462E-02  0.1109959E+00
         22   -1    0    0    0    0  0.00000000000E+00  0.00000000000E+00  0.18143098117E+03  0.18143098117E+03  0.00000000000E+00 0.  1.
         22   -1    0    0    0    0 -0.00000000000E+00 -0.00000000000E+00 -0.16070896350E+04  0.16070896350E+04  0.00000000000E+00 0.  1.
        -24    2    1    2    0    0  0.16359710347E+01  0.14886821046E+02 -0.88038899859E+03  0.88407025576E+03  0.79190494644E+02 0.  0.
         25    2    1    2    0    0 -0.18038148661E+02  0.40993556081E+02 -0.70506788039E+03  0.71747720106E+03  0.12508785568E+03 0.  0.
         24    2    1    2    0    0  0.16402177626E+02 -0.55880377127E+02  0.15979822520E+03  0.18697315929E+03  0.77664931224E+02 0.  0.
        -13    1    5    5    0    0  0.18101117630E+02 -0.66288935131E+02  0.16220127916E+03  0.17615654498E+03  0.00000000000E+00 0.  1.
         14    1    5    5    0    0 -0.16989400036E+01  0.10408558004E+02 -0.24030539592E+01  0.10816614313E+02  0.00000000000E+00 0. -1.
         11    1    3    3    0    0  0.16537480435E+02  0.18702648477E+02 -0.86460405260E+02  0.89992660795E+02  0.00000000000E+00 0. -1.
        -12    1    3    3    0    0 -0.14901509401E+02 -0.38158274313E+01 -0.79392859333E+03  0.79407759497E+03  0.00000000000E+00 0.  1.
          5    1    4    4  501    0  0.23379089046E+02 -0.21774763573E+02 -0.60693727135E+02  0.68716250238E+02  0.41800000000E+01 0. -1.
         -5    1    4    4    0  501 -0.41417237707E+02  0.62768319654E+02 -0.64437415326E+03  0.64876095083E+03  0.41800000000E+01 0. -1.
</event>
<event>
11    1  0.6930157E-009  0.1393655E+03  0.7561462E-02  0.1108269E+00
         22   -1    0    0    0    0  0.00000000000E+00  0.00000000000E+00  0.12505111147E+03  0.12505111147E+03  0.00000000000E+00 0. -1.
         22   -1    0    0    0    0 -0.00000000000E+00 -0.00000000000E+00 -0.42975296098E+03  0.42975296098E+03  0.00000000000E+00 0.  1.
         24    2    1    2    0    0 -0.59434409349E+02 -0.11344554198E+02 -0.26794536978E+03  0.28517442127E+03  0.76606667044E+02 0.  0.
         25    2    1    2    0    0  0.68760794626E+02 -0.15482798675E+02 -0.88141589655E+02  0.16847805663E+03  0.12509257295E+03 0.  0.
        -24    2    1    2    0    0 -0.93263852766E+01  0.26827352873E+02  0.51385109935E+02  0.10115159454E+03  0.82368241640E+02 0.  0.
        -13    1    3    3    0    0 -0.29664202408E+02 -0.15518842322E+02 -0.24520719273E+03  0.24748205337E+03  0.00000000000E+00 0.  1.
         14    1    3    3    0    0 -0.29770206942E+02  0.41742881239E+01 -0.22738177050E+02  0.37692367904E+02  0.00000000000E+00 0. -1.
         11    1    5    5    0    0 -0.19773705095E+02  0.27086674091E+02  0.71226238626E+02  0.78726516468E+02  0.00000000000E+00 0. -1.
        -12    1    5    5    0    0  0.10447319819E+02 -0.25932121729E+00 -0.19841128691E+02  0.22425078074E+02  0.00000000000E+00 0.  1.
          5    1    4    4  501    0  0.42356139087E+02  0.25867064814E+02  0.16796807897E+02  0.52561894143E+02  0.41800000000E+01 0. -1.
         -5    1    4    4    0  501  0.26404655539E+02 -0.41349863489E+02 -0.10493839755E+03  0.11591616249E+03  0.41800000000E+01 0. -1.
</event>
<event>
11    1  0.6930157E-009  0.1819209E+03  0.7561462E-02  0.1068100E+00
         22   -1    0    0    0    0  0.00000000000E+00  0.00000000000E+00  0.36022976824E+03  0.36022976824E+03  0.00000000000E+00 0.  1.
         22   -1    0    0    0    0 -0.00000000000E+00 -0.00000000000E+00 -0.96703700442E+03  0.96703700442E+03  0.00000000000E+00 0. -1.
         24    2    1    2    0    0 -0.43899285144E+02 -0.12498900715E+03 -0.89469510779E+03  0.90858064810E+03  0.86545127318E+02 0.  0.
         25    2    1    2    0    0  0.50231793257E+02  0.11436523757E+03  0.77148468115E+02  0.19287994575E+03  0.12509255262E+03 0.  0.
        -24    2    1    2    0    0 -0.63325081133E+01  0.10623769576E+02  0.21073940350E+03  0.22580617882E+03  0.80152161968E+02 0.  0.
        -11    1    3    3    0    0 -0.46865637227E+01 -0.87783085242E+00 -0.31416501599E+00  0.47784062395E+01  0.00000000000E+00 0.  1.
         12    1    3    3    0    0 -0.39212721421E+02 -0.12411117629E+03 -0.89438094277E+03  0.90380224186E+03  0.00000000000E+00 0. -1.
         11    1    5    5    0    0 -0.63220869535E+01  0.20145516535E+02  0.75949086081E+01  0.22438655412E+02  0.00000000000E+00 0. -1.
        -12    1    5    5    0    0 -0.10421159895E-01 -0.95217469588E+01  0.20314449489E+03  0.20336752341E+03  0.00000000000E+00 0.  1.
          5    1    4    4  501    0 -0.15533948441E+02  0.10687789380E+03  0.62872529840E+02  0.12503845467E+03  0.41800000000E+01 0.  1.
         -5    1    4    4    0  501  0.65765741698E+02  0.74873437671E+01  0.14275938275E+02  0.67841491076E+02  0.41800000000E+01 0.  1.
</event>
<event>
11    1  0.6930157E-009  0.1590697E+03  0.7561462E-02  0.1087956E+00
         22   -1    0    0    0    0  0.00000000000E+00  0.00000000000E+00  0.49603413836E+03  0.49603413836E+03  0.00000000000E+00 0.  1.
         22   -1    0    0    0    0 -0.00000000000E+00 -0.00000000000E+00 -0.10189918934E+04  0.10189918934E+04  0.00000000000E+00 0. -1.
        -24    2    1    2    0    0 -0.47963121399E+02 -0.81417809467E+02 -0.80248256990E+03  0.81198646029E+03  0.80090049299E+02 0.  0.
         25    2    1    2    0    0  0.26787970582E+02  0.13577789326E+03 -0.16435797597E+03  0.24862502435E+03  0.12509047446E+03 0.  0.
         24    2    1    2    0    0  0.21175150817E+02 -0.54360083793E+02  0.44388279080E+03  0.45441454715E+03  0.77828291585E+02 0.  0.
        -11    1    5    5    0    0 -0.28837352940E+02 -0.29162632175E+02  0.17169247677E+03  0.17652296910E+03  0.00000000000E+00 0.  1.
         12    1    5    5    0    0  0.50012503757E+02 -0.25197451618E+02  0.27219031403E+03  0.27789157805E+03  0.00000000000E+00 0. -1.
         13    1    3    3    0    0  0.14624492429E+02 -0.26704003775E+02 -0.39140551499E+03  0.39258789686E+03  0.00000000000E+00 0. -1.
        -14    1    3    3    0    0 -0.62587613829E+02 -0.54713805692E+02 -0.41107705491E+03  0.41939856344E+03  0.00000000000E+00 0.  1.
          5    1    4    4  501    0 -0.19460649788E+02  0.23407195074E+02 -0.11218439390E+03  0.11631605351E+03  0.41800000000E+01 0.  1.
         -5    1    4    4    0  501  0.46248620370E+02  0.11237069819E+03 -0.52173582078E+02  0.13230897084E+03  0.41800000000E+01 0.  1.
</event>
<event>
11    1  0.6930157E-009  0.1479058E+03  0.7561462E-02  0.1099038E+00
         22   -1    0    0    0    0  0.00000000000E+00  0.00000000000E+00  0.15329691564E+04  0.15329691564E+04  0.00000000000E+00 0.  1.
         22   -1    0    0    0    0 -0.00000000000E+00 -0.00000000000E+00 -0.27380656614E+03  0.27380656614E+03  0.00000000000E+00 0. -1.
        -24    2    1    2    0    0 -0.27052650396E+02  0.72519909798E+02 -0.23409321078E+03  0.25897983871E+03  0.79246087065E+02 0.  0.
         25    2    1    2    0    0  0.83278089780E+02 -0.92584865675E+02  0.28153750708E+03  0.33229260215E+03  0.12509119857E+03 0.  0.
         24    2    1    2    0    0 -0.56225439383E+02  0.20064955878E+02  0.12117182940E+04  0.12155032817E+04  0.74987341185E+02 0.  0.
        -11    1    5    5    0    0 -0.43195271793E+02 -0.61102159061E+00  0.11118214154E+04  0.11126603545E+04  0.00000000000E+00 0.  1.
         12    1    5    5    0    0 -0.13030167590E+02  0.20675977468E+02  0.99896878633E+02  0.10284292719E+03  0.00000000000E+00 0. -1.
         13    1    3    3    0    0 -0.50924542114E+02  0.43827406086E+02 -0.18814832943E+03  0.19978474512E+03  0.00000000000E+00 0. -1.
        -14    1    3    3    0    0  0.23871891718E+02  0.28692503711E+02 -0.45944881348E+02  0.59195093593E+02  0.00000000000E+00 0.  1.
          5    1    4    4  501    0  0.76225006191E+02 -0.89915491731E+01  0.20392132702E+03  0.21792769337E+03  0.41800000000E+01 0. -1.
         -5    1    4    4    0  501  0.70530835888E+01 -0.83593316502E+02  0.77616180060E+02  0.11436490877E+03  0.41800000000E+01 0. -1.
</event>
<event>
11    1  0.6930157E-009  0.3346274E+03  0.7561462E-02  0.9865154E-01
         22   -1    0    0    0    0  0.00000000000E+00  0.00000000000E+00  0.42720027088E+03  0.42720027088E+03  0.00000000000E+00 0. -1.
         22   -1    0    0    0    0 -0.00000000000E+00 -0.00000000000E+00 -0.38872576535E+03  0.38872576535E+03  0.00000000000E+00 0. -1.
        -24    2    1    2    0    0 -0.12464927767E+03  0.23565586284E+02 -0.30283027279E+03  0.33794648750E+03  0.80055449645E+02 0.  0.
         25    2    1    2    0    0 -0.40913560320E+00 -0.16198294098E+02  0.25301635494E+02  0.12864779099E+03  0.12509008451E+03 0.  0.
         24    2    1    2    0    0  0.12505841327E+03 -0.73672921858E+01  0.31600314282E+03  0.34933175773E+03  0.80503459304E+02 0.  0.
        -13    1    5    5    0    0  0.19088956300E+02 -0.20566653643E+02  0.19462607653E+02  0.34149210699E+02  0.00000000000E+00 0.  1.
         14    1    5    5    0    0  0.10596945697E+03  0.13199361457E+02  0.29654053517E+03  0.31518254703E+03  0.00000000000E+00 0. -1.
         11    1    3    3    0    0 -0.65219769941E+02  0.28042372397E+02 -0.24432971378E+03  0.25443467153E+03  0.00000000000E+00 0. -1.
        -12    1    3    3    0    0 -0.59429507729E+02 -0.44767861131E+01 -0.58500559008E+02  0.83511815973E+02  0.00000000000E+00 0.  1.
          5    1    4    4  501    0  0.54909013788E+02 -0.30505591541E+02  0.32601124865E+02  0.70893558614E+02  0.41800000000E+01 0. -1.
         -5    1    4    4    0  501 -0.55318149391E+02  0.14307297443E+02 -0.72994893710E+01  0.57754232375E+02  0.41800000000E+01 0. -1.
</event>
<event>
11    1  0.6930157E-009  0.1335726E+03  0.7561462E-02  0.1114956E+00
         22   -1    0    0    0    0  0.00000000000E+00  0.00000000000E+00  0.86115879374E+03  0.86115879374E+03  0.00000000000E+00 0. -1.
         22   -1    0    0    0    0 -0.00000000000E+00 -0.00000000000E+00 -0.20155926756E+03  0.20155926756E+03  0.00000000000E+00 0.  1.
         24    2    1    2    0    0  0.11174984672E+02 -0.47988953277E+02 -0.14627492892E+03  0.18317019816E+03  0.98626298446E+02 0.  0.
         25    2    1    2    0    0  0.16746823121E+02  0.34300619357E+02  0.90580525226E+02  0.15908832945E+03  0.12508907404E+03 0.  0.
        -24    2    1    2    0    0 -0.27921807792E+02  0.13688333921E+02  0.71529392988E+03  0.72045953370E+03  0.80309001642E+02 0.  0.
        -13    1    3    3    0    0 -0.38462174184E+02  0.27864082933E+01 -0.61451565186E+02  0.72549278273E+02  0.00000000000E+00 0.  1.
         14    1    3    3    0    0  0.49637158856E+02 -0.50775361571E+02 -0.84823363731E+02  0.11062091989E+03  0.00000000000E+00 0. -1.
         11    1    5    5    0    0 -0.36275755553E+02 -0.16717764667E+01  0.68098051579E+03  0.68194808318E+03  0.00000000000E+00 0. -1.
        -12    1    5    5    0    0  0.83539477605E+01  0.15360110388E+02  0.34313414089E+02  0.38511450515E+02  0.00000000000E+00 0.  1.
          5    1    4    4  501    0  0.10739447293E+02 -0.28245530023E+02  0.91143190373E+02  0.96112950459E+02  0.41800000000E+01 0.  1.
         -5    1    4    4    0  501  0.60073758276E+01  0.62546149380E+02 -0.56266514730E+00  0.62975378988E+02  0.41800000000E+01 0.  1.
</event>
<event>
11    1  0.6930157E-009  0.1513554E+03  0.7561462E-02  0.1095502E+00
         22   -1    0    0    0    0  0.00000000000E+00  0.00000000000E+00  0.84684200334E+03  0.84684200334E+03  0.00000000000E+00 0. -1.
         22   -1    0    0    0    0 -0.00000000000E+00 -0.00000000000E+00 -0.11497777867E+03  0.11497777867E+03  0.00000000000E+00 0. -1.
        -24    2    1    2    0    0  0.73967579607E+02 -0.38067663440E+02  0.75458278250E+01  0.11668772728E+03  0.81478441001E+02 0.  0.
         25    2    1    2    0    0 -0.68244400487E+02  0.58704905680E+02  0.45270145374E+02  0.16063449951E+03  0.12510192733E+03 0.  0.
         24    2    1    2    0    0 -0.57231791197E+01 -0.20637242240E+02  0.67904825147E+03  0.68449755522E+03  0.83496854605E+02 0.  0.
        -13    1    5    5    0    0  0.16263604336E+02 -0.10009491405E+02  0.34069841800E+02  0.39056995078E+02  0.00000000000E+00 0.  1.
         14    1    5    5    0    0 -0.21986783456E+02 -0.10627750834E+02  0.64497840967E+03  0.64544056014E+03  0.00000000000E+00 0. -1.
         13    1    3    3    0    0  0.86544716376E+02 -0.13167891247E+02  0.12263926420E+02  0.88395617447E+02  0.00000000000E+00 0. -1.
        -14    1    3    3    0    0 -0.12577136769E+02 -0.24899772193E+02 -0.47180985954E+01  0.28292109835E+02  0.00000000000E+00 0.  1.
          5    1    4    4  501    0  0.36680637251E+02  0.19998822828E+02  0.16220179939E+02  0.45010984225E+02  0.41800000000E+01 0. -1.
         -5    1    4    4    0  501 -0.10492503774E+03  0.38706082852E+02  0.29049965436E+02  0.11562351528E+03  0.41800000000E+01 0. -1.
</event>
<event>
11    1  0.6930157E-009  0.1453877E+03  0.7561462E-02  0.1101687E+00
         22   -1    0    0    0    0  0.00000000000E+00  0.00000000000E+00  0.12550951217E+04  0.12550951217E+04  0.00000000000E+00 0.  1.
         22   -1    0    0    0    0 -0.00000000000E+00 -0.00000000000E+00 -0.76028023057E+02  0.76028023057E+02  0.00000000000E+00 0.  1.
         24    2    1    2    0    0  0.28220658188E+02  0.14524212773E+02  0.29986869563E+02  0.94095664913E+02  0.83351205774E+02 0.  0.
         25    2    1    2    0    0 -0.76212493677E+02 -0.68424516540E+02  0.11776210128E+03  0.20001591544E+03  0.12509274670E+03 0.  0.
        -24    2    1    2    0    0  0.47991835489E+02  0.53900303767E+02  0.10313181278E+04  0.10370115644E+04  0.81039773869E+02 0.  0.
        -13    1    3    3    0    0 -0.50084464569E+01  0.18130420069E+02 -0.24065301005E+02  0.30543990902E+02  0.00000000000E+00 0.  1.
         14    1    3    3    0    0  0.33229104645E+02 -0.36062072957E+01  0.54052170567E+02  0.63551674011E+02  0.00000000000E+00 0. -1.
         11    1    5    5    0    0 -0.21800805692E+02  0.53614388513E+01  0.28018092809E+03  0.28107894375E+03  0.00000000000E+00 0. -1.
        -12    1    5    5    0    0  0.69792641181E+02  0.48538864915E+02  0.75113719975E+03  0.75593262068E+03  0.00000000000E+00 0.  1.
          5    1    4    4  501    0 -0.16277422699E+02 -0.72262365170E+02  0.77321872576E+01  0.74592647288E+02  0.41800000000E+01 0. -1.
         -5    1    4    4    0  501 -0.59935070978E+02  0.38378486304E+01  0.11002991402E+03  0.12542326816E+03  0.41800000000E+01 0. -1.
</event>
<event>
11    1  0.6930157E-009  0.1386389E+03  0.7561462E-02  0.1109088E+00
         22   -1    0    0    0    0  0.00000000000E+00  0.00000000000E+00  0.93867992063E+03  0.93867992063E+03  0.00000000000E+00 0.  1.
         22   -1    0    0    0    0 -0.00000000000E+00 -0.00000000000E+00 -0.41167395677E+02  0.41167395677E+02  0.00000000000E+00 0. -1.
        -24    2    1    2    0    0  0.23960318952E+02 -0.25715179513E+01  0.91873479595E+02  0.12459202714E+03  0.80633289557E+02 0.  0.
         25    2    1    2    0    0  0.27964750002E+02  0.38023909578E+02  0.19706082951E+03  0.23813498665E+03  0.12508979333E+03 0.  0.
         24    2    1    2    0    0 -0.51925068954E+02 -0.35452391627E+02  0.60857821585E+03  0.61712030252E+03  0.80727554921E+02 0.  0.
        -11    1    5    5    0    0 -0.50621137200E+02  0.14214451335E+02  0.30231610328E+03  0.30685432449E+03  0.00000000000E+00 0.  1.
         12    1    5    5    0    0 -0.13039317545E+01 -0.49666842963E+02  0.30626211257E+03  0.31026597803E+03  0.00000000000E+00 0. -1.
         11    1    3    3    0    0  0.39375215333E+01 -0.13215748651E+02 -0.11995178514E+02  0.18276881458E+02  0.00000000000E+00 0. -1.
        -12    1    3    3    0    0  0.20022797419E+02  0.10644230700E+02  0.10386865811E+03  0.10631514568E+03  0.00000000000E+00 0.  1.
          5    1    4    4  501    0  0.71713433930E+02  0.47034267696E+02  0.15184190197E+03  0.17443759496E+03  0.41800000000E+01 0.  1.
         -5    1    4    4    0  501 -0.43748683928E+02 -0.90103581172E+01  0.45218927545E+02  0.63697391682E+02  0.41800000000E+01 0.  1.
</event>
<event>
11    1  0.6930157E-009  0.2358377E+03  0.7561462E-02  0.1031726E+00
         22   -1    0    0    0    0  0.00000000000E+00  0.00000000000E+00  0.11938108110E+04  0.11938108110E+04  0.00000000000E+00 0. -1.
         22   -1    0    0    0    0 -0.00000000000E+00 -0.00000000000E+00 -0.55336141325E+03  0.55336141325E+03  0.00000000000E+00 0.  1.
        -24    2    1    2    0    0  0.15518041595E+03  0.12840764648E+03 -0.43822053304E+03  0.48885169492E+03  0.79807636755E+02 0.  0.
         25    2    1    2    0    0 -0.17874200942E+03 -0.81824289395E+02  0.67775408962E+02  0.24266422428E+03  0.12509396236E+03 0.  0.
         24    2    1    2    0    0  0.23561593477E+02 -0.46583357084E+02  0.10108945218E+04  0.10156563050E+04  0.83215610797E+02 0.  0.
        -13    1    5    5    0    0 -0.13115229072E+02 -0.43366381038E+02  0.26434186823E+03  0.26819633766E+03  0.00000000000E+00 0.  1.
         14    1    5    5    0    0  0.36676822548E+02 -0.32169760457E+01  0.74655265359E+03  0.74745996737E+03  0.00000000000E+00 0. -1.
         11    1    3    3    0    0  0.83037637854E+02  0.11252971602E+03 -0.24675378574E+03  0.28362936566E+03  0.00000000000E+00 0. -1.
        -12    1    3    3    0    0  0.72142778092E+02  0.15877930459E+02 -0.19146674730E+03  0.20522232927E+03  0.00000000000E+00 0.  1.
          5    1    4    4  501    0 -0.10981850956E+03 -0.16141587053E+02  0.92117370896E+02  0.14430432529E+03  0.41800000000E+01 0.  1.
         -5    1    4    4    0  501 -0.68923499859E+02 -0.65682702342E+02 -0.24341961934E+02  0.98359898996E+02  0.41800000000E+01 0.  1.
</event>
<event>
11    1  0.6930157E-009  0.1815159E+03  0.7561462E-02  0.1068423E+00
         22   -1    0    0    0    0  0.00000000000E+00  0.00000000000E+00  0.26365977120E+04  0.26365977120E+04  0.00000000000E+00 0. -1.
         22   -1    0    0    0    0 -0.00000000000E+00 -0.00000000000E+00 -0.16348853592E+03  0.16348853592E+03  0.00000000000E+00 0.  1.
        -24    2    1    2    0    0  0.36951692002E+02 -0.26009312853E+02 -0.11293293919E+03  0.14672704287E+03  0.82055252478E+02 0.  0.
         25    2    1    2    0    0 -0.51402098045E+02 -0.10635909739E+03  0.20684597138E+03  0.26904951939E+03  0.12509178522E+03 0.  0.
         24    2    1    2    0    0  0.14450406043E+02  0.13236841025E+03  0.23791961439E+04  0.23843096856E+04  0.81413609228E+02 0.  0.
        -11    1    5    5    0    0 -0.86290149646E+01  0.58881697831E+02  0.49894010647E+03  0.50247661048E+03  0.00000000000E+00 0.  1.
         12    1    5    5    0    0  0.23079421007E+02  0.73486712414E+02  0.18802560374E+04  0.18818330751E+04  0.00000000000E+00 0. -1.
         13    1    3    3    0    0  0.18805503840E+02  0.29169573916E+02 -0.32776361403E+02  0.47736787533E+02  0.00000000000E+00 0. -1.
        -14    1    3    3    0    0  0.18146188162E+02 -0.55178886769E+02 -0.80156577782E+02  0.98990255337E+02  0.00000000000E+00 0.  1.
          5    1    4    4  501    0 -0.78664113393E+02 -0.10689581439E+03  0.12381306224E+03  0.18155413697E+03  0.41800000000E+01 0.  1.
         -5    1    4    4    0  501  0.27262015348E+02  0.53671699637E+00  0.83032909133E+02  0.87495382421E+02  0.41800000000E+01 0.  1.
</event>
<event>
11    1  0.6930157E-009  0.1584425E+03  0.7561462E-02  0.1088551E+00
         22   -1    0    0    0    0  0.00000000000E+00  0.00000000000E+00  0.88465622840E+03  0.88465622840E+03  0.00000000000E+00 0. -1.
         22   -1    0    0    0    0 -0.00000000000E+00 -0.00000000000E+00 -0.39613325127E+03  0.39613325127E+03  0.00000000000E+00 0.  1.
         24    2    1    2    0    0  0.69453260110E+02  0.71311733120E+02 -0.34821246180E+03  0.37093259400E+03  0.80186982210E+02 0.  0.
         25    2    1    2    0    0 -0.21148414030E+02 -0.70152603045E+02  0.12372126281E+03  0.19058694463E+03  0.12509112463E+03 0.  0.
        -24    2    1    2    0    0 -0.48304846080E+02 -0.11591300743E+01  0.71301417612E+03  0.71926994103E+03  0.81396136202E+02 0.  0.
        -11    1    3    3    0    0  0.64490373893E+02  0.88720646191E+02 -0.30199835075E+03  0.32129949462E+03  0.00000000000E+00 0.  1.
         12    1    3    3    0    0  0.49628862173E+01 -0.17408913071E+02 -0.46214111050E+02  0.49633099380E+02  0.00000000000E+00 0. -1.
         11    1    5    5    0    0 -0.66411285981E+02 -0.13021749746E+02  0.62410812920E+03  0.62776666191E+03  0.00000000000E+00 0. -1.
        -12    1    5    5    0    0  0.18106439901E+02  0.11862619672E+02  0.88906046921E+02  0.91503279124E+02  0.00000000000E+00 0.  1.
          5    1    4    4  501    0  0.60814781112E+01  0.29374790063E+02  0.11476528725E+01  0.30309275386E+02  0.41800000000E+01 0.  1.
         -5    1    4    4    0  501 -0.27229892142E+02 -0.99527393109E+02  0.12257360994E+03  0.16027766924E+03  0.41800000000E+01 0.  1.
</event>
<event>
11    1  0.6930157E-009  0.1710749E+03  0.7561462E-02  0.1077100E+00
         22   -1    0    0    0    0  0.00000000000E+00  0.00000000000E+00  0.17044610548E+04  0.17044610548E+04  0.00000000000E+00 0.  1.
         22   -1    0    0    0    0 -0.00000000000E+00 -0.00000000000E+00 -0.27799420431E+03  0.27799420431E+03  0.00000000000E+00 0. -1.
        -24    2    1    2    0    0  0.81876078631E+02  0.91170985230E+02 -0.22326009358E+03  0.26680941395E+03  0.79538375560E+02 0.  0.
         25    2    1    2    0    0 -0.80817820521E+02 -0.17330508418E+02  0.15071667263E+03  0.21259216509E+03  0.12509215249E+03 0.  0.
         24    2    1    2    0    0 -0.10582581101E+01 -0.73840476812E+02  0.14990102715E+04  0.15030536801E+04  0.81762065463E+02 0.  0.
        -13    1    5    5    0    0  0.65771204768E+01 -0.54149820517E+02  0.14261895976E+04  0.14272323672E+04  0.00000000000E+00 0.  1.
         14    1    5    5    0    0 -0.76353785869E+01 -0.19690656295E+02  0.72820673811E+02  0.75821312873E+02  0.00000000000E+00 0. -1.
         11    1    3    3    0    0  0.69708361467E+02  0.10498513435E+03 -0.17935896252E+03  0.21920486201E+03  0.00000000000E+00 0. -1.
        -12    1    3    3    0    0  0.12167717164E+02 -0.13814149120E+02 -0.43901131063E+02  0.47604551941E+02  0.00000000000E+00 0.  1.
          5    1    4    4  501    0 -0.12337685481E+02 -0.45531695737E+02  0.12567451914E+03  0.13430156723E+03  0.41800000000E+01 0. -1.
         -5    1    4    4    0  501 -0.68480135040E+02  0.28201187319E+02  0.25042153485E+02  0.78290597855E+02  0.41800000000E+01 0. -1.
</event>
<event>
11    1  0.6930157E-009  0.1641660E+03  0.7561462E-02  0.1083223E+00
         22   -1    0    0    0    0  0.00000000000E+00  0.00000000000E+00  0.20070570561E+03  0.20070570561E+03  0.00000000000E+00 0. -1.
         22   -1    0    0    0    0 -0.00000000000E+00 -0.00000000000E+00 -0.94709580350E+03  0.94709580350E+03  0.00000000000E+00 0.  1.
        -24    2    1    2    0    0 -0.27231563725E+01 -0.18600937276E+01 -0.62733104401E+03  0.63153662479E+03  0.72686959998E+02 0.  0.
         25    2    1    2    0    0  0.37735331600E+02 -0.98599735724E+02 -0.26861879998E+03  0.31456212731E+03  0.12508960428E+03 0.  0.
         24    2    1    2    0    0 -0.35012175228E+02  0.10045982945E+03  0.14955974611E+03  0.20170275700E+03  0.83653181529E+02 0.  0.
        -11    1    5    5    0    0  0.21530655504E+02  0.11559089033E+02  0.54789972293E+02  0.59992688968E+02  0.00000000000E+00 0.  1.
         12    1    5    5    0    0 -0.56542830731E+02  0.88900740419E+02  0.94769773812E+02  0.14171006804E+03  0.00000000000E+00 0. -1.
         13    1    3    3    0    0 -0.82373514311E-01 -0.36059322378E+02 -0.24056631595E+03  0.24325384660E+03  0.00000000000E+00 0. -1.
        -14    1    3    3    0    0 -0.26407828582E+01  0.34199228650E+02 -0.38676472806E+03  0.38828277820E+03  0.00000000000E+00 0.  1.
          5    1    4    4  501    0 -0.14680039867E+02  0.15638929136E+01 -0.14949989896E+03  0.15028520060E+03  0.41800000000E+01 0.  1.
         -5    1    4    4    0  501  0.52415371467E+02 -0.10016362864E+03 -0.11911890102E+03  0.16427692671E+03  0.41800000000E+01 0.  1.
</event>
<event>
11    1  0.6930157E-009  0.1311849E+03  0.7561462E-02  0.1117822E+00
         22   -1    0    0    0    0  0.00000000000E+00  0.00000000000E+00  0.26663594028E+04  0.26663594028E+04  0.00000000000E+00 0.  1.
         22   -1    0    0    0    0 -0.00000000000E+00 -0.00000000000E+00 -0.61213070212E+03  0.61213070212E+03  0.00000000000E+00 0.  1.
         24    2    1    2    0    0 -0.12461485194E+02 -0.32256834769E+01 -0.57523643384E+03  0.58104949594E+03  0.80968316437E+02 0.  0.
         25    2    1    2    0    0  0.15695757191E+02  0.42554458693E+02  0.10004336452E+03  0.16646454181E+03  0.12507809619E+03 0.  0.
        -24    2    1    2    0    0 -0.32342719967E+01 -0.39328775217E+02  0.25294217700E+04  0.25309760672E+04  0.79423856846E+02 0.  0.
        -13    1    3    3    0    0 -0.17678576474E+02  0.45482924839E+01 -0.57005855912E+03  0.57035075161E+03  0.00000000000E+00 0.  1.
         14    1    3    3    0    0  0.52170912799E+01 -0.77739759608E+01 -0.51778747165E+01  0.10698744330E+02  0.00000000000E+00 0. -1.
         11    1    5    5    0    0 -0.35231777933E+00  0.24642980180E+02  0.71472831556E+03  0.71515310645E+03  0.00000000000E+00 0. -1.
        -12    1    5    5    0    0 -0.28819542174E+01 -0.63971755397E+02  0.18146934545E+04  0.18158229608E+04  0.00000000000E+00 0.  1.
          5    1    4    4  501    0  0.18381730202E+02 -0.16340256932E+02 -0.20448830366E+02  0.32257077753E+02  0.41800000000E+01 0.  1.
         -5    1    4    4    0  501 -0.26859730114E+01  0.58894715625E+02  0.12049219489E+03  0.13420746406E+03  0.41800000000E+01 0.  1.
</event>
<event>
11    1  0.6930157E-009  0.2561415E+03  0.7561462E-02  0.1020677E+00
         22   -1    0    0    0    0  0.00000000000E+00  0.00000000000E+00  0.11412367937E+04  0.11412367937E+04  0.00000000000E+00 0. -1.
         22   -1    0    0    0    0 -0.00000000000E+00 -0.00000000000E+00 -0.54430505525E+03  0.54430505525E+03  0.00000000000E+00 0.  1.
         24    2    1    2    0    0 -0.53434478031E+02  0.21736874629E+03 -0.47014970516E+03  0.52681142622E+03  0.79906934808E+02 0.  0.
         25    2    1    2    0    0  0.13678251323E+03 -0.19040157789E+03  0.39550909393E+03  0.47648399481E+03  0.12508931666E+03 0.  0.
        -24    2    1    2    0    0 -0.83348035195E+02 -0.26967168402E+02  0.67157234968E+03  0.68224642792E+03  0.82320376709E+02 0.  0.
        -13    1    3    3    0    0 -0.35777120469E+02  0.20391933218E+03 -0.36764603233E+03  0.42193210528E+03  0.00000000000E+00 0.  1.
         14    1    3    3    0    0 -0.17657357562E+02  0.13449414112E+02 -0.10250367283E+03  0.10487932093E+03  0.00000000000E+00 0. -1.
         13    1    5    5    0    0 -0.79990972636E+02 -0.11155098510E+02  0.65144127525E+03  0.65642876767E+03  0.00000000000E+00 0. -1.
        -14    1    5    5    0    0 -0.33570625592E+01 -0.15812069892E+02  0.20131074422E+02  0.25817660248E+02  0.00000000000E+00 0.  1.
          5    1    4    4  501    0  0.10023084325E+03 -0.40303210620E+02  0.19916657324E+03  0.22661722579E+03  0.41800000000E+01 0.  1.
         -5    1    4    4    0  501  0.36551669977E+02 -0.15009836727E+03  0.19634252069E+03  0.24986676903E+03  0.41800000000E+01 0.  1.
</event>
<event>
11    1  0.6930157E-009  0.1899815E+03  0.7561462E-02  0.1061843E+00
         22   -1    0    0    0    0  0.00000000000E+00  0.00000000000E+00  0.19218936381E+04  0.19218936381E+04  0.00000000000E+00 0. -1.
         22   -1    0    0    0    0 -0.00000000000E+00 -0.00000000000E+00 -0.38759696860E+03  0.38759696860E+03  0.00000000000E+00 0.  1.
         24    2    1    2    0    0 -0.91147311215E+01 -0.39025802407E+01 -0.33758128491E+03  0.34700682469E+03  0.79713888408E+02 0.  0.
         25    2    1    2    0    0 -0.23831402560E+02 -0.13576398459E+03  0.16814268051E+03  0.25083739813E+03  0.12509054334E+03 0.  0.
        -24    2    1    2    0    0  0.32946133682E+02  0.13966656483E+03  0.17037352739E+04  0.17116463839E+04  0.80170211693E+02 0.  0.
        -13    1    3    3    0    0  0.79398690998E+01  0.21396216458E+02 -0.28721343862E+03  0.28811872366E+03  0.00000000000E+00 0.  1.
         14    1    3    3    0    0 -0.17054600221E+02 -0.25298796698E+02 -0.50367846288E+02  0.58888101029E+02  0.00000000000E+00 0. -1.
         13    1    5    5    0    0 -0.25710722687E+02  0.60973748801E+02  0.70779999733E+03  0.71088654195E+03  0.00000000000E+00 0. -1.
        -14    1    5    5    0    0  0.58656856369E+02  0.78692816028E+02  0.99593527657E+03  0.10007598419E+04  0.00000000000E+00 0.  1.
          5    1    4    4  501    0 -0.56612097437E+00 -0.92809498286E+02  0.20327479538E+02  0.95103113984E+02  0.41800000000E+01 0.  1.
         -5    1    4    4    0  501 -0.23265281586E+02 -0.42954486303E+02  0.14781520097E+03  0.15573428414E+03  0.41800000000E+01 0.  1.
</event>
<event>
11    1  0.6930157E-009  0.1844729E+03  0.7561462E-02  0.1066081E+00
         22   -1    0    0    0    0  0.00000000000E+00  0.00000000000E+00  0.19595041250E+03  0.19595041250E+03  0.00000000000E+00 0.  1.
         22   -1    0    0    0    0 -0.00000000000E+00 -0.00000000000E+00 -0.59574268618E+03  0.59574268618E+03  0.00000000000E+00 0.  1.
         24    2    1    2    0    0  0.25666487218E+02 -0.13860756515E+03 -0.46406732360E+03  0.49175273080E+03  0.81187694503E+02 0.  0.
         25    2    1    2    0    0  0.11738248049E+02  0.11119110776E+03 -0.26624000708E+02  0.16986791004E+03  0.12508005651E+03 0.  0.
        -24    2    1    2    0    0 -0.37404735267E+02  0.27416457390E+02  0.90899050618E+02  0.13007245784E+03  0.80656249158E+02 0.  0.
        -13    1    3    3    0    0 -0.84652802091E+00 -0.13499511378E+03 -0.36609925705E+03  0.39019618575E+03  0.00000000000E+00 0.  1.
         14    1    3    3    0    0  0.26513015239E+02 -0.36124513693E+01 -0.97968066542E+02  0.10155654506E+03  0.00000000000E+00 0. -1.
         13    1    5    5    0    0 -0.90031850500E+01  0.42805397936E+02  0.12830639152E+02  0.45584917841E+02  0.00000000000E+00 0. -1.
        -14    1    5    5    0    0 -0.28401550217E+02 -0.15388940546E+02  0.78068411466E+02  0.84487539997E+02  0.00000000000E+00 0.  1.
          5    1    4    4  501    0 -0.22564556731E+02  0.12362077575E+02 -0.55453869987E+02  0.61274662618E+02  0.41800000000E+01 0. -1.
         -5    1    4    4    0  501  0.34302804780E+02  0.98829030186E+02  0.28829869279E+02  0.10859324742E+03  0.41800000000E+01 0. -1.
</event>
<event>
11    1  0.6930157E-009  0.1380144E+03  0.7561462E-02  0.1109796E+00
         22   -1    0    0    0    0  0.00000000000E+00  0.00000000000E+00  0.56960608979E+02  0.56960608979E+02  0.00000000000E+00 0.  1.
         22   -1    0    0    0    0 -0.00000000000E+00 -0.00000000000E+00 -0.18025727474E+04  0.18025727474E+04  0.00000000000E+00 0. -1.
         24    2    1    2    0    0  0.52087582549E+02  0.15503811620E+02 -0.12713490168E+04  0.12750479906E+04  0.80408775539E+02 0.  0.
         25    2    1    2    0    0 -0.76533469714E+02 -0.34643980419E+02 -0.47421584523E+03  0.49757966869E+03  0.12508909406E+03 0.  0.
        -24    2    1    2    0    0  0.24445887165E+02  0.19140168799E+02 -0.47276375821E-01  0.86905697159E+02  0.81170502663E+02 0.  0.
        -11    1    3    3    0    0  0.50988973559E+02  0.41820249470E+01 -0.35889587790E+03  0.36252395221E+03  0.00000000000E+00 0.  1.
         12    1    3    3    0    0  0.10986089900E+01  0.11321786673E+02 -0.91245313893E+03  0.91252403834E+03  0.00000000000E+00 0. -1.
         11    1    5    5    0    0 -0.16060789280E+02  0.91133584831E+01 -0.30216825909E+02  0.35412692966E+02  0.00000000000E+00 0. -1.
        -12    1    5    5    0    0  0.40506676445E+02  0.10026810316E+02  0.30169549533E+02  0.51493004192E+02  0.00000000000E+00 0.  1.
          5    1    4    4  501    0 -0.65534407626E+02 -0.31072279130E+02 -0.47893129046E+03  0.48440984558E+03  0.41800000000E+01 0. -1.
         -5    1    4    4    0  501 -0.10999062088E+02 -0.35717012894E+01  0.47154452281E+01  0.13169823105E+02  0.41800000000E+01 0. -1.
</event>
<event>
11    1  0.6930157E-009  0.1627870E+03  0.7561462E-02  0.1084485E+00
         22   -1    0    0    0    0  0.00000000000E+00  0.00000000000E+00  0.33184203382E+03  0.33184203382E+03  0.00000000000E+00 0.  1.
         22   -1    0    0    0    0 -0.00000000000E+00 -0.00000000000E+00 -0.14684146882E+04  0.14684146882E+04  0.00000000000E+00 0. -1.
         24    2    1    2    0    0  0.12979119475E+02  0.37070633662E+02 -0.74881642148E+03  0.75408951805E+03  0.79889165319E+02 0.  0.
         25    2    1    2    0    0 -0.10749500552E+03  0.69231493677E+01 -0.69132599687E+03  0.71076215561E+03  0.12509237260E+03 0.  0.
        -24    2    1    2    0    0  0.94515886043E+02 -0.43993783029E+02  0.30356976399E+03  0.33540504834E+03  0.97330566543E+02 0.  0.
        -11    1    3    3    0    0  0.14181569869E+02  0.60924584315E+02 -0.45107750153E+03  0.45539415267E+03  0.00000000000E+00 0.  1.
         12    1    3    3    0    0 -0.12024503942E+01 -0.23853950653E+02 -0.29773891994E+03  0.29869536538E+03  0.00000000000E+00 0. -1.
         11    1    5    5    0    0 -0.87295955590E+00  0.79080886683E+01 -0.42297134294E+01  0.90105715949E+01  0.00000000000E+00 0. -1.
        -12    1    5    5    0    0  0.95388845599E+02 -0.51901871698E+02  0.30779947742E+03  0.32639447675E+03  0.00000000000E+00 0.  1.
          5    1    4    4  501    0 -0.10351355951E+02  0.55339518674E+02 -0.23402924053E+03  0.24074212494E+03  0.41800000000E+01 0.  1.
         -5    1    4    4    0  501 -0.97143649568E+02 -0.48416369306E+02 -0.45729675634E+03  0.47002003067E+03  0.41800000000E+01 0.  1.
</event>
<event>
11    1  0.6930157E-009  0.1359556E+03  0.7561462E-02  0.1112161E+00
         22   -1    0    0    0    0  0.00000000000E+00  0.00000000000E+00  0.87024040573E+02  0.87024040573E+02  0.00000000000E+00 0.  1.
         22   -1    0    0    0    0 -0.00000000000E+00 -0.00000000000E+00 -0.10720409799E+04  0.10720409799E+04  0.00000000000E+00 0. -1.
        -24    2    1    2    0    0 -0.38457354581E+02 -0.40641576613E+02 -0.90895053994E+03  0.91418497136E+03  0.80077287193E+02 0.  0.
         25    2    1    2    0    0  0.29527108022E+02 -0.73053841778E+01 -0.79791828711E+02  0.15147973115E+03  0.12511656275E+03 0.  0.
         24    2    1    2    0    0  0.89302465599E+01  0.47946960791E+02  0.37254293443E+01  0.93400317949E+02  0.79568085414E+02 0.  0.
        -11    1    5    5    0    0  0.30448977979E+01  0.66957148066E+02  0.17407952176E+02  0.69250038835E+02  0.00000000000E+00 0.  1.
         12    1    5    5    0    0  0.58853487619E+01 -0.19010187274E+02 -0.13682522831E+02  0.24150279114E+02  0.00000000000E+00 0. -1.
         11    1    3    3    0    0 -0.20147807555E+02  0.44170330194E+00 -0.70695965810E+03  0.70724683629E+03  0.00000000000E+00 0. -1.
        -12    1    3    3    0    0 -0.18309547027E+02 -0.41083279915E+02 -0.20199088184E+03  0.20693813507E+03  0.00000000000E+00 0.  1.
          5    1    4    4  501    0  0.23406735923E+02 -0.49106409805E+02  0.68577974435E+01  0.54989240369E+02  0.41800000000E+01 0.  1.
         -5    1    4    4    0  501  0.61203720982E+01  0.41801025627E+02 -0.86649626154E+02  0.96490490779E+02  0.41800000000E+01 0.  1.
</event>
<event>
11    1  0.6930157E-009  0.1875265E+03  0.7561462E-02  0.1063712E+00
         22   -1    0    0    0    0  0.00000000000E+00  0.00000000000E+00  0.20445553554E+04  0.20445553554E+04  0.00000000000E+00 0.  1.
         22   -1    0    0    0    0 -0.00000000000E+00 -0.00000000000E+00 -0.35695720256E+03  0.35695720256E+03  0.00000000000E+00 0.  1.
         24    2    1    2    0    0  0.23901024422E+02 -0.47779274256E+02 -0.31697511294E+03  0.33135630486E+03  0.80434199994E+02 0.  0.
         25    2    1    2    0    0  0.91658040236E+02  0.12466276242E+03  0.31311774176E+03  0.37098796668E+03  0.12508937021E+03 0.  0.
        -24    2    1    2    0    0 -0.11555906466E+03 -0.76883488165E+02  0.16914555241E+04  0.16991682865E+04  0.82982574511E+02 0.  0.
        -13    1    3    3    0    0  0.10709887884E+02 -0.22149999942E+02 -0.29252692425E+03  0.29355974793E+03  0.00000000000E+00 0.  1.
         14    1    3    3    0    0  0.13191136538E+02 -0.25629274314E+02 -0.24448188688E+02  0.37796556922E+02  0.00000000000E+00 0. -1.
         11    1    5    5    0    0  0.13212439220E+02 -0.53773496215E+01  0.17183822768E+03  0.17242929256E+03  0.00000000000E+00 0. -1.
        -12    1    5    5    0    0 -0.12877150388E+03 -0.71506138544E+02  0.15196172964E+04  0.15267389939E+04  0.00000000000E+00 0.  1.
          5    1    4    4  501    0  0.80390791453E+02  0.11256950174E+03  0.32291769136E+03  0.35132304203E+03  0.41800000000E+01 0. -1.
         -5    1    4    4    0  501  0.11267248783E+02  0.12093260686E+02 -0.97999495972E+01  0.19664924644E+02  0.41800000000E+01 0. -1.
</event>
<event>
11    1  0.6930157E-009  0.1734487E+03  0.7561462E-02  0.1075069E+00
         22   -1    0    0    0    0  0.00000000000E+00  0.00000000000E+00  0.48472818935E+03  0.48472818935E+03  0.00000000000E+00 0. -1.
         22   -1    0    0    0    0 -0.00000000000E+00 -0.00000000000E+00 -0.11938112875E+04  0.11938112875E+04  0.00000000000E+00 0. -1.
         24    2    1    2    0    0 -0.10498470389E+03  0.46755746102E+02 -0.99176696501E+03  0.10016980680E+04  0.81175234880E+02 0.  0.
         25    2    1    2    0    0  0.17214669278E+03 -0.93120255440E+02 -0.11766271304E+03  0.26038288712E+03  0.12509543581E+03 0.  0.
        -24    2    1    2    0    0 -0.67161988882E+02  0.46364509338E+02  0.40034657988E+03  0.41645852172E+03  0.80622055361E+02 0.  0.
        -11    1    3    3    0    0 -0.92959446784E+02  0.39298534432E+02 -0.51913863176E+03  0.52885797010E+03  0.00000000000E+00 0.  1.
         12    1    3    3    0    0 -0.12025257109E+02  0.74572116699E+01 -0.47262833325E+03  0.47284009793E+03  0.00000000000E+00 0. -1.
         13    1    5    5    0    0 -0.78195825165E+02  0.35933677483E+02  0.23230885085E+03  0.24773618717E+03  0.00000000000E+00 0. -1.
        -14    1    5    5    0    0  0.11033836284E+02  0.10430831855E+02  0.16803772903E+03  0.16872233455E+03  0.00000000000E+00 0.  1.
          5    1    4    4  501    0  0.18424159364E+03 -0.99442519954E+02 -0.12546498239E+03  0.24411618916E+03  0.41800000000E+01 0.  1.
         -5    1    4    4    0  501 -0.12094900867E+02  0.63222645143E+01  0.78022693545E+01  0.16266697964E+02  0.41800000000E+01 0.  1.
</event>
<event>
11    1  0.6930157E-009  0.1646782E+03  0.7561462E-02  0.1082758E+00
         22   -1    0    0    0    0  0.00000000000E+00  0.00000000000E+00  0.32291563879E+03  0.32291563879E+03  0.00000000000E+00 0. -1.
         22   -1    0    0    0    0 -0.00000000000E+00 -0.00000000000E+00 -0.45393498273E+03  0.45393498273E+03  0.00000000000E+00 0.  1.
         24    2    1    2    0    0  0.44000148442E+02  0.31901812071E+02 -0.34586922812E+03  0.35895591755E+03  0.79183894245E+02 0.  0.
         25    2    1    2    0    0  0.66724642789E+02 -0.57428523487E+02 -0.10970408416E+02  0.15335561805E+03  0.12508949780E+03 0.  0.
        -24    2    1    2    0    0 -0.11072479123E+03  0.25526711416E+02  0.22582029259E+03  0.26453908592E+03  0.77939277927E+02 0.  0.
        -13    1    3    3    0    0  0.63763710388E+02  0.11073071883E+02 -0.27452967384E+03  0.28205489803E+03  0.00000000000E+00 0.  1.
         14    1    3    3    0    0 -0.19763561946E+02  0.20828740187E+02 -0.71339554281E+02  0.76901019523E+02  0.00000000000E+00 0. -1.
         11    1    5    5    0    0 -0.12294407142E+03  0.22851545418E+02  0.20939924959E+03  0.24389646072E+03  0.00000000000E+00 0. -1.
        -12    1    5    5    0    0  0.12219280193E+02  0.26751659983E+01  0.16421043008E+02  0.20642625197E+02  0.00000000000E+00 0.  1.
          5    1    4    4  501    0 -0.48746367978E+01  0.20850204885E+02  0.32077064701E+02  0.38793087110E+02  0.41800000000E+01 0.  1.
         -5    1    4    4    0  501  0.71599279586E+02 -0.78278728372E+02 -0.43047473117E+02  0.11456253094E+03  0.41800000000E+01 0.  1.
</event>
<event>
11    1  0.6930157E-009  0.1296092E+03  0.7561462E-02  0.1119750E+00
         22   -1    0    0    0    0  0.00000000000E+00  0.00000000000E+00  0.10087918092E+03  0.10087918092E+03  0.00000000000E+00 0. -1.
         22   -1    0    0    0    0 -0.00000000000E+00 -0.00000000000E+00 -0.14325926471E+04  0.14325926471E+04  0.00000000000E+00 0.  1.
        -24    2    1    2    0    0  0.16314938072E+02 -0.68320962078E+01 -0.11971449620E+04  0.12000463735E+04  0.81500820498E+02 0.  0.
         25    2    1    2    0    0 -0.47815580479E+02  0.12679699872E+02 -0.18688772007E+03  0.23026540271E+03  0.12509209107E+03 0.  0.
         24    2    1    2    0    0  0.31500642407E+02 -0.58476036638E+01  0.52319215858E+02  0.10316005185E+03  0.82934980605E+02 0.  0.
        -13    1    5    5    0    0  0.10103591999E+02 -0.11853069039E+02 -0.21227810515E+02  0.26328648962E+02  0.00000000000E+00 0.  1.
         14    1    5    5    0    0  0.21397050408E+02  0.60054653751E+01  0.73547026374E+02  0.76831402883E+02  0.00000000000E+00 0. -1.
         13    1    3    3    0    0 -0.20842161488E+02 -0.22168960614E+02 -0.22227716883E+03  0.22435016892E+03  0.00000000000E+00 0. -1.
        -14    1    3    3    0    0  0.37157099559E+02  0.15336864406E+02 -0.97486779316E+03  0.97569620456E+03  0.00000000000E+00 0.  1.
          5    1    4    4  501    0 -0.58405427617E+02  0.60635677301E+02 -0.13068211691E+03  0.15550938048E+03  0.41800000000E+01 0.  1.
         -5    1    4    4    0  501  0.10589847137E+02 -0.47955977429E+02 -0.56205603160E+02  0.74756022233E+02  0.41800000000E+01 0.  1.
</event>
<event>
11    1  0.6930157E-009  0.1362315E+03  0.7561462E-02  0.1111841E+00
         22   -1    0    0    0    0  0.00000000000E+00  0.00000000000E+00  0.22912455105E+03  0.22912455105E+03  0.00000000000E+00 0. -1.
         22   -1    0    0    0    0 -0.00000000000E+00 -0.00000000000E+00 -0.11293653461E+04  0.11293653461E+04  0.00000000000E+00 0.  1.
        -24    2    1    2    0    0 -0.10987100108E+02  0.36930357826E+01 -0.83816802623E+03  0.84193760997E+03  0.78733372864E+02 0.  0.
         25    2    1    2    0    0  0.35378749268E+02 -0.51458146707E+02 -0.26060548213E+03  0.29574137394E+03  0.12509255045E+03 0.  0.
         24    2    1    2    0    0 -0.24391649160E+02  0.47765110924E+02  0.19853271335E+03  0.22081091320E+03  0.80409966718E+02 0.  0.
        -11    1    5    5    0    0 -0.30233582191E+02 -0.12135157078E+02  0.42331286127E+02  0.53416002420E+02  0.00000000000E+00 0.  1.
         12    1    5    5    0    0  0.58419330309E+01  0.59900268003E+02  0.15620142722E+03  0.16739491078E+03  0.00000000000E+00 0. -1.
         11    1    3    3    0    0  0.61871730178E+00 -0.99309966463E+01 -0.12056464115E+02  0.15632204977E+02  0.00000000000E+00 0. -1.
        -12    1    3    3    0    0 -0.11605817410E+02  0.13624032429E+02 -0.82611156212E+03  0.82630540500E+03  0.00000000000E+00 0.  1.
          5    1    4    4  501    0  0.35321954126E+02 -0.59076510976E+01 -0.53866360188E+01  0.36455850454E+02  0.41800000000E+01 0. -1.
         -5    1    4    4    0  501  0.56795142179E-01 -0.45550495609E+02 -0.25521884612E+03  0.25928552348E+03  0.41800000000E+01 0. -1.
</event>
<event>
11    1  0.6930157E-009  0.1388726E+03  0.7561462E-02  0.1108824E+00
         22   -1    0    0    0    0  0.00000000000E+00  0.00000000000E+00  0.44172362830E+02  0.44172362830E+02  0.00000000000E+00 0. -1.
         22   -1    0    0    0    0 -0.00000000000E+00 -0.00000000000E+00 -0.15201361334E+04  0.15201361334E+04  0.00000000000E+00 0.  1.
         24    2    1    2    0    0  0.37746887990E+02  0.16753329618E+02 -0.94312166122E+03  0.94628141417E+03  0.65303486371E+02 0.  0.
         25    2    1    2    0    0 -0.39473357650E+02 -0.74424416543E+02 -0.48700741059E+03  0.50982683097E+03  0.12510011937E+03 0.  0.
        -24    2    1    2    0    0  0.17264696604E+01  0.57671086925E+02 -0.45834698766E+02  0.10820025110E+03  0.79230926802E+02 0.  0.
        -13    1    3    3    0    0  0.36312509846E+02  0.32769748236E+02 -0.87172886181E+03  0.87310003051E+03  0.00000000000E+00 0.  1.
         14    1    3    3    0    0  0.14343781440E+01 -0.16016418619E+02 -0.71392799416E+02  0.73181383661E+02  0.00000000000E+00 0. -1.
         11    1    5    5    0    0 -0.22419062309E+02  0.81439209370E+01  0.13352722854E+02  0.27335563112E+02  0.00000000000E+00 0. -1.
        -12    1    5    5    0    0  0.24145531969E+02  0.49527165988E+02 -0.59187421620E+02  0.80864687985E+02  0.00000000000E+00 0.  1.
          5    1    4    4  501    0 -0.74012786147E+02 -0.73244013417E+01 -0.21641856074E+03  0.22887989252E+03  0.41800000000E+01 0. -1.
         -5    1    4    4    0  501  0.34539428497E+02 -0.67100015201E+02 -0.27058884985E+03  0.28094693845E+03  0.41800000000E+01 0. -1.
</event>
<event>
11    1  0.6930157E-009  0.2221035E+03  0.7561462E-02  0.1039908E+00
         22   -1    0    0    0    0  0.00000000000E+00  0.00000000000E+00  0.29481966985E+03  0.29481966985E+03  0.00000000000E+00 0. -1.
         22   -1    0    0    0    0 -0.00000000000E+00 -0.00000000000E+00 -0.67462212246E+03  0.67462212246E+03  0.00000000000E+00 0. -1.
        -24    2    1    2    0    0  0.42926846843E+01  0.15228709922E+03 -0.46691939841E+03  0.49788534559E+03  0.81647443383E+02 0.  0.
         25    2    1    2    0    0 -0.10742884668E+03  0.52230982759E+02 -0.64237443020E+02  0.18450800463E+03  0.12509085509E+03 0.  0.
         24    2    1    2    0    0  0.10313616199E+03 -0.20451808198E+03  0.15135438883E+03  0.28704844209E+03  0.83808969239E+02 0.  0.
        -11    1    5    5    0    0 -0.46744002466E+01  0.57869811437E+01  0.63471865465E+01  0.97788519510E+01  0.00000000000E+00 0.  1.
         12    1    5    5    0    0  0.10781056224E+03 -0.21030506312E+03  0.14500720228E+03  0.27726959014E+03  0.00000000000E+00 0. -1.
         13    1    3    3    0    0  0.32680852756E+01  0.15186549472E+03 -0.47035534278E+03  0.49427518383E+03  0.00000000000E+00 0. -1.
        -14    1    3    3    0    0  0.10245994087E+01  0.42160450024E+00  0.34359443642E+01  0.36101617660E+01  0.00000000000E+00 0.  1.
          5    1    4    4  501    0 -0.13312521683E+03  0.58600639714E+02 -0.48267165292E+02  0.15330867548E+03  0.41800000000E+01 0. -1.
         -5    1    4    4    0  501  0.25696370152E+02 -0.63696569557E+01 -0.15970277728E+02  0.31199329151E+02  0.41800000000E+01 0. -1.
</event>
<event>
11    1  0.6930157E-009  0.1474420E+03  0.7561462E-02  0.1099522E+00
         22   -1    0    0    0    0  0.00000000000E+00  0.00000000000E+00  0.22426505341E+03  0.22426505341E+03  0.00000000000E+00 0. -1.
         22   -1    0    0    0    0 -0.00000000000E+00 -0.00000000000E+00 -0.13552159580E+04  0.13552159580E+04  0.00000000000E+00 0.  1.
        -24    2    1    2    0    0 -0.71936272441E+01 -0.86989587536E+02 -0.96196489731E+03  0.96919212259E+03  0.79611369882E+02 0.  0.
         25    2    1    2    0    0  0.20186281022E+01  0.48001208827E+02 -0.36810285237E+03  0.39172654893E+03  0.12506713521E+03 0.  0.
         24    2    1    2    0    0  0.51749991418E+01  0.38988378709E+02  0.19911684504E+03  0.21856233993E+03  0.81087016016E+02 0.  0.
        -11    1    5    5    0    0  0.77773377283E+01  0.39728027100E+02  0.32474247433E+02  0.51897782860E+02  0.00000000000E+00 0.  1.
         12    1    5    5    0    0 -0.26023385865E+01 -0.73964839178E+00  0.16664259761E+03  0.16666455707E+03  0.00000000000E+00 0. -1.
         13    1    3    3    0    0 -0.36873544628E+02 -0.52534111011E+02 -0.72968802546E+03  0.73250536217E+03  0.00000000000E+00 0. -1.
        -14    1    3    3    0    0  0.29679917384E+02 -0.34455476525E+02 -0.23227687186E+03  0.23668676042E+03  0.00000000000E+00 0.  1.
          5    1    4    4  501    0 -0.52502416627E+02  0.45867545879E+02 -0.27502195314E+03  0.28375144515E+03  0.41800000000E+01 0. -1.
         -5    1    4    4    0  501  0.54521044729E+02  0.21336629486E+01 -0.93080899231E+02  0.10797510379E+03  0.41800000000E+01 0. -1.
</event>
<event>
11    1  0.6930157E-009  0.2367617E+03  0.7561462E-02  0.1031198E+00
         22   -1    0    0    0    0  0.00000000000E+00  0.00000000000E+00  0.56096680475E+03  0.56096680475E+03  0.00000000000E+00 0. -1.
         22   -1    0    0    0    0 -0.00000000000E+00 -0.00000000000E+00 -0.11115451860E+04  0.11115451860E+04  0.00000000000E+00 0. -1.
        -24    2    1    2    0    0 -0.18460369271E+03  0.41232435471E+02 -0.72535037730E+03  0.75392393352E+03  0.80557374513E+02 0.  0.
         25    2    1    2    0    0  0.22969498837E+03 -0.88968092978E+02 -0.31430989459E+03  0.41846389641E+03  0.12508482525E+03 0.  0.
         24    2    1    2    0    0 -0.45091295657E+02  0.47735657508E+02  0.48908189064E+03  0.50012416082E+03  0.81309055718E+02 0.  0.
        -11    1    5    5    0    0  0.20531309508E+02 -0.75605916820E+00  0.61933462984E+02  0.65252280671E+02  0.00000000000E+00 0.  1.
         12    1    5    5    0    0 -0.65622605165E+02  0.48491716676E+02  0.42714842766E+03  0.43487188015E+03  0.00000000000E+00 0. -1.
         13    1    3    3    0    0 -0.18419282334E+03  0.40948619371E+02 -0.60875692723E+03  0.63732941408E+03  0.00000000000E+00 0. -1.
        -14    1    3    3    0    0 -0.41086937766E+00  0.28381609933E+00 -0.11659345007E+03  0.11659451945E+03  0.00000000000E+00 0.  1.
          5    1    4    4  501    0  0.56846190789E+02  0.31862531677E+02 -0.71881736706E+02  0.97114194657E+02  0.41800000000E+01 0. -1.
         -5    1    4    4    0  501  0.17284879758E+03 -0.12083062466E+03 -0.24242815788E+03  0.32134970175E+03  0.41800000000E+01 0. -1.
</event>
<event>
11    1  0.6930157E-009  0.1331181E+03  0.7561462E-02  0.1115496E+00
         22   -1    0    0    0    0  0.00000000000E+00  0.00000000000E+00  0.72004317560E+03  0.72004317560E+03  0.00000000000E+00 0.  1.
         22   -1    0    0    0    0 -0.00000000000E+00 -0.00000000000E+00 -0.79458978045E+02  0.79458978045E+02  0.00000000000E+00 0.  1.
         24    2    1    2    0    0  0.40067273754E+02 -0.27638473415E+02 -0.11349729964E+02  0.93312572322E+02  0.78798148102E+02 0.  0.
         25    2    1    2    0    0 -0.34888592630E+01  0.44984448263E+02  0.16913671084E+03  0.21515166232E+03  0.12508892086E+03 0.  0.
        -24    2    1    2    0    0 -0.36578414491E+02 -0.17345974847E+02  0.48279721668E+03  0.49103791900E+03  0.79913842429E+02 0.  0.
        -11    1    3    3    0    0  0.34945735434E+02 -0.26534058573E+01 -0.41174203883E+02  0.54069955179E+02  0.00000000000E+00 0.  1.
         12    1    3    3    0    0  0.51215383207E+01 -0.24985067558E+02  0.29824473920E+02  0.39242617143E+02  0.00000000000E+00 0. -1.
         11    1    5    5    0    0  0.20900430149E+02  0.10331005705E+02  0.84216218520E+02  0.87383803540E+02  0.00000000000E+00 0. -1.
        -12    1    5    5    0    0 -0.57478844640E+02 -0.27676980552E+02  0.39858099816E+03  0.40365411546E+03  0.00000000000E+00 0.  1.
          5    1    4    4  501    0  0.43990135986E+02 -0.11428174783E+02  0.11457281785E+03  0.12332938917E+03  0.41800000000E+01 0. -1.
         -5    1    4    4    0  501 -0.47478995249E+02  0.56412623045E+02  0.54563892986E+02  0.91822273151E+02  0.41800000000E+01 0. -1.
</event>
<event>
11    1  0.6930157E-009  0.3230093E+03  0.7561462E-02  0.9908975E-01
         22   -1    0    0    0    0  0.00000000000E+00  0.00000000000E+00  0.11985296900E+04  0.11985296900E+04  0.00000000000E+00 0.  1.
         22   -1    0    0    0    0 -0.00000000000E+00 -0.00000000000E+00 -0.60841217168E+03  0.60841217168E+03  0.00000000000E+00 0.  1.
        -24    2    1    2    0    0  0.68900620904E+01  0.42830014416E+02 -0.31816306436E+03  0.33130830181E+03  0.81581690551E+02 0.  0.
         25    2    1    2    0    0  0.25657562990E+03 -0.17936022112E+03 -0.15334097156E+03  0.37035556888E+03  0.12509456848E+03 0.  0.
         24    2    1    2    0    0 -0.26346569199E+03  0.13653020670E+03  0.10616215542E+04  0.11052779910E+04  0.80897742638E+02 0.  0.
        -13    1    5    5    0    0 -0.23814294734E+03  0.10158431146E+03  0.82227016371E+03  0.86206708430E+03  0.00000000000E+00 0.  1.
         14    1    5    5    0    0 -0.25322744657E+02  0.34945895247E+02  0.23935139050E+03  0.24321090668E+03  0.00000000000E+00 0. -1.
         11    1    3    3    0    0  0.38662790401E+02  0.28323008751E+02 -0.10655980806E+03  0.11684176000E+03  0.00000000000E+00 0. -1.
        -12    1    3    3    0    0 -0.31772728311E+02  0.14507005665E+02 -0.21160325630E+03  0.21446654181E+03  0.00000000000E+00 0.  1.
          5    1    4    4  501    0 -0.12939550894E+02 -0.80889594052E+00 -0.39040627722E+01  0.14170405644E+02  0.41800000000E+01 0.  1.
         -5    1    4    4    0  501  0.26951518080E+03 -0.17855132518E+03 -0.14943690879E+03  0.35618516324E+03  0.41800000000E+01 0.  1.
</event>
<event>
11    1  0.6930157E-009  0.1958544E+03  0.7561462E-02  0.1057495E+00
         22   -1    0    0    0    0  0.00000000000E+00  0.00000000000E+00  0.94051706108E+03  0.94051706108E+03  0.00000000000E+00 0.  1.
         22   -1    0    0    0    0 -0.00000000000E+00 -0.00000000000E+00 -0.41484386275E+03  0.41484386275E+03  0.00000000000E+00 0. -1.
        -24    2    1    2    0    0 -0.68562661214E+01 -0.16184158090E+03 -0.14463600994E+03  0.23146075442E+03  0.80092445175E+02 0.  0.
         25    2    1    2    0    0  0.32543489722E+02  0.13787862897E+03 -0.18472409552E+03  0.26427212472E+03  0.12508864611E+03 0.  0.
         24    2    1    2    0    0 -0.25687223601E+02  0.23962951924E+02  0.85503330380E+03  0.85962804468E+03  0.81512993336E+02 0.  0.
        -11    1    5    5    0    0  0.35636370693E+01 -0.18026185623E+02  0.55189175174E+03  0.55219756294E+03  0.00000000000E+00 0.  1.
         12    1    5    5    0    0 -0.29250860670E+02  0.41989137547E+02  0.30314155206E+03  0.30743048175E+03  0.00000000000E+00 0. -1.
         11    1    3    3    0    0  0.15638581565E+01 -0.15697254756E+03 -0.10079599122E+03  0.18655470561E+03  0.00000000000E+00 0. -1.
        -12    1    3    3    0    0 -0.84201242779E+01 -0.48690333375E+01 -0.43840018719E+02  0.44906048811E+02  0.00000000000E+00 0.  1.
          5    1    4    4  501    0  0.49531933905E+02  0.11326522308E+03 -0.62911522439E+02  0.13877231457E+03  0.41800000000E+01 0.  1.
         -5    1    4    4    0  501 -0.16988444183E+02  0.24613405891E+02 -0.12181257308E+03  0.12549981015E+03  0.41800000000E+01 0.  1.
</event>
<event>
11    1  0.6930157E-009  0.1659311E+03  0.7561462E-02  0.1081628E+00
         22   -1    0    0    0    0  0.00000000000E+00  0.00000000000E+00  0.99794898271E+03  0.99794898271E+03  0.00000000000E+00 0. -1.
         22   -1    0    0    0    0 -0.00000000000E+00 -0.00000000000E+00 -0.15448712465E+03  0.15448712465E+03  0.00000000000E+00 0.  1.
         24    2    1    2    0    0  0.72288228066E+02  0.73530616289E+01 -0.80889410655E+02  0.13341870874E+03  0.77316231495E+02 0.  0.
         25    2    1    2    0    0  0.20249248471E+02  0.63782468455E+02  0.80314868151E+02  0.16302250053E+03  0.12509045642E+03 0.  0.
        -24    2    1    2    0    0 -0.92537476536E+02 -0.71135530084E+02  0.84403640056E+03  0.85599489809E+03  0.81892440948E+02 0.  0.
        -13    1    3    3    0    0  0.37002188274E+02  0.37364964058E+02 -0.66770608546E+02  0.84991862209E+02  0.00000000000E+00 0.  1.
         14    1    3    3    0    0  0.35286039792E+02 -0.30011902429E+02 -0.14118802108E+02  0.48426846527E+02  0.00000000000E+00 0. -1.
         11    1    5    5    0    0 -0.73833581478E+02 -0.16829734139E+02  0.62429260843E+03  0.62886874517E+03  0.00000000000E+00 0. -1.
        -12    1    5    5    0    0 -0.18703895058E+02 -0.54305795944E+02  0.21974379213E+03  0.22712615292E+03  0.00000000000E+00 0.  1.
          5    1    4    4  501    0  0.72838318130E+02  0.40816136445E+02  0.55609360284E+02  0.10040543279E+03  0.41800000000E+01 0.  1.
         -5    1    4    4    0  501 -0.52589069660E+02  0.22966332009E+02  0.24705507867E+02  0.62617067742E+02  0.41800000000E+01 0.  1.
</event>
<event>
11    1  0.6930157E-009  0.1328410E+03  0.7561462E-02  0.1115827E+00
         22   -1    0    0    0    0  0.00000000000E+00  0.00000000000E+00  0.44463043830E+03  0.44463043830E+03  0.00000000000E+00 0.  1.
         22   -1    0    0    0    0 -0.00000000000E+00 -0.00000000000E+00 -0.50656033358E+03  0.50656033358E+03  0.00000000000E+00 0. -1.
        -24    2    1    2    0    0 -0.63940127685E+01 -0.20023870779E+02 -0.42622999819E+03  0.43459892699E+03  0.82233674303E+02 0.  0.
         25    2    1    2    0    0  0.18468331449E+02 -0.24276835157E+02 -0.12482806126E+02  0.12935887212E+03  0.12508978118E+03 0.  0.
         24    2    1    2    0    0 -0.12074318680E+02  0.44300705936E+02  0.37678290903E+03  0.38723297277E+03  0.76652938265E+02 0.  0.
        -13    1    5    5    0    0 -0.20940786867E+02  0.46069573223E+02  0.37450584242E+03  0.37790944436E+03  0.00000000000E+00 0.  1.
         14    1    5    5    0    0  0.88664681864E+01 -0.17688672865E+01  0.22770666074E+01  0.93235284046E+01  0.00000000000E+00 0. -1.
         13    1    3    3    0    0  0.61370198408E+01 -0.41706244103E+02 -0.37715408746E+03  0.37950267390E+03  0.00000000000E+00 0. -1.
        -14    1    3    3    0    0 -0.12531032609E+02  0.21682373324E+02 -0.49075910722E+02  0.55096253089E+02  0.00000000000E+00 0.  1.
          5    1    4    4  501    0  0.20494800494E+01  0.48473807330E+02 -0.23122261742E+02  0.53907529656E+02  0.41800000000E+01 0.  1.
         -5    1    4    4    0  501  0.16418851399E+02 -0.72750642487E+02  0.10639455616E+02  0.75451342462E+02  0.41800000000E+01 0.  1.
</event>
<event>
11    1  0.6930157E-009  0.1490166E+03  0.7561462E-02  0.1097888E+00
         22   -1    0    0    0    0  0.00000000000E+00  0.00000000000E+00  0.11155613984E+04  0.11155613984E+04  0.00000000000E+00 0.  1.
         22   -1    0    0    0    0 -0.00000000000E+00 -0.00000000000E+00 -0.10981028633E+03  0.10981028633E+03  0.00000000000E+00 0.  1.
         24    2    1    2    0    0 -0.48109389892E+02 -0.58378897572E+02 -0.36370163207E+02  0.12293688218E+03  0.89822486884E+02 0.  0.
         25    2    1    2    0    0  0.42817041340E+02  0.11409467681E+03  0.26213660419E+03  0.31498328415E+03  0.12509186918E+03 0.  0.
        -24    2    1    2    0    0  0.52923485523E+01 -0.55715779237E+02  0.77998467105E+03  0.78745151836E+03  0.92582664098E+02 0.  0.
        -11    1    3    3    0    0  0.10403056710E+02 -0.50648637565E+02 -0.37553072438E+02  0.63904157342E+02  0.00000000000E+00 0.  1.
         12    1    3    3    0    0 -0.58512446602E+02 -0.77302600072E+01  0.11829092308E+01  0.59032724834E+02  0.00000000000E+00 0. -1.
         13    1    5    5    0    0 -0.15102691998E+02  0.35269720028E+01  0.51219526769E+03  0.51243001774E+03  0.00000000000E+00 0. -1.
        -14    1    5    5    0    0  0.20395040550E+02 -0.59242751240E+02  0.26778940336E+03  0.27502150062E+03  0.00000000000E+00 0.  1.
          5    1    4    4  501    0  0.49942065928E+02  0.10790927938E+03  0.27432339683E+03  0.29901408156E+03  0.41800000000E+01 0.  1.
         -5    1    4    4    0  501 -0.71250245876E+01  0.61853974266E+01 -0.12186792635E+02  0.15969202592E+02  0.41800000000E+01 0.  1.
</event>
<event>
11    1  0.6930157E-009  0.1769797E+03  0.7561462E-02  0.1072112E+00
         22   -1    0    0    0    0  0.00000000000E+00  0.00000000000E+00  0.13174986157E+04  0.13174986157E+04  0.00000000000E+00 0.  1.
         22   -1    0    0    0    0 -0.00000000000E+00 -0.00000000000E+00 -0.29773123353E+03  0.29773123353E+03  0.00000000000E+00 0. -1.
         24    2    1    2    0    0  0.11306999822E+03 -0.29442273477E+02 -0.18080405005E+03  0.23013015540E+03  0.81351778977E+02 0.  0.
         25    2    1    2    0    0 -0.18051256959E+03 -0.24162022945E+02  0.47322714094E+02  0.22595423388E+03  0.12508910986E+03 0.  0.
        -24    2    1    2    0    0  0.67442571365E+02  0.53604296421E+02  0.11532487182E+04  0.11591454600E+04  0.78826838273E+02 0.  0.
        -11    1    3    3    0    0  0.10071340151E+02 -0.67037439618E+01 -0.90413405794E+02  0.91219274405E+02  0.00000000000E+00 0.  1.
         12    1    3    3    0    0  0.10299865807E+03 -0.22738529515E+02 -0.90390644258E+02  0.13891088099E+03  0.00000000000E+00 0. -1.
         13    1    5    5    0    0 -0.51417178006E+01 -0.12646647230E+02  0.62239120835E+02  0.63718781458E+02  0.00000000000E+00 0. -1.
        -14    1    5    5    0    0  0.72584289166E+02  0.66250943651E+02  0.10910095973E+04  0.10954266785E+04  0.00000000000E+00 0.  1.
          5    1    4    4  501    0 -0.14907755761E+02  0.34472243397E+02  0.32073361670E+02  0.49565609807E+02  0.41800000000E+01 0. -1.
         -5    1    4    4    0  501 -0.16560481383E+03 -0.58634266342E+02  0.15249352424E+02  0.17638862407E+03  0.41800000000E+01 0. -1.
</event>
<event>
11    1  0.6930157E-009  0.1464240E+03  0.7561462E-02  0.1100590E+00
         22   -1    0    0    0    0  0.00000000000E+00  0.00000000000E+00  0.12436778506E+03  0.12436778506E+03  0.00000000000E+00 0. -1.
         22   -1    0    0    0    0 -0.00000000000E+00 -0.00000000000E+00 -0.78315631561E+03  0.78315631561E+03  0.00000000000E+00 0. -1.
         24    2    1    2    0    0 -0.37585290447E+02 -0.46508099697E+02 -0.58568930464E+03  0.59415820974E+03  0.80102179931E+02 0.  0.
         25    2    1    2    0    0  0.93393936314E+02  0.80658903596E+02 -0.10771978972E+03  0.20610438549E+03  0.12508868275E+03 0.  0.
        -24    2    1    2    0    0 -0.55808645868E+02 -0.34150803899E+02  0.34620563801E+02  0.10726150545E+03  0.77624511283E+02 0.  0.
        -11    1    3    3    0    0  0.41139324442E+01 -0.70677829905E+01 -0.39341201002E+03  0.39349699825E+03  0.00000000000E+00 0.  1.
         12    1    3    3    0    0 -0.41699222891E+02 -0.39440316707E+02 -0.19227729462E+03  0.20066121149E+03  0.00000000000E+00 0. -1.
         13    1    5    5    0    0 -0.51177913940E+02  0.25879987687E+01  0.45646158338E+02  0.68625420828E+02  0.00000000000E+00 0. -1.
        -14    1    5    5    0    0 -0.46307319280E+01 -0.36738802668E+02 -0.11025594537E+02  0.38636084617E+02  0.00000000000E+00 0.  1.
          5    1    4    4  501    0  0.58232498951E+02  0.86982724466E+01  0.13693075107E+02  0.60594195956E+02  0.41800000000E+01 0. -1.
         -5    1    4    4    0  501  0.35161437363E+02  0.71960631150E+02 -0.12141286482E+03  0.14551018953E+03  0.41800000000E+01 0. -1.
</event>
<event>
11    1  0.6930157E-009  0.3517957E+03  0.7561462E-02  0.9803779E-01
         22   -1    0    0    0    0  0.00000000000E+00  0.00000000000E+00  0.74159439298E+03  0.74159439298E+03  0.00000000000E+00 0.  1.
         22   -1    0    0    0    0 -0.00000000000E+00 -0.00000000000E+00 -0.17959828366E+04  0.17959828366E+04  0.00000000000E+00 0. -1.
        -24    2    1    2    0    0  0.19789128410E+03 -0.20308325285E+03 -0.93673377267E+03  0.98189495762E+03  0.79017586829E+02 0.  0.
         25    2    1    2    0    0 -0.23681065925E+03  0.48247812933E+03 -0.70717156600E+03  0.89699694254E+03  0.12508979795E+03 0.  0.
         24    2    1    2    0    0  0.38919375143E+02 -0.27939487648E+03  0.58951689509E+03  0.65868532937E+03  0.82219090005E+02 0.  0.
        -11    1    5    5    0    0  0.21927073883E+02 -0.26942862174E+03  0.51530812525E+03  0.58190638657E+03  0.00000000000E+00 0.  1.
         12    1    5    5    0    0  0.16992301260E+02 -0.99662547371E+01  0.74208769845E+02  0.76778942800E+02  0.00000000000E+00 0. -1.
         13    1    3    3    0    0  0.20421489023E+03 -0.18904919970E+03 -0.90070576423E+03  0.94271639161E+03  0.00000000000E+00 0. -1.
        -14    1    3    3    0    0 -0.63236061252E+01 -0.14034053155E+02 -0.36028008445E+02  0.39178566013E+02  0.00000000000E+00 0.  1.
          5    1    4    4  501    0 -0.12811680990E+01 -0.49618952612E+01 -0.28926545019E+00  0.66195068383E+01  0.41800000000E+01 0.  1.
         -5    1    4    4    0  501 -0.23552949115E+03  0.48744002459E+03 -0.70688230055E+03  0.89037743570E+03  0.41800000000E+01 0.  1.
</event>
<event>
11    1  0.6930157E-009  0.1513675E+03  0.7561462E-02  0.1095490E+00
         22   -1    0    0    0    0  0.00000000000E+00  0.00000000000E+00  0.10339127817E+03  0.10339127817E+03  0.00000000000E+00 0. -1.
         22   -1    0    0    0    0 -0.00000000000E+00 -0.00000000000E+00 -0.16442477557E+04  0.16442477557E+04  0.00000000000E+00 0.  1.
        -24    2    1    2    0    0 -0.16455951554E+00 -0.31062646308E+02 -0.10138017568E+04  0.10171262579E+04  0.76071724572E+02 0.  0.
         25    2    1    2    0    0 -0.64952040481E+02  0.84262428903E+02 -0.58067340610E+03  0.60344610090E+03  0.12508664058E+03 0.  0.
         24    2    1    2    0    0  0.65116599997E+02 -0.53199782595E+02  0.53618685386E+02  0.12706667509E+03  0.78743812657E+02 0.  0.
        -11    1    5    5    0    0  0.13730633912E+02 -0.39637241717E+02 -0.11033227210E+02  0.43374800763E+02  0.00000000000E+00 0.  1.
         12    1    5    5    0    0  0.51385966085E+02 -0.13562540878E+02  0.64651912595E+02  0.83691874324E+02  0.00000000000E+00 0. -1.
         13    1    3    3    0    0  0.27378109310E+02  0.12917241346E+02 -0.36832428850E+03  0.36956622883E+03  0.00000000000E+00 0. -1.
        -14    1    3    3    0    0 -0.27542668825E+02 -0.43979887653E+02 -0.64547746829E+03  0.64756002902E+03  0.00000000000E+00 0.  1.
          5    1    4    4  501    0 -0.10208906227E+03  0.52503204093E+02 -0.39000255600E+03  0.40656884923E+03  0.41800000000E+01 0. -1.
         -5    1    4    4    0  501  0.37137021790E+02  0.31759224809E+02 -0.19067085009E+03  0.19687725167E+03  0.41800000000E+01 0. -1.
</event>
<event>
11    1  0.6930157E-009  0.1371267E+03  0.7561462E-02  0.1110810E+00
         22   -1    0    0    0    0  0.00000000000E+00  0.00000000000E+00  0.55439726823E+03  0.55439726823E+03  0.00000000000E+00 0. -1.
         22   -1    0    0    0    0 -0.00000000000E+00 -0.00000000000E+00 -0.19830236339E+03  0.19830236339E+03  0.00000000000E+00 0.  1.
         24    2    1    2    0    0  0.19758106438E+02  0.26093757065E+02 -0.10722184534E+03  0.12618326368E+03  0.57917397957E+02 0.  0.
         25    2    1    2    0    0 -0.74718498650E+02 -0.22836090194E+02 -0.57034868574E+01  0.14759384550E+03  0.12508825848E+03 0.  0.
        -24    2    1    2    0    0  0.54960392212E+02 -0.32576668713E+01  0.46902023704E+03  0.47892252244E+03  0.79721657319E+02 0.  0.
        -13    1    3    3    0    0  0.13883541422E+02  0.24999464835E+02 -0.11377564078E+03  0.11731420374E+03  0.00000000000E+00 0.  1.
         14    1    3    3    0    0  0.58745650157E+01  0.10942922297E+01  0.65537954350E+01  0.88690599396E+01  0.00000000000E+00 0. -1.
         11    1    5    5    0    0  0.72380185459E+02 -0.62084060295E+01  0.42993776911E+03  0.43603201816E+03  0.00000000000E+00 0. -1.
        -12    1    5    5    0    0 -0.17419793247E+02  0.29507391581E+01  0.39082467929E+02  0.42890504284E+02  0.00000000000E+00 0.  1.
          5    1    4    4  501    0 -0.64760758089E+02  0.29847492302E+02  0.35575263698E+02  0.79799125134E+02  0.41800000000E+01 0.  1.
         -5    1    4    4    0  501 -0.99577405614E+01 -0.52683582496E+02 -0.41278750555E+02  0.67794720363E+02  0.41800000000E+01 0.  1.
</event>
<event>
11    1  0.6930157E-009  0.1391292E+03  0.7561462E-02  0.1108535E+00
         22   -1    0    0    0    0  0.00000000000E+00  0.00000000000E+00  0.99830114426E+03  0.99830114426E+03  0.00000000000E+00 0.  1.
         22   -1    0    0    0    0 -0.00000000000E+00 -0.00000000000E+00 -0.29505498221E+03  0.29505498221E+03  0.00000000000E+00 0. -1.
         24    2    1    2    0    0  0.24607217959E+02 -0.15311214343E+02 -0.23501409604E+03  0.25004813875E+03  0.80327441699E+02 0.  0.
         25    2    1    2    0    0 -0.74069672986E+02 -0.19117815436E+02  0.58590217970E+02  0.15789793227E+03  0.12508851286E+03 0.  0.
        -24    2    1    2    0    0  0.49462455027E+02  0.34429029779E+02  0.87967004013E+03  0.88541005546E+03  0.80620681277E+02 0.  0.
        -13    1    3    3    0    0  0.42036060773E+02 -0.24039028762E+02 -0.77862179312E+02  0.91692007702E+02  0.00000000000E+00 0.  1.
         14    1    3    3    0    0 -0.17428842814E+02  0.87278144186E+01 -0.15715191673E+03  0.15835613104E+03  0.00000000000E+00 0. -1.
         11    1    5    5    0    0  0.45728697639E+02  0.12156698672E+02  0.20611189165E+03  0.21147342857E+03  0.00000000000E+00 0. -1.
        -12    1    5    5    0    0  0.37337573884E+01  0.22272331107E+02  0.67355814848E+03  0.67393662689E+03  0.00000000000E+00 0.  1.
          5    1    4    4  501    0  0.10816515774E+02  0.40944226822E+02  0.16833829757E+02  0.45763270729E+02  0.41800000000E+01 0. -1.
         -5    1    4    4    0  501 -0.84886188760E+02 -0.60062042258E+02  0.41756388214E+02  0.11213466154E+03  0.41800000000E+01 0. -1.
</event>
<event>
11    1  0.6930157E-009  0.1363938E+03  0.7561462E-02  0.1111653E+00
         22   -1    0    0    0    0  0.00000000000E+00  0.00000000000E+00  0.14559647830E+03  0.14559647830E+03  0.00000000000E+00 0. -1.
         22   -1    0    0    0    0 -0.00000000000E+00 -0.00000000000E+00 -0.11841842335E+04  0.11841842335E+04  0.00000000000E+00 0. -1.
        -24    2    1    2    0    0  0.49515453431E+02 -0.26229333777E+02 -0.91903300844E+03  0.92418075822E+03  0.79678385846E+02 0.  0.
         25    2    1    2    0    0 -0.23629456548E+02  0.44482390713E+02 -0.23190584083E+03  0.26826224221E+03  0.12508907741E+03 0.  0.
         24    2    1    2    0    0 -0.25885996883E+02 -0.18253056935E+02  0.11235109406E+03  0.13733771137E+03  0.72357582213E+02 0.  0.
        -13    1    5    5    0    0 -0.16855928021E+02  0.93021175301E+01 -0.20106661407E+01  0.19357026588E+02  0.00000000000E+00 0.  1.
         14    1    5    5    0    0 -0.90300688618E+01 -0.27555174465E+02  0.11436176020E+03  0.11798068478E+03  0.00000000000E+00 0. -1.
         11    1    3    3    0    0  0.50759004270E+02 -0.50969142516E+02 -0.63184716267E+03  0.63592858639E+03  0.00000000000E+00 0. -1.
        -12    1    3    3    0    0 -0.12435508393E+01  0.24739808739E+02 -0.28718584577E+03  0.28825217183E+03  0.00000000000E+00 0.  1.
          5    1    4    4  501    0  0.16635625116E+02  0.73445751076E+02 -0.18534882694E+03  0.20010667761E+03  0.41800000000E+01 0.  1.
         -5    1    4    4    0  501 -0.40265081664E+02 -0.28963360364E+02 -0.46557013886E+02  0.68155564607E+02  0.41800000000E+01 0.  1.
</event>
<event>
11    1  0.6930157E-009  0.1545007E+03  0.7561462E-02  0.1092367E+00
         22   -1    0    0    0    0  0.00000000000E+00  0.00000000000E+00  0.99382439939E+02  0.99382439939E+02  0.00000000000E+00 0.  1.
         22   -1    0    0    0    0 -0.00000000000E+00 -0.00000000000E+00 -0.18305264654E+04  0.18305264654E+04  0.00000000000E+00 0. -1.
        -24    2    1    2    0    0 -0.49351543607E+02 -0.76708630607E+02 -0.15724541753E+04  0.15771845260E+04  0.81111692710E+02 0.  0.
         25    2    1    2    0    0  0.58307916762E+02  0.64145878649E+02 -0.22129878860E+03  0.26857265858E+03  0.12507442663E+03 0.  0.
         24    2    1    2    0    0 -0.89563731551E+01  0.12562751958E+02  0.62608938382E+02  0.84151720837E+02  0.54070265375E+02 0.  0.
        -11    1    5    5    0    0 -0.12419978084E+02 -0.12654896368E+02  0.54692096115E+02  0.57494587877E+02  0.00000000000E+00 0.  1.
         12    1    5    5    0    0  0.34636049288E+01  0.25217648326E+02  0.79168422675E+01  0.26657132961E+02  0.00000000000E+00 0. -1.
         11    1    3    3    0    0 -0.36111964337E+02 -0.88359308056E+02 -0.14792473848E+04  0.14823239412E+04  0.00000000000E+00 0. -1.
        -12    1    3    3    0    0 -0.13239579270E+02  0.11650677449E+02 -0.93206790515E+02  0.94860584768E+02  0.00000000000E+00 0.  1.
          5    1    4    4  501    0  0.20934976247E+02 -0.49555909240E+01  0.10125489819E+02  0.24141852786E+02  0.41800000000E+01 0. -1.
         -5    1    4    4    0  501  0.37372940515E+02  0.69101469573E+02 -0.23142427842E+03  0.24443080579E+03  0.41800000000E+01 0. -1.
</event>
<event>
11    1  0.6930157E-009  0.1476472E+03  0.7561462E-02  0.1099307E+00
         22   -1    0    0    0    0  0.00000000000E+00  0.00000000000E+00  0.30454526029E+03  0.30454526029E+03  0.00000000000E+00 0. -1.
         22   -1    0    0    0    0 -0.00000000000E+00 -0.00000000000E+00 -0.16849480974E+04  0.16849480974E+04  0.00000000000E+00 0. -1.
        -24    2    1    2    0    0 -0.56469390941E+01 -0.27391960732E+02 -0.14571901375E+04  0.14596837946E+04  0.80569697477E+02 0.  0.
         25    2    1    2    0    0 -0.96219281226E+01 -0.50883521737E+02 -0.19437068170E+03  0.23688334920E+03  0.12510813299E+03 0.  0.
         24    2    1    2    0    0  0.15268867217E+02  0.78275482468E+02  0.27115798209E+03  0.29292621382E+03  0.76934556782E+02 0.  0.
        -11    1    5    5    0    0  0.21451470850E+01  0.75749851942E+02  0.26889778480E+03  0.27937190338E+03  0.00000000000E+00 0.  1.
         12    1    5    5    0    0  0.13123720132E+02  0.25256305260E+01  0.22601972875E+01  0.13554310437E+02  0.00000000000E+00 0. -1.
         11    1    3    3    0    0 -0.45565074685E+01 -0.39550601461E+02 -0.14196615992E+04  0.14202197252E+04  0.00000000000E+00 0. -1.
        -12    1    3    3    0    0 -0.10904316256E+01  0.12158640729E+02 -0.37528538304E+02  0.39464069389E+02  0.00000000000E+00 0.  1.
          5    1    4    4  501    0  0.52299611637E+01 -0.87328925073E+02 -0.91501798317E+02  0.12666390624E+03  0.41800000000E+01 0.  1.
         -5    1    4    4    0  501 -0.14851889286E+02  0.36445403336E+02 -0.10286888338E+03  0.11021944296E+03  0.41800000000E+01 0.  1.
</event>
<event>
11    1  0.6930157E-009  0.1287562E+03  0.7561462E-02  0.1120807E+00
         22   -1    0    0    0    0  0.00000000000E+00  0.00000000000E+00  0.51854326372E+03  0.51854326372E+03  0.00000000000E+00 0. -1.
         22   -1    0    0    0    0 -0.00000000000E+00 -0.00000000000E+00 -0.18250386188E+03  0.18250386188E+03  0.00000000000E+00 0.  1.
         24    2    1    2    0    0  0.12333939380E+02 -0.35746570463E+02 -0.85057948785E+02  0.12288910837E+03  0.80230511300E+02 0.  0.
         25    2    1    2    0    0 -0.73052060951E+01  0.80152908358E+01 -0.21453413365E+02  0.12737915802E+03  0.12509032748E+03 0.  0.
        -24    2    1    2    0    0 -0.50287332847E+01  0.27731279627E+02  0.44255076398E+03  0.45077885921E+03  0.80969680640E+02 0.  0.
        -13    1    3    3    0    0  0.21132382169E+02 -0.38301416401E+02 -0.97833504346E+02  0.10716795532E+03  0.00000000000E+00 0.  1.
         14    1    3    3    0    0 -0.87984427894E+01  0.25548459378E+01  0.12775555562E+02  0.15721153049E+02  0.00000000000E+00 0. -1.
         11    1    5    5    0    0  0.17610620927E+02  0.25229298357E+02  0.40941611094E+03  0.41057058268E+03  0.00000000000E+00 0. -1.
        -12    1    5    5    0    0 -0.22639354212E+02  0.25019812699E+01  0.33134653040E+02  0.40208276530E+02  0.00000000000E+00 0.  1.
          5    1    4    4  501    0  0.17448204184E+02  0.43993214833E+02 -0.54612674947E+02  0.72386873433E+02  0.41800000000E+01 0.  1.
         -5    1    4    4    0  501 -0.24753410279E+02 -0.35977923997E+02  0.33159261582E+02  0.54992284588E+02  0.41800000000E+01 0.  1.
</event>
<event>
11    1  0.6930157E-009  0.1372473E+03  0.7561462E-02  0.1110672E+00
         22   -1    0    0    0    0  0.00000000000E+00  0.00000000000E+00  0.43787261171E+03  0.43787261171E+03  0.00000000000E+00 0.  1.
         22   -1    0    0    0    0 -0.00000000000E+00 -0.00000000000E+00 -0.57940063447E+03  0.57940063447E+03  0.00000000000E+00 0. -1.
        -24    2    1    2    0    0  0.55783936593E+02 -0.13783380545E+02 -0.47622195651E+03  0.48675255228E+03  0.82697437249E+02 0.  0.
         25    2    1    2    0    0 -0.49110726970E+02 -0.17402780013E+01 -0.45233546198E+02  0.14180440277E+03  0.12509005905E+03 0.  0.
         24    2    1    2    0    0 -0.66732096228E+01  0.15523658546E+02  0.37992747994E+03  0.38871629113E+03  0.80435994893E+02 0.  0.
        -11    1    5    5    0    0 -0.38043994301E+02  0.27047450449E+02  0.26283211105E+03  0.26694499186E+03  0.00000000000E+00 0.  1.
         12    1    5    5    0    0  0.31370784678E+02 -0.11523791903E+02  0.11709536889E+03  0.12177129927E+03  0.00000000000E+00 0. -1.
         13    1    3    3    0    0  0.34632921231E+02 -0.23643581167E+02 -0.44875752640E+03  0.45071251997E+03  0.00000000000E+00 0. -1.
        -14    1    3    3    0    0  0.21151015362E+02  0.98602006223E+01 -0.27464430112E+02  0.36040032305E+02  0.00000000000E+00 0.  1.
          5    1    4    4  501    0 -0.48092444217E+02 -0.59412206358E+02 -0.26727600281E+02  0.81083478415E+02  0.41800000000E+01 0. -1.
         -5    1    4    4    0  501 -0.10182827534E+01  0.57671928357E+02 -0.18505945917E+02  0.60720924354E+02  0.41800000000E+01 0. -1.
</event>
<event>
11    1  0.6930157E-009  0.1532154E+03  0.7561462E-02  0.1093638E+00
         22   -1    0    0    0    0  0.00000000000E+00  0.00000000000E+00  0.10903358571E+04  0.10903358571E+04  0.00000000000E+00 0. -1.
         22   -1    0    0    0    0 -0.00000000000E+00 -0.00000000000E+00 -0.32709515284E+03  0.32709515284E+03  0.00000000000E+00 0. -1.
         24    2    1    2    0    0 -0.54568820843E+02 -0.72739634218E+02 -0.29819506377E+03  0.32153298367E+03  0.78704211695E+02 0.  0.
         25    2    1    2    0    0  0.21260585174E+02  0.15229855192E+02  0.28565163766E+03  0.31293945370E+03  0.12510108958E+03 0.  0.
        -24    2    1    2    0    0  0.33308235669E+02  0.57509779027E+02  0.77578413033E+03  0.78295857252E+03  0.82257499130E+02 0.  0.
        -13    1    3    3    0    0  0.15168267079E+02 -0.21203780556E+02 -0.30395990640E+02  0.40044885854E+02  0.00000000000E+00 0.  1.
         14    1    3    3    0    0 -0.69737087922E+02 -0.51535853662E+02 -0.26779907313E+03  0.28148809782E+03  0.00000000000E+00 0. -1.
         11    1    5    5    0    0  0.15407162406E+02  0.31367690833E+02  0.69928565324E+03  0.70015836602E+03  0.00000000000E+00 0. -1.
        -12    1    5    5    0    0  0.17901073263E+02  0.26142088194E+02  0.76498477085E+02  0.82800206494E+02  0.00000000000E+00 0.  1.
          5    1    4    4  501    0  0.28158785330E+02  0.56725522641E+02  0.24909232632E+03  0.25705089290E+03  0.41800000000E+01 0. -1.
         -5    1    4    4    0  501 -0.68982001562E+01 -0.41495667450E+02  0.36559311338E+02  0.55888560797E+02  0.41800000000E+01 0. -1.
</event>
<event>
11    1  0.6930157E-009  0.2420440E+03  0.7561462E-02  0.1028225E+00
         22   -1    0    0    0    0  0.00000000000E+00  0.00000000000E+00  0.16850628456E+04  0.16850628456E+04  0.00000000000E+00 0. -1.
         22   -1    0    0    0    0 -0.00000000000E+00 -0.00000000000E+00 -0.14715236164E+04  0.14715236164E+04  0.00000000000E+00 0. -1.
         24    2    1    2    0    0  0.57060535426E+02  0.19907588111E+03 -0.13271022907E+04  0.13449427194E+04  0.69161530841E+02 0.  0.
         25    2    1    2    0    0 -0.80028580945E+02 -0.19408168494E+03 -0.23224939224E+02  0.24547871685E+03  0.12509247951E+03 0.  0.
        -24    2    1    2    0    0  0.22968045519E+02 -0.49941961760E+01  0.15638664591E+04  0.15661650258E+04  0.81499159460E+02 0.  0.
        -11    1    3    3    0    0  0.10226126622E+02  0.60989119919E+02 -0.61262006680E+03  0.61573337790E+03  0.00000000000E+00 0.  1.
         12    1    3    3    0    0  0.46834408805E+02  0.13808676119E+03 -0.71448222391E+03  0.72920934151E+03  0.00000000000E+00 0. -1.
         11    1    5    5    0    0  0.47090283226E+02  0.92778240380E+01  0.12844369293E+04  0.12853333413E+04  0.00000000000E+00 0. -1.
        -12    1    5    5    0    0 -0.24122237707E+02 -0.14272020214E+02  0.27942952976E+03  0.28083168450E+03  0.00000000000E+00 0.  1.
          5    1    4    4  501    0 -0.28331479600E+02 -0.71943465187E+02 -0.70395421501E+02  0.10464952311E+03  0.41800000000E+01 0. -1.
         -5    1    4    4    0  501 -0.51697101345E+02 -0.12213821975E+03  0.47170482277E+02  0.14082919374E+03  0.41800000000E+01 0. -1.
</event>
<event>
11    1  0.6930157E-009  0.1515861E+03  0.7561462E-02  0.1095269E+00
         22   -1    0    0    0    0  0.00000000000E+00  0.00000000000E+00  0.14853214549E+04  0.14853214549E+04  0.00000000000E+00 0. -1.
         22   -1    0    0    0    0 -0.00000000000E+00 -0.00000000000E+00 -0.20493408844E+03  0.20493408844E+03  0.00000000000E+00 0.  1.
        -24    2    1    2    0    0  0.23641719756E+01  0.32044724711E+02 -0.16435384339E+03  0.18609657840E+03  0.81162164628E+02 0.  0.
         25    2    1    2    0    0  0.83264122014E+02 -0.23195696857E+02  0.18717779930E+03  0.24115281568E+03  0.12509275595E+03 0.  0.
         24    2    1    2    0    0 -0.85628293989E+02 -0.88490278542E+01  0.12575634105E+04  0.12630061493E+04  0.79424753720E+02 0.  0.
        -11    1    5    5    0    0 -0.25792928303E+00  0.23770055357E+02  0.36595361548E+03  0.36672487063E+03  0.00000000000E+00 0.  1.
         12    1    5    5    0    0 -0.85370364706E+02 -0.32619083211E+02  0.89160979506E+03  0.89628127862E+03  0.00000000000E+00 0. -1.
         11    1    3    3    0    0  0.44618941498E+01 -0.26785878701E+02 -0.38031949912E+02  0.46731370741E+02  0.00000000000E+00 0. -1.
        -12    1    3    3    0    0 -0.20977221743E+01  0.58830603413E+02 -0.12632189347E+03  0.13936520766E+03  0.00000000000E+00 0.  1.
          5    1    4    4  501    0  0.51832825217E+02 -0.63561824424E+01  0.18936204524E+01  0.52422333253E+02  0.41800000000E+01 0. -1.
         -5    1    4    4    0  501  0.31431296797E+02 -0.16839514415E+02  0.18528417885E+03  0.18873048243E+03  0.41800000000E+01 0. -1.
</event>
<event>
11    1  0.6930157E-009  0.1345489E+03  0.7561462E-02  0.1113803E+00
         22   -1    0    0    0    0  0.00000000000E+00  0.00000000000E+00  0.17549062995E+03  0.17549062995E+03  0.00000000000E+00 0. -1.
         22   -1    0    0    0    0 -0.00000000000E+00 -0.00000000000E+00 -0.88997700377E+03  0.88997700377E+03  0.00000000000E+00 0.  1.
        -24    2    1    2    0    0  0.17863351587E+02  0.41886692875E+02 -0.58588301909E+03  0.59308648817E+03  0.80119136415E+02 0.  0.
         25    2    1    2    0    0 -0.58065499211E+02 -0.49774422269E+02 -0.26860191957E+03  0.30601230377E+03  0.12508974200E+03 0.  0.
         24    2    1    2    0    0  0.40202147624E+02  0.78877293939E+01  0.13999856484E+03  0.16636884177E+03  0.80003527471E+02 0.  0.
        -11    1    5    5    0    0 -0.40180700298E+01  0.33237309314E+02  0.29262773000E+02  0.44465419158E+02  0.00000000000E+00 0.  1.
         12    1    5    5    0    0  0.44220217654E+02 -0.25349579920E+02  0.11073579184E+03  0.12190342261E+03  0.00000000000E+00 0. -1.
         11    1    3    3    0    0  0.27938410836E+02  0.50902171798E+02 -0.23944817271E+03  0.24638793256E+03  0.00000000000E+00 0. -1.
        -12    1    3    3    0    0 -0.10075059249E+02 -0.90154789230E+01 -0.34643484638E+03  0.34669855561E+03  0.00000000000E+00 0.  1.
          5    1    4    4  501    0 -0.64868809802E+02 -0.42296477660E+02 -0.27980511606E+03  0.29035380122E+03  0.41800000000E+01 0. -1.
         -5    1    4    4    0  501  0.68033105915E+01 -0.74779446091E+01  0.11203196493E+02  0.15658502554E+02  0.41800000000E+01 0. -1.
</event>
<event>
11    1  0.6930157E-009  0.1515181E+03  0.7561462E-02  0.1095338E+00
         22   -1    0    0    0    0  0.00000000000E+00  0.00000000000E+00  0.12723034704E+04  0.12723034704E+04  0.00000000000E+00 0. -1.
         22   -1    0    0    0    0 -0.00000000000E+00 -0.00000000000E+00 -0.89332921493E+03  0.89332921493E+03  0.00000000000E+00 0. -1.
        -24    2    1    2    0    0  0.37640761728E+02 -0.77981543914E+02 -0.84579539037E+03  0.85372656681E+03  0.77338608470E+02 0.  0.
         25    2    1    2    0    0  0.47308997763E+02  0.49527320801E+02  0.84842927638E+02  0.16593949990E+03  0.12508596437E+03 0.  0.
         24    2    1    2    0    0 -0.84949759491E+02  0.28454223113E+02  0.11399267182E+04  0.11459666186E+04  0.76029360580E+02 0.  0.
        -11    1    5    5    0    0 -0.34103214588E+01 -0.21566234380E+02  0.20677496732E+03  0.20792455331E+03  0.00000000000E+00 0.  1.
         12    1    5    5    0    0 -0.81539438032E+02  0.50020457493E+02  0.93315175084E+03  0.93804206527E+03  0.00000000000E+00 0. -1.
         13    1    3    3    0    0  0.57446941321E+02 -0.71153846311E+02 -0.75645382722E+03  0.76196155653E+03  0.00000000000E+00 0. -1.
        -14    1    3    3    0    0 -0.19806179593E+02 -0.68276976021E+01 -0.89341563156E+02  0.91765010280E+02  0.00000000000E+00 0.  1.
          5    1    4    4  501    0  0.36361304749E+02 -0.38894272355E+02  0.30952588390E+02  0.61728794198E+02  0.41800000000E+01 0. -1.
         -5    1    4    4    0  501  0.10947693013E+02  0.88421593156E+02  0.53890339248E+02  0.10421070570E+03  0.41800000000E+01 0. -1.
</event>
<event>
11    1  0.6930157E-009  0.1337123E+03  0.7561462E-02  0.1114790E+00
         22   -1    0    0    0    0  0.00000000000E+00  0.00000000000E+00  0.17703309947E+04  0.17703309947E+04  0.00000000000E+00 0. -1.
         22   -1    0    0    0    0 -0.00000000000E+00 -0.00000000000E+00 -0.69527016755E+03  0.69527016755E+03  0.00000000000E+00 0.  1.
         24    2    1    2    0    0 -0.24046965171E+02  0.22724765380E+01 -0.67048951346E+03  0.67471477786E+03  0.71417246642E+02 0.  0.
         25    2    1    2    0    0  0.69212967827E+02  0.52683417629E+01  0.21933882660E+03  0.26186884856E+03  0.12509029798E+03 0.  0.
        -24    2    1    2    0    0 -0.45166002656E+02 -0.75408183009E+01  0.15262115140E+04  0.15290175358E+04  0.80474888705E+02 0.  0.
        -13    1    3    3    0    0 -0.40269229886E+02 -0.15737949024E+02 -0.55647980999E+03  0.55815685326E+03  0.00000000000E+00 0.  1.
         14    1    3    3    0    0  0.16222264715E+02  0.18010425562E+02 -0.11400970347E+03  0.11655792460E+03  0.00000000000E+00 0. -1.
         13    1    5    5    0    0 -0.45573701705E+02  0.19936122914E+02  0.13255605874E+04  0.13264936042E+04  0.00000000000E+00 0. -1.
        -14    1    5    5    0    0  0.40769904912E+00 -0.27476941215E+02  0.20065092665E+03  0.20252393163E+03  0.00000000000E+00 0.  1.
          5    1    4    4  501    0  0.11817156258E+02  0.51292255384E+02  0.35002448626E+02  0.63349699717E+02  0.41800000000E+01 0. -1.
         -5    1    4    4    0  501  0.57395811569E+02 -0.46023913621E+02  0.18433637798E+03  0.19851914884E+03  0.41800000000E+01 0. -1.
</event>
<event>
11    1  0.6930157E-009  0.1464855E+03  0.7561462E-02  0.1100525E+00
         22   -1    0    0    0    0  0.00000000000E+00  0.00000000000E+00  0.43495093498E+03  0.43495093498E+03  0.00000000000E+00 0.  1.
         22   -1    0    0    0    0 -0.00000000000E+00 -0.00000000000E+00 -0.11454109619E+04  0.11454109619E+04  0.00000000000E+00 0.  1.
        -24    2    1    2    0    0 -0.66308415342E+02  0.38077127767E+02 -0.78615251418E+03  0.79393773933E+03  0.80341052852E+02 0.  0.
         25    2    1    2    0    0  0.95296480859E+02  0.27051100483E+02 -0.33016623465E+03  0.36670616196E+03  0.12510190013E+03 0.  0.
         24    2    1    2    0    0 -0.28988065517E+02 -0.65128228250E+02  0.40585872193E+03  0.41971799557E+03  0.79748978514E+02 0.  0.
        -11    1    5    5    0    0  0.11092759686E+02 -0.36243325187E+02  0.30566355253E+03  0.30800460270E+03  0.00000000000E+00 0.  1.
         12    1    5    5    0    0 -0.40080825203E+02 -0.28884903062E+02  0.10019516940E+03  0.11171339286E+03  0.00000000000E+00 0. -1.
         11    1    3    3    0    0 -0.59666926163E+01 -0.28159875239E+01 -0.27445463206E+01  0.71458897989E+01  0.00000000000E+00 0. -1.
        -12    1    3    3    0    0 -0.60341722726E+02  0.40893115291E+02 -0.78340796786E+03  0.78679184953E+03  0.00000000000E+00 0.  1.
          5    1    4    4  501    0 -0.21165887580E+02 -0.17905718033E+02 -0.27473723982E+02  0.39254139205E+02  0.41800000000E+01 0. -1.
         -5    1    4    4    0  501  0.11646236844E+03  0.44956818515E+02 -0.30269251067E+03  0.32745202275E+03  0.41800000000E+01 0. -1.
</event>
<event>
11    1  0.6930157E-009  0.2247069E+03  0.7561462E-02  0.1038308E+00
         22   -1    0    0    0    0  0.00000000000E+00  0.00000000000E+00  0.13347578748E+03  0.13347578748E+03  0.00000000000E+00 0.  1.
         22   -1    0    0    0    0 -0.00000000000E+00 -0.00000000000E+00 -0.15916463994E+04  0.15916463994E+04  0.00000000000E+00 0. -1.
        -24    2    1    2    0    0 -0.14652485420E+02  0.48886148451E+02 -0.11084529997E+04  0.11124240652E+04  0.78833353224E+02 0.  0.
         25    2    1    2    0    0 -0.15358965176E+03  0.49357383952E+02 -0.34603520519E+03  0.40176390619E+03  0.12509172879E+03 0.  0.
         24    2    1    2    0    0  0.16824213718E+03 -0.98243532403E+02 -0.36824070848E+01  0.21093421547E+03  0.80761839712E+02 0.  0.
        -13    1    5    5    0    0  0.35276385226E+02 -0.22102871223E+02  0.33302644216E+02  0.53310659184E+02  0.00000000000E+00 0.  1.
         14    1    5    5    0    0  0.13296575195E+03 -0.76140661180E+02 -0.36985051300E+02  0.15762355629E+03  0.00000000000E+00 0. -1.
         11    1    3    3    0    0 -0.84698456391E+01  0.56950172508E+02 -0.10886013491E+04  0.10901229095E+04  0.00000000000E+00 0. -1.
        -12    1    3    3    0    0 -0.61826397809E+01 -0.80640240564E+01 -0.19851650517E+02  0.22301155730E+02  0.00000000000E+00 0.  1.
          5    1    4    4  501    0 -0.12476809489E+03  0.10599702674E+02 -0.13074724601E+03  0.18108491362E+03  0.41800000000E+01 0. -1.
         -5    1    4    4    0  501 -0.28821556866E+02  0.38757681278E+02 -0.21528795918E+03  0.22067899258E+03  0.41800000000E+01 0. -1.
</event>
<event>
11    1  0.6930157E-009  0.1489730E+03  0.7561462E-02  0.1097933E+00
         22   -1    0    0    0    0  0.00000000000E+00  0.00000000000E+00  0.41391717511E+03  0.41391717511E+03  0.00000000000E+00 0.  1.
         22   -1    0    0    0    0 -0.00000000000E+00 -0.00000000000E+00 -0.41124703028E+03  0.41124703028E+03  0.00000000000E+00 0. -1.
         24    2    1    2    0    0  0.66451768695E+02 -0.41390994270E+02 -0.29284118412E+03  0.31369110234E+03  0.80728536488E+02 0.  0.
         25    2    1    2    0    0 -0.58632508471E+02  0.87157192841E+02 -0.35695767641E+02  0.16719928764E+03  0.12508903487E+03 0.  0.
        -24    2    1    2    0    0 -0.78192602240E+01 -0.45766198571E+02  0.33120709659E+03  0.34427381540E+03  0.81673945547E+02 0.  0.
        -11    1    3    3    0    0 -0.72541882427E+00  0.20697478871E+02 -0.62936388781E+02  0.66256327221E+02  0.00000000000E+00 0.  1.
         12    1    3    3    0    0  0.67177187519E+02 -0.62088473141E+02 -0.22990479534E+03  0.24743477512E+03  0.00000000000E+00 0. -1.
         13    1    5    5    0    0 -0.22909801000E+02 -0.65329340510E+02  0.24644308737E+03  0.25598237640E+03  0.00000000000E+00 0. -1.
        -14    1    5    5    0    0  0.15090540776E+02  0.19563141939E+02  0.84764009219E+02  0.88291439009E+02  0.00000000000E+00 0.  1.
          5    1    4    4  501    0 -0.60363679225E+02  0.47748735817E+01  0.24097025085E+02  0.65304764032E+02  0.41800000000E+01 0. -1.
         -5    1    4    4    0  501  0.17311707543E+01  0.82382319259E+02 -0.59792792726E+02  0.10189452360E+03  0.41800000000E+01 0. -1.
</event>
<event>
11    1  0.6930157E-009  0.1360554E+03  0.7561462E-02  0.1112045E+00
         22   -1    0    0    0    0  0.00000000000E+00  0.00000000000E+00  0.41101421496E+03  0.41101421496E+03  0.00000000000E+00 0.  1.
         22   -1    0    0    0    0 -0.00000000000E+00 -0.00000000000E+00 -0.40107833418E+03  0.40107833418E+03  0.00000000000E+00 0. -1.
         24    2    1    2    0    0  0.63739767741E+00  0.44615186027E+01 -0.34679772539E+03  0.35563920739E+03  0.78678282090E+02 0.  0.
         25    2    1    2    0    0  0.13611883412E+01 -0.57232030083E+02  0.71303042651E+02  0.15494450912E+03  0.12508524659E+03 0.  0.
        -24    2    1    2    0    0 -0.19985860186E+01  0.52770511481E+02  0.28543056352E+03  0.30150883263E+03  0.81536791295E+02 0.  0.
        -13    1    3    3    0    0 -0.13374004679E+02 -0.19950197778E+02 -0.34281701080E+02  0.41858206143E+02  0.00000000000E+00 0.  1.
         14    1    3    3    0    0  0.14011402356E+02  0.24411716381E+02 -0.31251602431E+03  0.31378100125E+03  0.00000000000E+00 0. -1.
         11    1    5    5    0    0 -0.93746613046E+01 -0.20360946437E+02  0.48301956263E+02  0.53249707917E+02  0.00000000000E+00 0. -1.
        -12    1    5    5    0    0  0.73760752860E+01  0.73131457918E+02  0.23712860725E+03  0.24825912471E+03  0.00000000000E+00 0.  1.
          5    1    4    4  501    0 -0.48391480570E+02 -0.34706468828E+02  0.79649782729E+02  0.99538106568E+02  0.41800000000E+01 0. -1.
         -5    1    4    4    0  501  0.49752668912E+02 -0.22525561255E+02 -0.83467400781E+01  0.55406402551E+02  0.41800000000E+01 0. -1.
</event>
<event>
11    1  0.6930157E-009  0.1611787E+03  0.7561462E-02  0.1085974E+00
         22   -1    0    0    0    0  0.00000000000E+00  0.00000000000E+00  0.22324171100E+04  0.22324171100E+04  0.00000000000E+00 0. -1.
         22   -1    0    0    0    0 -0.00000000000E+00 -0.00000000000E+00 -0.68765210252E+02  0.68765210252E+02  0.00000000000E+00 0. -1.
         24    2    1    2    0    0 -0.97760877032E+02 -0.24392884862E+02  0.16474669989E+02  0.13460011737E+03  0.87713026024E+02 0.  0.
         25    2    1    2    0    0  0.10451557015E+03  0.41554773760E+02  0.83534963906E+03  0.85211859044E+03  0.12508704600E+03 0.  0.
        -24    2    1    2    0    0 -0.67546931208E+01 -0.17161888898E+02  0.13118275907E+04  0.13144636125E+04  0.81134483425E+02 0.  0.
        -13    1    3    3    0    0 -0.40189115456E+02  0.25435700692E+02  0.31424631386E+02  0.57005678038E+02  0.00000000000E+00 0.  1.
         14    1    3    3    0    0 -0.57571761576E+02 -0.49828585553E+02 -0.14949961397E+02  0.77594439330E+02  0.00000000000E+00 0. -1.
         13    1    5    5    0    0 -0.17880108896E+02 -0.41315983683E+02  0.11072517453E+04  0.11081665652E+04  0.00000000000E+00 0. -1.
        -14    1    5    5    0    0  0.11125415776E+02  0.24154094785E+02  0.20457584541E+03  0.20629704723E+03  0.00000000000E+00 0.  1.
          5    1    4    4  501    0  0.39238565134E+02 -0.61233769273E+01  0.57140911537E+02  0.69711669827E+02  0.41800000000E+01 0.  1.
         -5    1    4    4    0  501  0.65277005019E+02  0.47678150687E+02  0.77820872752E+03  0.78240692062E+03  0.41800000000E+01 0.  1.
</event>
<event>
11    1  0.6930157E-009  0.1532687E+03  0.7561462E-02  0.1093585E+00
         22   -1    0    0    0    0  0.00000000000E+00  0.00000000000E+00  0.20200518927E+04  0.20200518927E+04  0.00000000000E+00 0. -1.
         22   -1    0    0    0    0 -0.00000000000E+00 -0.00000000000E+00 -0.24879228307E+03  0.24879228307E+03  0.00000000000E+00 0. -1.
        -24    2    1    2    0    0 -0.82299325949E+02  0.32725177221E+02 -0.21857659116E+03  0.24912542190E+03  0.80272245230E+02 0.  0.
         25    2    1    2    0    0  0.85473171183E+02 -0.24582962521E+02  0.41020335269E+03  0.43797743975E+03  0.12508981626E+03 0.  0.
         24    2    1    2    0    0 -0.31738452338E+01 -0.81422147003E+01  0.15796328481E+04  0.15817413142E+04  0.81174386726E+02 0.  0.
        -11    1    5    5    0    0 -0.29747218226E+01 -0.17007711418E+02  0.70537140667E+02  0.72619552677E+02  0.00000000000E+00 0.  1.
         12    1    5    5    0    0 -0.19912341113E+00  0.88654967180E+01  0.15090957075E+04  0.15091217615E+04  0.00000000000E+00 0. -1.
         11    1    3    3    0    0 -0.30369994756E+02 -0.13400150490E+02 -0.14162726289E+03  0.14546539867E+03  0.00000000000E+00 0. -1.
        -12    1    3    3    0    0 -0.51929331193E+02  0.46125327711E+02 -0.76949328270E+02  0.10366002323E+03  0.00000000000E+00 0.  1.
          5    1    4    4  501    0  0.74111937445E+01  0.46354362440E+02  0.10685148342E+03  0.11678340900E+03  0.41800000000E+01 0.  1.
         -5    1    4    4    0  501  0.78061977438E+02 -0.70937324962E+02  0.30335186928E+03  0.32119403075E+03  0.41800000000E+01 0.  1.
</event>
<event>
11    1  0.6930157E-009  0.1401465E+03  0.7561462E-02  0.1107395E+00
         22   -1    0    0    0    0  0.00000000000E+00  0.00000000000E+00  0.22518343757E+03  0.22518343757E+03  0.00000000000E+00 0.  1.
         22   -1    0    0    0    0 -0.00000000000E+00 -0.00000000000E+00 -0.12218713619E+04  0.12218713619E+04  0.00000000000E+00 0.  1.
         24    2    1    2    0    0 -0.54737206673E+02 -0.71757775610E+01 -0.11142045302E+04  0.11184829550E+04  0.80651918669E+02 0.  0.
         25    2    1    2    0    0 -0.16689376730E+02  0.12147489789E+02 -0.43977833771E+02  0.13419364288E+03  0.12509111529E+03 0.  0.
        -24    2    1    2    0    0  0.71426583403E+02 -0.49717122284E+01  0.16149443965E+03  0.19437820156E+03  0.81092271312E+02 0.  0.
        -11    1    3    3    0    0 -0.33955477576E+02 -0.14348091816E+02 -0.10494693587E+04  0.10501165540E+04  0.00000000000E+00 0.  1.
         12    1    3    3    0    0 -0.20781729096E+02  0.71723142546E+01 -0.64735171504E+02  0.68366401000E+02  0.00000000000E+00 0. -1.
         11    1    5    5    0    0  0.25848755130E+02 -0.13349085341E+02  0.29982998451E+01  0.29246299307E+02  0.00000000000E+00 0. -1.
        -12    1    5    5    0    0  0.45577828273E+02  0.83773731122E+01  0.15849613980E+03  0.16513190226E+03  0.00000000000E+00 0.  1.
          5    1    4    4  501    0 -0.49551595766E+02  0.48673185198E+02 -0.22879874720E+01  0.69621454215E+02  0.41800000000E+01 0.  1.
         -5    1    4    4    0  501  0.32862219036E+02 -0.36525695409E+02 -0.41689846299E+02  0.64572188669E+02  0.41800000000E+01 0.  1.
</event>
<event>
11    1  0.6930157E-009  0.1590951E+03  0.7561462E-02  0.1087932E+00
         22   -1    0    0    0    0  0.00000000000E+00  0.00000000000E+00  0.19848371167E+03  0.19848371167E+03  0.00000000000E+00 0.  1.
         22   -1    0    0    0    0 -0.00000000000E+00 -0.00000000000E+00 -0.53850518383E+03  0.53850518383E+03  0.00000000000E+00 0. -1.
         24    2    1    2    0    0  0.92243914855E+02  0.35620210185E+02 -0.33444718878E+03  0.35845090982E+03  0.82791264426E+02 0.  0.
         25    2    1    2    0    0 -0.84272911260E+02 -0.49522743575E+02 -0.14606327651E+03  0.21570489363E+03  0.12505876493E+03 0.  0.
        -24    2    1    2    0    0 -0.79710035951E+01  0.13902533390E+02  0.14048899313E+03  0.16283309205E+03  0.80750488193E+02 0.  0.
        -13    1    3    3    0    0 -0.91886372205E+01 -0.82588387281E+01 -0.81267109117E+02  0.82200866756E+02  0.00000000000E+00 0.  1.
         14    1    3    3    0    0  0.10143255208E+03  0.43879048913E+02 -0.25318007967E+03  0.27625004307E+03  0.00000000000E+00 0. -1.
         11    1    5    5    0    0 -0.26497993398E+02 -0.18994104024E+02  0.24295122623E+02  0.40659225584E+02  0.00000000000E+00 0. -1.
        -12    1    5    5    0    0  0.18526989802E+02  0.32896637414E+02  0.11619387051E+03  0.12217386647E+03  0.00000000000E+00 0.  1.
          5    1    4    4  501    0 -0.98000944516E+02  0.37794559573E+01 -0.11889366360E+03  0.15418055992E+03  0.41800000000E+01 0. -1.
         -5    1    4    4    0  501  0.13728033255E+02 -0.53302199532E+02 -0.27169612907E+02  0.61524333702E+02  0.41800000000E+01 0. -1.
</event>
<event>
11    1  0.6930157E-009  0.1473360E+03  0.7561462E-02  0.1099632E+00
         22   -1    0    0    0    0  0.00000000000E+00  0.00000000000E+00  0.88212324729E+02  0.88212324729E+02  0.00000000000E+00 0. -1.
         22   -1    0    0    0    0 -0.00000000000E+00 -0.00000000000E+00 -0.74603025868E+03  0.74603025868E+03  0.00000000000E+00 0.  1.
         24    2    1    2    0    0  0.57004985679E+02 -0.58254559447E+02 -0.57538606597E+03  0.58689851125E+03  0.82082735682E+02 0.  0.
         25    2    1    2    0    0 -0.41686568006E+02  0.35064603964E+02 -0.88408424584E+02  0.16257860305E+03  0.12509378973E+03 0.  0.
        -24    2    1    2    0    0 -0.15318417673E+02  0.23189955482E+02  0.59765566085E+01  0.84765469111E+02  0.79856355848E+02 0.  0.
        -11    1    3    3    0    0  0.66801549691E+02 -0.69619016234E+02 -0.42747583794E+03  0.43822921683E+03  0.00000000000E+00 0.  1.
         12    1    3    3    0    0 -0.97965640123E+01  0.11364456787E+02 -0.14791022804E+03  0.14866929442E+03  0.00000000000E+00 0. -1.
         13    1    5    5    0    0 -0.28145606142E+02  0.24198999138E+02  0.36242777886E+02  0.51877795378E+02  0.00000000000E+00 0. -1.
        -14    1    5    5    0    0  0.12827188469E+02 -0.10090436561E+01 -0.30266221278E+02  0.32887673733E+02  0.00000000000E+00 0.  1.
          5    1    4    4  501    0  0.26189196142E+02  0.58075181174E+02 -0.32850214240E+02  0.71799788569E+02  0.41800000000E+01 0.  1.
         -5    1    4    4    0  501 -0.67875764148E+02 -0.23010577209E+02 -0.55558210344E+02  0.90778814482E+02  0.41800000000E+01 0.  1.
</event>
<event>
11    1  0.6930157E-009  0.1433571E+03  0.7561462E-02  0.1103867E+00
         22   -1    0    0    0    0  0.00000000000E+00  0.00000000000E+00  0.60849810571E+03  0.60849810571E+03  0.00000000000E+00 0. -1.
         22   -1    0    0    0    0 -0.00000000000E+00 -0.00000000000E+00 -0.33348618287E+03  0.33348618287E+03  0.00000000000E+00 0. -1.
         24    2    1    2    0    0  0.40003515083E+02 -0.56884053732E+02 -0.29820127552E+03  0.31688721928E+03  0.81593089371E+02 0.  0.
         25    2    1    2    0    0 -0.22123231924E+02  0.90786670278E+02  0.30839760637E+03  0.34566947901E+03  0.12508656288E+03 0.  0.
        -24    2    1    2    0    0 -0.17880283159E+02 -0.33902616546E+02  0.26481559199E+03  0.27942759030E+03  0.80519491575E+02 0.  0.
        -11    1    3    3    0    0 -0.19518011508E+02 -0.24844873705E+02 -0.46149015850E+02  0.55928098364E+02  0.00000000000E+00 0.  1.
         12    1    3    3    0    0  0.59521526591E+02 -0.32039180027E+02 -0.25205225967E+03  0.26095912092E+03  0.00000000000E+00 0. -1.
         11    1    5    5    0    0  0.80374796103E+00 -0.57019542028E+02  0.14101604180E+03  0.15210982292E+03  0.00000000000E+00 0. -1.
        -12    1    5    5    0    0 -0.18684031120E+02  0.23116925482E+02  0.12379955019E+03  0.12731776737E+03  0.00000000000E+00 0.  1.
          5    1    4    4  501    0  0.58788807828E+01  0.11449925242E+03  0.19319174977E+03  0.22468903983E+03  0.41800000000E+01 0.  1.
         -5    1    4    4    0  501 -0.28002112707E+02 -0.23712582138E+02  0.11520585660E+03  0.12098043917E+03  0.41800000000E+01 0.  1.
</event>
<event>
11    1  0.6930157E-009  0.1892540E+03  0.7561462E-02  0.1062394E+00
         22   -1    0    0    0    0  0.00000000000E+00  0.00000000000E+00  0.93997104905E+03  0.93997104905E+03  0.00000000000E+00 0. -1.
         22   -1    0    0    0    0 -0.00000000000E+00 -0.00000000000E+00 -0.15774887675E+03  0.15774887675E+03  0.00000000000E+00 0. -1.
        -24    2    1    2    0    0  0.10238669880E+03 -0.32564903991E+02 -0.72074042419E+02  0.15209221286E+03  0.79961644300E+02 0.  0.
         25    2    1    2    0    0  0.48699025736E+02 -0.42526066424E+02  0.11099094453E+03  0.17930027798E+03  0.12509811543E+03 0.  0.
         24    2    1    2    0    0 -0.15108572453E+03  0.75090970415E+02  0.74330527020E+03  0.76632743495E+03  0.79306133853E+02 0.  0.
        -13    1    5    5    0    0  0.49638017088E+00  0.97997330884E+01  0.78089064100E+01  0.12540342148E+02  0.00000000000E+00 0.  1.
         14    1    5    5    0    0 -0.15158210471E+03  0.65291237327E+02  0.73549636379E+03  0.75378709281E+03  0.00000000000E+00 0. -1.
         11    1    3    3    0    0  0.77252840429E+02 -0.13951933135E+02 -0.87217249712E+02  0.11734354026E+03  0.00000000000E+00 0. -1.
        -12    1    3    3    0    0  0.25133858369E+02 -0.18612970856E+02  0.15143207292E+02  0.34748672603E+02  0.00000000000E+00 0.  1.
          5    1    4    4  501    0 -0.26739137834E+02 -0.10320467621E+00  0.84444959029E+02  0.88675902300E+02  0.41800000000E+01 0. -1.
         -5    1    4    4    0  501  0.75438163570E+02 -0.42422861748E+02  0.26545985498E+02  0.90624375682E+02  0.41800000000E+01 0. -1.
</event>
<event>
11    1  0.6930157E-009  0.1540120E+03  0.7561462E-02  0.1092848E+00
         22   -1    0    0    0    0  0.00000000000E+00  0.00000000000E+00  0.21575597061E+03  0.21575597061E+03  0.00000000000E+00 0. -1.
         22   -1    0    0    0    0 -0.00000000000E+00 -0.00000000000E+00 -0.44164223540E+03  0.44164223540E+03  0.00000000000E+00 0. -1.
        -24    2    1    2    0    0  0.57361799746E+02  0.61875562559E+02 -0.29853104891E+03  0.31931972549E+03  0.75665967355E+02 0.  0.
         25    2    1    2    0    0 -0.96883379055E+02 -0.80421998810E+02 -0.50816768838E+02  0.18461949414E+03  0.12509167276E+03 0.  0.
         24    2    1    2    0    0  0.39521579309E+02  0.18546436251E+02  0.12346155295E+03  0.15345898637E+03  0.80006124201E+02 0.  0.
        -13    1    5    5    0    0  0.35685230942E+02  0.43289988111E+02  0.47608639740E+02  0.73580169583E+02  0.00000000000E+00 0.  1.
         14    1    5    5    0    0  0.38363483666E+01 -0.24743551859E+02  0.75852913214E+02  0.79878816782E+02  0.00000000000E+00 0. -1.
         13    1    3    3    0    0  0.42653849551E+02  0.76824031366E+02 -0.26980436257E+03  0.28375284446E+03  0.00000000000E+00 0. -1.
        -14    1    3    3    0    0  0.14707950195E+02 -0.14948468807E+02 -0.28726686337E+02  0.35566881034E+02  0.00000000000E+00 0.  1.
          5    1    4    4  501    0 -0.11988502178E+03 -0.78119438609E+02 -0.18026374674E+02  0.14428266604E+03  0.41800000000E+01 0.  1.
         -5    1    4    4    0  501  0.23001642729E+02 -0.23025602008E+01 -0.32790394164E+02  0.40336828099E+02  0.41800000000E+01 0.  1.
</event>
<event>
11    1  0.6930157E-009  0.1504305E+03  0.7561462E-02  0.1096440E+00
         22   -1    0    0    0    0  0.00000000000E+00  0.00000000000E+00  0.35245005313E+03  0.35245005313E+03  0.00000000000E+00 0.  1.
         22   -1    0    0    0    0 -0.00000000000E+00 -0.00000000000E+00 -0.11798935926E+04  0.11798935926E+04  0.00000000000E+00 0.  1.
         24    2    1    2    0    0 -0.56402410789E+01 -0.17798372519E+02 -0.10878705832E+04  0.10910022003E+04  0.80466147363E+02 0.  0.
         25    2    1    2    0    0  0.52757734836E+02 -0.53045289317E+02 -0.10866056695E+02  0.14615892669E+03  0.12508868598E+03 0.  0.
        -24    2    1    2    0    0 -0.47117493757E+02  0.70843661836E+02  0.27129310038E+03  0.29518251879E+03  0.79334043392E+02 0.  0.
        -13    1    3    3    0    0 -0.13576653688E+02 -0.28341408491E+02 -0.10565227798E+04  0.10569900402E+04  0.00000000000E+00 0.  1.
         14    1    3    3    0    0  0.79364126092E+01  0.10543035972E+02 -0.31347803404E+02  0.34012160044E+02  0.00000000000E+00 0. -1.
         13    1    5    5    0    0 -0.44704065582E+02 -0.73024094659E+00  0.10283774071E+03  0.11213646884E+03  0.00000000000E+00 0. -1.
        -14    1    5    5    0    0 -0.24134281751E+01  0.71573902783E+02  0.16845535968E+03  0.18304604994E+03  0.00000000000E+00 0.  1.
          5    1    4    4  501    0  0.44848476390E+02  0.25177052271E+02 -0.36671941076E+02  0.63305398331E+02  0.41800000000E+01 0. -1.
         -5    1    4    4    0  501  0.79092584460E+01 -0.78222341588E+02  0.25805884381E+02  0.82853528358E+02  0.41800000000E+01 0. -1.
</event>
<event>
11    1  0.6930157E-009  0.1512065E+03  0.7561462E-02  0.1095652E+00
         22   -1    0    0    0    0  0.00000000000E+00  0.00000000000E+00  0.28892680589E+04  0.28892680589E+04  0.00000000000E+00 0.  1.
         22   -1    0    0    0    0 -0.00000000000E+00 -0.00000000000E+00 -0.70265183913E+02  0.70265183913E+02  0.00000000000E+00 0. -1.
        -24    2    1    2    0    0 -0.80035605614E+02 -0.14760606619E+02  0.15365136574E+01  0.96520016856E+02  0.51866936540E+02 0.  0.
         25    2    1    2    0    0  0.11137222423E+03 -0.11251215371E+02  0.29871875294E+03  0.34265225538E+03  0.12508921847E+03 0.  0.
         24    2    1    2    0    0 -0.31336618620E+02  0.26011821990E+02  0.25187476084E+04  0.25203609706E+04  0.80444444879E+02 0.  0.
        -11    1    5    5    0    0  0.30285363890E+00  0.36105888480E+02  0.20959626123E+04  0.20962735983E+04  0.00000000000E+00 0.  1.
         12    1    5    5    0    0 -0.31639472259E+02 -0.10094066490E+02  0.42278499609E+03  0.42408737225E+03  0.00000000000E+00 0. -1.
         13    1    3    3    0    0 -0.87648576198E+02 -0.12621244752E+02  0.58008783992E+00  0.88554532524E+02  0.00000000000E+00 0. -1.
        -14    1    3    3    0    0  0.76129705839E+01 -0.21393618668E+01  0.95642581747E+00  0.79654843326E+01  0.00000000000E+00 0.  1.
          5    1    4    4  501    0  0.26092479069E+02  0.51636652119E+02  0.14238457552E+03  0.15374654810E+03  0.41800000000E+01 0. -1.
         -5    1    4    4    0  501  0.85279745166E+02 -0.62887867490E+02  0.15633417743E+03  0.18890570728E+03  0.41800000000E+01 0. -1.
</event>
<event>
11    1  0.6930157E-009  0.1697263E+03  0.7561462E-02  0.1078270E+00
         22   -1    0    0    0    0  0.00000000000E+00  0.00000000000E+00  0.79199465403E+03  0.79199465403E+03  0.00000000000E+00 0.  1.
         22   -1    0    0    0    0 -0.00000000000E+00 -0.00000000000E+00 -0.70365157210E+03  0.70365157210E+03  0.00000000000E+00 0. -1.
         24    2    1    2    0    0  0.51903172844E+02 -0.44875806854E+02 -0.65564447813E+03  0.66409109158E+03  0.80246612515E+02 0.  0.
         25    2    1    2    0    0 -0.94411437886E+02  0.13761199842E+03  0.27595708688E+03  0.34590402642E+03  0.12508676982E+03 0.  0.
        -24    2    1    2    0    0  0.42508265043E+02 -0.92736191568E+02  0.46803047319E+03  0.48565110813E+03  0.79984505866E+02 0.  0.
        -11    1    3    3    0    0  0.38733230757E+02 -0.33285264519E+02 -0.15616539665E+03  0.16430399603E+03  0.00000000000E+00 0.  1.
         12    1    3    3    0    0  0.13169942087E+02 -0.11590542334E+02 -0.49947908148E+03  0.49978709555E+03  0.00000000000E+00 0. -1.
         11    1    5    5    0    0  0.19537904706E+02 -0.23915469681E+02  0.35390648033E+02  0.46969962514E+02  0.00000000000E+00 0. -1.
        -12    1    5    5    0    0  0.22970360337E+02 -0.68820721887E+02  0.43263982515E+03  0.43868114562E+03  0.00000000000E+00 0.  1.
          5    1    4    4  501    0 -0.54963378812E+02  0.15442148886E+03  0.20043186142E+03  0.25895438344E+03  0.41800000000E+01 0.  1.
         -5    1    4    4    0  501 -0.39448059075E+02 -0.16809490440E+02  0.75525225458E+02  0.86949642979E+02  0.41800000000E+01 0.  1.
</event>
<event>
11    1  0.6930157E-009  0.1259709E+03  0.7561462E-02  0.1124321E+00
         22   -1    0    0    0    0  0.00000000000E+00  0.00000000000E+00  0.79583771536E+03  0.79583771536E+03  0.00000000000E+00 0. -1.
         22   -1    0    0    0    0 -0.00000000000E+00 -0.00000000000E+00 -0.28721192625E+03  0.28721192625E+03  0.00000000000E+00 0.  1.
        -24    2    1    2    0    0 -0.66456435278E+01 -0.13694518079E+02 -0.24621782617E+03  0.26116391513E+03  0.85741869803E+02 0.  0.
         25    2    1    2    0    0  0.13827492097E+02  0.28138395591E+01  0.96652294764E+02  0.15870863968E+03  0.12509056318E+03 0.  0.
         24    2    1    2    0    0 -0.71818485694E+01  0.10880678520E+02  0.65819132051E+03  0.66317708680E+03  0.80112832597E+02 0.  0.
        -13    1    5    5    0    0 -0.31406898586E+02 -0.17808199028E+02  0.18446874830E+03  0.18796873232E+03  0.00000000000E+00 0.  1.
         14    1    5    5    0    0  0.24225050017E+02  0.28688877548E+02  0.47372257222E+03  0.47520835448E+03  0.00000000000E+00 0. -1.
         11    1    3    3    0    0  0.28337839181E+02  0.15320275758E+01 -0.28833475408E+02  0.40456761388E+02  0.00000000000E+00 0. -1.
        -12    1    3    3    0    0 -0.34983482709E+02 -0.15226545655E+02 -0.21738435076E+03  0.22070715374E+03  0.00000000000E+00 0.  1.
          5    1    4    4  501    0  0.86429642304E+01  0.50588159592E+02  0.97724998221E+02  0.11046044722E+03  0.41800000000E+01 0. -1.
         -5    1    4    4    0  501  0.51845278668E+01 -0.47774320033E+02 -0.10727034575E+01  0.48248192469E+02  0.41800000000E+01 0. -1.
</event>
<event>
11    1  0.6930157E-009  0.1454764E+03  0.7561462E-02  0.1101593E+00
         22   -1    0    0    0    0  0.00000000000E+00  0.00000000000E+00  0.74567024246E+03  0.74567024246E+03  0.00000000000E+00 0. -1.
         22   -1    0    0    0    0 -0.00000000000E+00 -0.00000000000E+00 -0.15357828300E+03  0.15357828300E+03  0.00000000000E+00 0.  1.
         24    2    1    2    0    0 -0.23933293103E+02  0.63777186306E+02 -0.72734520579E+02  0.12972490260E+03  0.83053644463E+02 0.  0.
         25    2    1    2    0    0  0.46990371094E+02 -0.92606684496E+02  0.85910776747E+02  0.18388188906E+03  0.12509114507E+03 0.  0.
        -24    2    1    2    0    0 -0.23057077992E+02  0.28829498189E+02  0.57891570329E+03  0.58564173380E+03  0.80436807742E+02 0.  0.
        -11    1    3    3    0    0 -0.20351257519E+02  0.51420389323E+02 -0.91535239861E+02  0.10694358446E+03  0.00000000000E+00 0.  1.
         12    1    3    3    0    0 -0.35820355838E+01  0.12356796983E+02  0.18800719282E+02  0.22781318139E+02  0.00000000000E+00 0. -1.
         11    1    5    5    0    0 -0.51289114877E+02  0.29529855799E+02  0.43214919647E+03  0.43618289019E+03  0.00000000000E+00 0. -1.
        -12    1    5    5    0    0  0.28232036886E+02 -0.70035760920E+00  0.14676650683E+03  0.14945884361E+03  0.00000000000E+00 0.  1.
          5    1    4    4  501    0  0.31886825955E+02  0.26895411662E+02  0.25419761002E+02  0.49028251930E+02  0.41800000000E+01 0.  1.
         -5    1    4    4    0  501  0.15103545140E+02 -0.11950209616E+03  0.60491015745E+02  0.13485363713E+03  0.41800000000E+01 0.  1.
</event>
<event>
11    1  0.6930157E-009  0.1864057E+03  0.7561462E-02  0.1064576E+00
         22   -1    0    0    0    0  0.00000000000E+00  0.00000000000E+00  0.30613397693E+04  0.30613397693E+04  0.00000000000E+00 0.  1.
         22   -1    0    0    0    0 -0.00000000000E+00 -0.00000000000E+00 -0.11604643698E+03  0.11604643698E+03  0.00000000000E+00 0. -1.
         24    2    1    2    0    0 -0.94693577644E+02 -0.10547210570E+03 -0.80770939686E+01  0.16304880764E+03  0.80177524897E+02 0.  0.
         25    2    1    2    0    0  0.13914342240E+03  0.35540528429E+02  0.28086107385E+03  0.33934432195E+03  0.12509038684E+03 0.  0.
        -24    2    1    2    0    0 -0.44449844752E+02  0.69931577270E+02  0.26725093524E+04  0.26749930767E+04  0.80096861525E+02 0.  0.
        -11    1    3    3    0    0 -0.25906640006E+02 -0.20630745939E+02  0.32624863845E+02  0.46488314826E+02  0.00000000000E+00 0.  1.
         12    1    3    3    0    0 -0.68786937638E+02 -0.84841359759E+02 -0.40701957814E+02  0.11656049281E+03  0.00000000000E+00 0. -1.
         13    1    5    5    0    0 -0.38385079723E+02 -0.68962049183E+00  0.57127673183E+03  0.57256527510E+03  0.00000000000E+00 0. -1.
        -14    1    5    5    0    0 -0.60647650294E+01  0.70621197761E+02  0.21012326206E+04  0.21024278016E+04  0.00000000000E+00 0.  1.
          5    1    4    4  501    0  0.29179572467E+02 -0.26681896724E+02  0.10863685217E+02  0.41217267239E+02  0.41800000000E+01 0. -1.
         -5    1    4    4    0  501  0.10996384993E+03  0.62222425152E+02  0.26999738863E+03  0.29812705471E+03  0.41800000000E+01 0. -1.
</event>
<event>
11    1  0.6930157E-009  0.4435095E+03  0.7561462E-02  0.9529443E-01
         22   -1    0    0    0    0  0.00000000000E+00  0.00000000000E+00  0.37272050751E+03  0.37272050751E+03  0.00000000000E+00 0.  1.
         22   -1    0    0    0    0 -0.00000000000E+00 -0.00000000000E+00 -0.16089744207E+04  0.16089744207E+04  0.00000000000E+00 0. -1.
        -24    2    1    2    0    0 -0.25745215354E+03 -0.35265641819E+03 -0.12655870759E+04  0.13411843931E+04  0.80104736882E+02 0.  0.
         25    2    1    2    0    0  0.19226608384E+03  0.33447354005E+03 -0.15023368185E+03  0.43250039973E+03  0.12509052966E+03 0.  0.
         24    2    1    2    0    0  0.65186069703E+02  0.18182878137E+02  0.17956684462E+03  0.20801013536E+03  0.80275301203E+02 0.  0.
        -11    1    5    5    0    0  0.77614600579E+02 -0.55154063897E+01  0.12509086315E+03  0.14731656382E+03  0.00000000000E+00 0.  1.
         12    1    5    5    0    0 -0.12428530876E+02  0.23698284526E+02  0.54475981469E+02  0.60693571540E+02  0.00000000000E+00 0. -1.
         13    1    3    3    0    0 -0.17215445938E+03 -0.29288863954E+03 -0.96195218039E+03  0.10201827828E+04  0.00000000000E+00 0. -1.
        -14    1    3    3    0    0 -0.85297694167E+02 -0.59767778645E+02 -0.30363489553E+03  0.32100161024E+03  0.00000000000E+00 0.  1.
          5    1    4    4  501    0  0.17285506151E+03  0.20602061082E+03 -0.63859029267E+02  0.27643952755E+03  0.41800000000E+01 0. -1.
         -5    1    4    4    0  501  0.19411022331E+02  0.12845292923E+03 -0.86374652586E+02  0.15606087218E+03  0.41800000000E+01 0. -1.
</event>
<event>
11    1  0.6930157E-009  0.1384664E+03  0.7561462E-02  0.1109283E+00
         22   -1    0    0    0    0  0.00000000000E+00  0.00000000000E+00  0.24340201348E+04  0.24340201348E+04  0.00000000000E+00 0. -1.
         22   -1    0    0    0    0 -0.00000000000E+00 -0.00000000000E+00 -0.57765453361E+03  0.57765453361E+03  0.00000000000E+00 0. -1.
        -24    2    1    2    0    0 -0.11820606230E+02 -0.58494098127E+02 -0.56163973675E+03  0.57016390654E+03  0.78015384237E+02 0.  0.
         25    2    1    2    0    0 -0.92914567251E+01  0.34024366280E+02  0.37869649876E+03  0.40037848963E+03  0.12509159890E+03 0.  0.
         24    2    1    2    0    0  0.21112062955E+02  0.24469731847E+02  0.20393088392E+04  0.20411322722E+04  0.79974522806E+02 0.  0.
        -11    1    5    5    0    0 -0.11414768518E+02  0.67161061261E+01  0.58647165194E+02  0.60123980300E+02  0.00000000000E+00 0.  1.
         12    1    5    5    0    0  0.32526831473E+02  0.17753625721E+02  0.19806616740E+04  0.19810082919E+04  0.00000000000E+00 0. -1.
         13    1    3    3    0    0 -0.12297884866E+02 -0.54068053139E+02 -0.56283084093E+03  0.56555560986E+03  0.00000000000E+00 0. -1.
        -14    1    3    3    0    0  0.47727863632E+00 -0.44260449881E+01  0.11911041795E+01  0.46082966809E+01  0.00000000000E+00 0.  1.
          5    1    4    4  501    0  0.51378749593E+02  0.27348372321E+01  0.24298874578E+03  0.24841146958E+03  0.41800000000E+01 0.  1.
         -5    1    4    4    0  501 -0.60670206318E+02  0.31289529048E+02  0.13570775298E+03  0.15196702005E+03  0.41800000000E+01 0.  1.
</event>
<event>
11    1  0.6930157E-009  0.1392383E+03  0.7561462E-02  0.1108412E+00
         22   -1    0    0    0    0  0.00000000000E+00  0.00000000000E+00  0.13169743977E+03  0.13169743977E+03  0.00000000000E+00 0. -1.
         22   -1    0    0    0    0 -0.00000000000E+00 -0.00000000000E+00 -0.54249425520E+03  0.54249425520E+03  0.00000000000E+00 0.  1.
        -24    2    1    2    0    0 -0.38866871808E+02 -0.32373544016E+02 -0.39102663318E+03  0.40125320083E+03  0.74455511828E+02 0.  0.
         25    2    1    2    0    0 -0.30196254879E+02  0.32224146151E+02 -0.76957070023E+02  0.15336313137E+03  0.12509056732E+03 0.  0.
         24    2    1    2    0    0  0.69063126687E+02  0.14939786412E+00  0.57186887772E+02  0.11957536277E+03  0.79108719249E+02 0.  0.
        -13    1    5    5    0    0  0.88584042152E+01  0.33077248509E+02  0.80516526770E+01  0.35176765130E+02  0.00000000000E+00 0.  1.
         14    1    5    5    0    0  0.60204722472E+02 -0.32927850645E+02  0.49135235095E+02  0.84398597642E+02  0.00000000000E+00 0. -1.
         11    1    3    3    0    0 -0.50765976128E+02 -0.30612212018E+02 -0.17262107444E+03  0.18251664909E+03  0.00000000000E+00 0. -1.
        -12    1    3    3    0    0  0.11899104320E+02 -0.17613319976E+01 -0.21840555875E+03  0.21873655174E+03  0.00000000000E+00 0.  1.
          5    1    4    4  501    0  0.94753487620E+01 -0.39726553109E+02 -0.54221038026E+02  0.68010106754E+02  0.41800000000E+01 0.  1.
         -5    1    4    4    0  501 -0.39671603641E+02  0.71950699261E+02 -0.22736031996E+02  0.85353024612E+02  0.41800000000E+01 0.  1.
</event>
<event>
11    1  0.6930157E-009  0.1322034E+03  0.7561462E-02  0.1116591E+00
         22   -1    0    0    0    0  0.00000000000E+00  0.00000000000E+00  0.29962016221E+03  0.29962016221E+03  0.00000000000E+00 0.  1.
         22   -1    0    0    0    0 -0.00000000000E+00 -0.00000000000E+00 -0.18667602457E+03  0.18667602457E+03  0.00000000000E+00 0.  1.
        -24    2    1    2    0    0  0.29908549070E+02  0.37739060488E+01 -0.10380346938E+03  0.13428458515E+03  0.79677009730E+02 0.  0.
         25    2    1    2    0    0 -0.68051953400E+02 -0.56509358197E+01  0.31284787730E+02  0.14590947406E+03  0.12509130761E+03 0.  0.
         24    2    1    2    0    0  0.38143404330E+02  0.18770297709E+01  0.18546281929E+03  0.20610212758E+03  0.81382965770E+02 0.  0.
        -11    1    5    5    0    0  0.58865323473E+02  0.13458919065E+02  0.94921577956E+02  0.11250055454E+03  0.00000000000E+00 0.  1.
         12    1    5    5    0    0 -0.20721919143E+02 -0.11581889294E+02  0.90541241335E+02  0.93601573038E+02  0.00000000000E+00 0. -1.
         13    1    3    3    0    0 -0.12815308206E+02 -0.22957311516E+02 -0.66721626982E+02  0.71715031783E+02  0.00000000000E+00 0. -1.
        -14    1    3    3    0    0  0.42723857276E+02  0.26731217565E+02 -0.37081842399E+02  0.62569553369E+02  0.00000000000E+00 0.  1.
          5    1    4    4  501    0 -0.46442129618E+02 -0.59051793838E+02 -0.85780147215E+01  0.75730050148E+02  0.41800000000E+01 0.  1.
         -5    1    4    4    0  501 -0.21609823782E+02  0.53400858019E+02  0.39862802452E+02  0.70179423910E+02  0.41800000000E+01 0.  1.
</event>
<event>
11    1  0.6930157E-009  0.1853317E+03  0.7561462E-02  0.1065410E+00
         22   -1    0    0    0    0  0.00000000000E+00  0.00000000000E+00  0.34746341291E+03  0.34746341291E+03  0.00000000000E+00 0.  1.
         22   -1    0    0    0    0 -0.00000000000E+00 -0.00000000000E+00 -0.10896941622E+04  0.10896941622E+04  0.00000000000E+00 0.  1.
        -24    2    1    2    0    0  0.30465153321E+02 -0.14030090883E+03 -0.74972805979E+03  0.76765253563E+03  0.81152826439E+02 0.  0.
         25    2    1    2    0    0 -0.63352337149E+02  0.10609082146E+03 -0.30153012809E+03  0.34905010580E+03  0.12508707843E+03 0.  0.
         24    2    1    2    0    0  0.32887183828E+02  0.34210087366E+02  0.30902743858E+03  0.32045493369E+03  0.70295873241E+02 0.  0.
        -11    1    5    5    0    0 -0.13943446068E+02  0.20837216784E+02  0.19298244710E+03  0.19460430154E+03  0.00000000000E+00 0.  1.
         12    1    5    5    0    0  0.46830629896E+02  0.13372870582E+02  0.11604499148E+03  0.12585063215E+03  0.00000000000E+00 0. -1.
         11    1    3    3    0    0 -0.12368946666E+02  0.11464915062E+01 -0.23948300425E+02  0.26978257499E+02  0.00000000000E+00 0. -1.
        -12    1    3    3    0    0  0.42834099987E+02 -0.14144740033E+03 -0.72577975937E+03  0.74067427813E+03  0.00000000000E+00 0.  1.
          5    1    4    4  501    0 -0.40881005500E+02  0.85061064990E+02 -0.30356492053E+03  0.31792416511E+03  0.41800000000E+01 0.  1.
         -5    1    4    4    0  501 -0.22471331649E+02  0.21029756471E+02  0.20347924371E+01  0.31125940686E+02  0.41800000000E+01 0.  1.
</event>
<event>
11    1  0.6930157E-009  0.4006815E+03  0.7561462E-02  0.9647749E-01
         22   -1    0    0    0    0  0.00000000000E+00  0.00000000000E+00  0.93825688948E+03  0.93825688948E+03  0.00000000000E+00 0. -1.
         22   -1    0    0    0    0 -0.00000000000E+00 -0.00000000000E+00 -0.15925250344E+04  0.15925250344E+04  0.00000000000E+00 0.  1.
        -24    2    1    2    0    0 -0.29874558202E+03 -0.22970884249E+03 -0.13309177719E+04  0.13855794400E+04  0.80456161577E+02 0.  0.
         25    2    1    2    0    0  0.37585472688E+03  0.18128595065E+03 -0.20956198887E+02  0.43613873180E+03  0.12508580850E+03 0.  0.
         24    2    1    2    0    0 -0.77109144858E+02  0.48422891834E+02  0.69760582585E+03  0.70906375207E+03  0.88469879429E+02 0.  0.
        -11    1    5    5    0    0 -0.78722892340E+01  0.56649394801E+02  0.32292113402E+03  0.32794692508E+03  0.00000000000E+00 0.  1.
         12    1    5    5    0    0 -0.69236855624E+02 -0.82265029667E+01  0.37468469183E+03  0.38111682700E+03  0.00000000000E+00 0. -1.
         11    1    3    3    0    0 -0.21252750423E+03 -0.11687451497E+03 -0.79582296131E+03  0.83196260616E+03  0.00000000000E+00 0. -1.
        -12    1    3    3    0    0 -0.86218077791E+02 -0.11283432751E+03 -0.53509481055E+03  0.55361683381E+03  0.00000000000E+00 0.  1.
          5    1    4    4  501    0  0.29104629586E+03  0.77128435594E+02 -0.19420238677E+02  0.30174717892E+03  0.41800000000E+01 0.  1.
         -5    1    4    4    0  501  0.84808431012E+02  0.10415751506E+03 -0.15359602094E+01  0.13439155289E+03  0.41800000000E+01 0.  1.
</event>
<event>
11    1  0.6930157E-009  0.1589686E+03  0.7561462E-02  0.1088051E+00
         22   -1    0    0    0    0  0.00000000000E+00  0.00000000000E+00  0.10257900630E+03  0.10257900630E+03  0.00000000000E+00 0.  1.
         22   -1    0    0    0    0 -0.00000000000E+00 -0.00000000000E+00 -0.77955922198E+03  0.77955922198E+03  0.00000000000E+00 0.  1.
         24    2    1    2    0    0  0.97065226038E+02 -0.15337326838E+02 -0.21009494610E+03  0.24507542645E+03  0.79152931542E+02 0.  0.
         25    2    1    2    0    0 -0.53454633907E+02  0.10594536656E+03 -0.47928796879E+03  0.50935909787E+03  0.12509162631E+03 0.  0.
        -24    2    1    2    0    0 -0.43610592132E+02 -0.90608039721E+02  0.12402699220E+02  0.12770370396E+03  0.77734859935E+02 0.  0.
        -11    1    3    3    0    0  0.81510024967E+02 -0.28194707176E+01 -0.20981252906E+03  0.22510693222E+03  0.00000000000E+00 0.  1.
         12    1    3    3    0    0  0.15555201071E+02 -0.12517856120E+02 -0.28241704104E+00  0.19968494224E+02  0.00000000000E+00 0. -1.
         13    1    5    5    0    0 -0.17324019261E+02  0.11624474662E+02  0.70072897669E+01  0.22008002281E+02  0.00000000000E+00 0. -1.
        -14    1    5    5    0    0 -0.26286572871E+02 -0.10223251438E+03  0.53954094527E+01  0.10569570168E+03  0.00000000000E+00 0.  1.
          5    1    4    4  501    0 -0.62660386154E+02  0.32053803663E+02 -0.37245068433E+03  0.37906563413E+03  0.41800000000E+01 0.  1.
         -5    1    4    4    0  501  0.92057522478E+01  0.73891562896E+02 -0.10683728446E+03  0.13029346374E+03  0.41800000000E+01 0.  1.
</event>
<event>
11    1  0.6930157E-009  0.1311869E+03  0.7561462E-02  0.1117819E+00
         22   -1    0    0    0    0  0.00000000000E+00  0.00000000000E+00  0.16149878662E+04  0.16149878662E+04  0.00000000000E+00 0.  1.
         22   -1    0    0    0    0 -0.00000000000E+00 -0.00000000000E+00 -0.40443358483E+02  0.40443358483E+02  0.00000000000E+00 0. -1.
         24    2    1    2    0    0 -0.38746880130E+01  0.34942411038E+02  0.32383712994E+02  0.93498236536E+02  0.80356891875E+02 0.  0.
         25    2    1    2    0    0 -0.36254571600E+02 -0.31908718949E+02  0.56773994156E+03  0.58335835774E+03  0.12508306041E+03 0.  0.
        -24    2    1    2    0    0  0.40129259613E+02 -0.30336920897E+01  0.97442085319E+03  0.97857463043E+03  0.80577586344E+02 0.  0.
        -13    1    3    3    0    0  0.15115899362E+02 -0.19876143710E+02  0.24442196809E+02  0.34942416733E+02  0.00000000000E+00 0.  1.
         14    1    3    3    0    0 -0.18990587375E+02  0.54818554748E+02  0.79415161845E+01  0.58555819803E+02  0.00000000000E+00 0. -1.
         13    1    5    5    0    0  0.14637902967E+02 -0.38140579087E+02  0.30129555772E+03  0.30405260249E+03  0.00000000000E+00 0. -1.
        -14    1    5    5    0    0  0.25491356646E+02  0.35106886997E+02  0.67312529547E+03  0.67452202794E+03  0.00000000000E+00 0.  1.
          5    1    4    4  501    0 -0.50730956294E+02  0.28064216147E+02  0.14660449805E+03  0.15770726490E+03  0.41800000000E+01 0. -1.
         -5    1    4    4    0  501  0.14476384694E+02 -0.59972935096E+02  0.42113544351E+03  0.42565109284E+03  0.41800000000E+01 0. -1.
</event>
<event>
11    1  0.6930157E-009  0.1321012E+03  0.7561462E-02  0.1116714E+00
         22   -1    0    0    0    0  0.00000000000E+00  0.00000000000E+00  0.50915928360E+03  0.50915928360E+03  0.00000000000E+00 0.  1.
         22   -1    0    0    0    0 -0.00000000000E+00 -0.00000000000E+00 -0.34296217870E+03  0.34296217870E+03  0.00000000000E+00 0. -1.
        -24    2    1    2    0    0  0.23629979415E+01  0.42486027149E+02 -0.31147812602E+03  0.32250315717E+03  0.71965388456E+02 0.  0.
         25    2    1    2    0    0 -0.10672824654E+02 -0.39259685958E+02  0.19108614685E+03  0.23198090909E+03  0.12508394994E+03 0.  0.
         24    2    1    2    0    0  0.83098267128E+01 -0.32263411912E+01  0.28658908407E+03  0.29763739604E+03  0.79845187214E+02 0.  0.
        -13    1    5    5    0    0  0.39656421975E+02  0.16560321482E+02  0.16653551872E+03  0.17199114816E+03  0.00000000000E+00 0.  1.
         14    1    5    5    0    0 -0.31346595262E+02 -0.19786662673E+02  0.12005356535E+03  0.12564624788E+03  0.00000000000E+00 0. -1.
         11    1    3    3    0    0  0.36995756911E+02  0.20902029588E+02 -0.14512816675E+03  0.15122091673E+03  0.00000000000E+00 0. -1.
        -12    1    3    3    0    0 -0.34632758970E+02  0.21583997561E+02 -0.16634995926E+03  0.17128224044E+03  0.00000000000E+00 0.  1.
          5    1    4    4  501    0 -0.37631817948E+02 -0.32032586269E+02  0.12456919456E+02  0.51135971170E+02  0.41800000000E+01 0.  1.
         -5    1    4    4    0  501  0.26958993294E+02 -0.72270996893E+01  0.17862922740E+03  0.18084493792E+03  0.41800000000E+01 0.  1.
</event>
<event>
11    1  0.6930157E-009  0.3510217E+03  0.7561462E-02  0.9806464E-01
         22   -1    0    0    0    0  0.00000000000E+00  0.00000000000E+00  0.58436154184E+03  0.58436154184E+03  0.00000000000E+00 0.  1.
         22   -1    0    0    0    0 -0.00000000000E+00 -0.00000000000E+00 -0.94641847694E+03  0.94641847694E+03  0.00000000000E+00 0. -1.
        -24    2    1    2    0    0 -0.27418254128E+02  0.46366885064E+01 -0.38428010316E+03  0.39316714066E+03  0.78332262019E+02 0.  0.
         25    2    1    2    0    0  0.35224639165E+03 -0.21000673270E+02 -0.43265892358E+03  0.57215285431E+03  0.12508635353E+03 0.  0.
         24    2    1    2    0    0 -0.32482813752E+03  0.16363984763E+02  0.45488209163E+03  0.56546002381E+03  0.83941779297E+02 0.  0.
        -13    1    5    5    0    0 -0.17447855428E+03  0.44333488672E+02  0.28286670409E+03  0.33529359732E+03  0.00000000000E+00 0.  1.
         14    1    5    5    0    0 -0.15034958324E+03 -0.27969503909E+02  0.17201538754E+03  0.23016642648E+03  0.00000000000E+00 0. -1.
         11    1    3    3    0    0 -0.10265096875E+02  0.36112700326E+02 -0.28788429089E+03  0.29032200103E+03  0.00000000000E+00 0. -1.
        -12    1    3    3    0    0 -0.17153157252E+02 -0.31476011819E+02 -0.96395812268E+02  0.10284513964E+03  0.00000000000E+00 0.  1.
          5    1    4    4  501    0  0.87837140211E+02  0.97011744173E+01 -0.19961796768E+03  0.21834441006E+03  0.41800000000E+01 0.  1.
         -5    1    4    4    0  501  0.26440925144E+03 -0.30701847687E+02 -0.23304095590E+03  0.35380844425E+03  0.41800000000E+01 0.  1.
</event>
<event>
11    1  0.6930157E-009  0.3102582E+03  0.7561462E-02  0.9959408E-01
         22   -1    0    0    0    0  0.00000000000E+00  0.00000000000E+00  0.20310253624E+04  0.20310253624E+04  0.00000000000E+00 0.  1.
         22   -1    0    0    0    0 -0.00000000000E+00 -0.00000000000E+00 -0.44327142471E+03  0.44327142471E+03  0.00000000000E+00 0.  1.
        -24    2    1    2    0    0 -0.40095155894E+02  0.10674945535E+02 -0.35334655632E+03  0.36485399486E+03  0.80889262037E+02 0.  0.
         25    2    1    2    0    0  0.20824292914E+03 -0.23312839113E+03  0.32691237953E+03  0.46929041129E+03  0.12509125450E+03 0.  0.
         24    2    1    2    0    0 -0.16814777325E+03  0.22245344560E+03  0.16141881145E+04  0.16401523810E+04  0.82081390993E+02 0.  0.
        -11    1    5    5    0    0 -0.35992837774E+02  0.59090798708E+02  0.62971456161E+03  0.63350425094E+03  0.00000000000E+00 0.  1.
         12    1    5    5    0    0 -0.13215493547E+03  0.16336264689E+03  0.98447355289E+03  0.10066481300E+04  0.00000000000E+00 0. -1.
         13    1    3    3    0    0 -0.65835826596E+01 -0.32674289590E+02 -0.92687354040E+02  0.98498215008E+02  0.00000000000E+00 0. -1.
        -14    1    3    3    0    0 -0.33511573234E+02  0.43349235126E+02 -0.26065920228E+03  0.26635577985E+03  0.00000000000E+00 0.  1.
          5    1    4    4  501    0 -0.53501485685E+01  0.10583835976E+02  0.13358491051E+02  0.18345663161E+02  0.41800000000E+01 0.  1.
         -5    1    4    4    0  501  0.21359307771E+03 -0.24371222711E+03  0.31355388848E+03  0.45094474813E+03  0.41800000000E+01 0.  1.
</event>
<event>
11    1  0.6930157E-009  0.1557810E+03  0.7561462E-02  0.1091114E+00
         22   -1    0    0    0    0  0.00000000000E+00  0.00000000000E+00  0.27946145818E+03  0.27946145818E+03  0.00000000000E+00 0. -1.
         22   -1    0    0    0    0 -0.00000000000E+00 -0.00000000000E+00 -0.53903771705E+03  0.53903771705E+03  0.00000000000E+00 0. -1.
         24    2    1    2    0    0  0.32685176345E+02 -0.45071815704E+01 -0.41240096248E+03  0.42313450168E+03  0.88767207984E+02 0.  0.
         25    2    1    2    0    0  0.59923408754E+02  0.33833108602E+02 -0.54549560110E+02  0.15283580821E+03  0.12509050967E+03 0.  0.
        -24    2    1    2    0    0 -0.92608585099E+02 -0.29325927031E+02  0.20737426372E+03  0.24252886534E+03  0.79873682998E+02 0.  0.
        -11    1    3    3    0    0  0.14612983289E+02 -0.26412519421E+02 -0.42410652902E+02  0.52055969325E+02  0.00000000000E+00 0.  1.
         12    1    3    3    0    0  0.18072193055E+02  0.21905337850E+02 -0.36999030958E+03  0.37107853235E+03  0.00000000000E+00 0. -1.
         11    1    5    5    0    0 -0.55583186901E+01 -0.26096874807E+02  0.10389064489E+03  0.10726233205E+03  0.00000000000E+00 0. -1.
        -12    1    5    5    0    0 -0.87050266409E+02 -0.32290522246E+01  0.10348361884E+03  0.13526653329E+03  0.00000000000E+00 0.  1.
          5    1    4    4  501    0  0.45298126446E+02  0.35077619428E+02 -0.94209035245E+02  0.11034117258E+03  0.41800000000E+01 0. -1.
         -5    1    4    4    0  501  0.14625282308E+02 -0.12445108265E+01  0.39659475135E+02  0.42494635635E+02  0.41800000000E+01 0. -1.
</event>
<event>
11    1  0.6930157E-009  0.1460045E+03  0.7561462E-02  0.1101033E+00
         22   -1    0    0    0    0  0.00000000000E+00  0.00000000000E+00  0.12335978317E+04  0.12335978317E+04  0.00000000000E+00 0.  1.
         22   -1    0    0    0    0 -0.00000000000E+00 -0.00000000000E+00 -0.33997863446E+03  0.33997863446E+03  0.00000000000E+00 0.  1.
         24    2    1    2    0    0  0.21569106925E+02  0.19816133924E+02 -0.31671945732E+03  0.32750567523E+03  0.78043879497E+02 0.  0.
         25    2    1    2    0    0  0.90749233540E+01 -0.86462177453E+02  0.38871615912E+03  0.41749951449E+03  0.12509008706E+03 0.  0.
        -24    2    1    2    0    0 -0.30644030279E+02  0.66646043529E+02  0.82162249548E+03  0.82857127646E+03  0.78013353943E+02 0.  0.
        -13    1    3    3    0    0  0.26722342715E+02  0.15396463601E+02 -0.31889028665E+03  0.32037813535E+03  0.00000000000E+00 0.  1.
         14    1    3    3    0    0 -0.51532357901E+01  0.44196703239E+01  0.21708293241E+01  0.71275398866E+01  0.00000000000E+00 0. -1.
         13    1    5    5    0    0  0.95722198727E+01  0.51484125662E+02  0.25501929716E+03  0.26034032441E+03  0.00000000000E+00 0. -1.
        -14    1    5    5    0    0 -0.40216250151E+02  0.15161917867E+02  0.56660319831E+03  0.56823095205E+03  0.00000000000E+00 0.  1.
          5    1    4    4  501    0 -0.17874822472E+02 -0.99679642938E+02  0.36558367840E+03  0.37937374554E+03  0.41800000000E+01 0.  1.
         -5    1    4    4    0  501  0.26949745826E+02  0.13217465485E+02  0.23132480716E+02  0.38125768950E+02  0.41800000000E+01 0.  1.
</event>
<event>
11    1  0.6930157E-009  0.2500062E+03  0.7561462E-02  0.1023896E+00
         22   -1    0    0    0    0  0.00000000000E+00  0.00000000000E+00  0.79856335310E+03  0.79856335310E+03  0.00000000000E+00 0.  1.
         22   -1    0    0    0    0 -0.00000000000E+00 -0.00000000000E+00 -0.23955913053E+03  0.23955913053E+03  0.00000000000E+00 0. -1.
         24    2    1    2    0    0  0.11852636629E+03 -0.18978432702E+03 -0.33741528491E+02  0.24017663943E+03  0.80496814184E+02 0.  0.
         25    2    1    2    0    0  0.78304702039E+02  0.25112987709E+03  0.22168945341E+03  0.36603890739E+03  0.12506169056E+03 0.  0.
        -24    2    1    2    0    0 -0.19683106833E+03 -0.61345550070E+02  0.37105629765E+03  0.43190693681E+03  0.79718756071E+02 0.  0.
        -13    1    3    3    0    0  0.64032802579E+02 -0.16482213387E+03 -0.15392565294E+02  0.17749215951E+03  0.00000000000E+00 0.  1.
         14    1    3    3    0    0  0.54493563708E+02 -0.24962193147E+02 -0.18348963197E+02  0.62684479919E+02  0.00000000000E+00 0. -1.
         13    1    5    5    0    0 -0.63318869593E+02 -0.49072775346E+02  0.89867823295E+02  0.12038954353E+03  0.00000000000E+00 0. -1.
        -14    1    5    5    0    0 -0.13351219873E+03 -0.12272774724E+02  0.28118847435E+03  0.31151739328E+03  0.00000000000E+00 0.  1.
          5    1    4    4  501    0  0.50937949820E+02  0.52190368023E+02  0.91691493325E+01  0.73621022444E+02  0.41800000000E+01 0. -1.
         -5    1    4    4    0  501  0.27366752219E+02  0.19893950907E+03  0.21252030407E+03  0.29241788495E+03  0.41800000000E+01 0. -1.
</event>
<event>
11    1  0.7659966E-009  0.1659305E+03  0.7561462E-02  0.1081628E+00
         22   -1    0    0    0    0  0.00000000000E+00  0.00000000000E+00  0.10006918083E+04  0.10006918083E+04  0.00000000000E+00 0.  1.
         22   -1    0    0    0    0 -0.00000000000E+00 -0.00000000000E+00 -0.24617815472E+03  0.24617815472E+03  0.00000000000E+00 0. -1.
        -24    2    1    2    0    0  0.31580743329E+02 -0.49223468527E+02 -0.12536829912E+03  0.16023812803E+03  0.80862562717E+02 0.  0.
         25    2    1    2    0    0  0.52469918971E+02  0.11806527522E+03 -0.15955187653E+02  0.18054094680E+03  0.12509182167E+03 0.  0.
         24    2    1    2    0    0 -0.84050662299E+02 -0.68841806694E+02  0.89583714030E+03  0.90609088815E+03  0.81687253945E+02 0.  0.
        -13    1    5    5    0    0 -0.66849929140E+02 -0.80603758784E+02  0.83982133443E+03  0.84632485059E+03  0.00000000000E+00 0.  1.
         14    1    5    5    0    0 -0.17200733160E+02  0.11761952091E+02  0.56015805870E+02  0.59766037559E+02  0.00000000000E+00 0. -1.
         13    1    3    3    0    0  0.17682431539E+02 -0.70507298573E+02 -0.78965519267E+02  0.10732893725E+03  0.00000000000E+00 0. -1.
        -14    1    3    3    0    0  0.13898311790E+02  0.21283830046E+02 -0.46402779850E+02  0.52909190788E+02  0.00000000000E+00 0.  1.
          5    1    4    4  501    0 -0.29951242525E+02  0.86141654604E+02 -0.59251174144E+01  0.91487928183E+02  0.41800000000E+01 0.  1.
         -5    1    4    4    0  501  0.82421161496E+02  0.31923620616E+02 -0.10030070238E+02  0.89053018616E+02  0.41800000000E+01 0.  1.
</event>
<event>
11    1  0.6930157E-009  0.1799692E+03  0.7561462E-02  0.1069668E+00
         22   -1    0    0    0    0  0.00000000000E+00  0.00000000000E+00  0.26052114039E+04  0.26052114039E+04  0.00000000000E+00 0. -1.
         22   -1    0    0    0    0 -0.00000000000E+00 -0.00000000000E+00 -0.42985535911E+03  0.42985535911E+03  0.00000000000E+00 0.  1.
        -24    2    1    2    0    0 -0.23742437801E+02  0.31357282327E+02 -0.32875407615E+03  0.34031127599E+03  0.78648200702E+02 0.  0.
         25    2    1    2    0    0  0.37473834407E+02 -0.15918369336E+03  0.20963531635E+02  0.20695794069E+03  0.12509349727E+03 0.  0.
         24    2    1    2    0    0 -0.13731396606E+02  0.12782641103E+03  0.24831465893E+04  0.24877975463E+04  0.81188083723E+02 0.  0.
        -11    1    5    5    0    0  0.19917898521E+02  0.82923674495E+01  0.17701523295E+03  0.17832520499E+03  0.00000000000E+00 0.  1.
         12    1    5    5    0    0 -0.33649295127E+02  0.11953404359E+03  0.23061313563E+04  0.23094723413E+04  0.00000000000E+00 0. -1.
         11    1    3    3    0    0  0.11561874568E+01 -0.44492220605E+01  0.31380579741E+01  0.55659459419E+01  0.00000000000E+00 0. -1.
        -12    1    3    3    0    0 -0.24898625258E+02  0.35806504387E+02 -0.33189213413E+03  0.33474533005E+03  0.00000000000E+00 0.  1.
          5    1    4    4  501    0  0.46179320060E+02 -0.99505207780E+01  0.31675628495E+02  0.57029468747E+02  0.41800000000E+01 0.  1.
         -5    1    4    4    0  501 -0.87054856527E+01 -0.14923317258E+03 -0.10712096861E+02  0.14992847194E+03  0.41800000000E+01 0.  1.
</event>
<event>
11    1  0.6930157E-009  0.1324165E+03  0.7561462E-02  0.1116335E+00
         22   -1    0    0    0    0  0.00000000000E+00  0.00000000000E+00  0.17314523383E+04  0.17314523383E+04  0.00000000000E+00 0. -1.
         22   -1    0    0    0    0 -0.00000000000E+00 -0.00000000000E+00 -0.20194240504E+03  0.20194240504E+03  0.00000000000E+00 0. -1.
         24    2    1    2    0    0 -0.16880878721E+02 -0.18093455122E+02 -0.18273643598E+03  0.20150611085E+03  0.81238971502E+02 0.  0.
         25    2    1    2    0    0  0.49320046097E+02  0.39134575051E+02  0.61463237092E+03  0.63038422783E+03  0.12508933368E+03 0.  0.
        -24    2    1    2    0    0 -0.32439167376E+02 -0.21041119929E+02  0.10976139983E+04  0.11015044047E+04  0.84026399960E+02 0.  0.
        -11    1    3    3    0    0  0.10824516259E+02 -0.43904649049E+02 -0.78332278601E+02  0.90447411412E+02  0.00000000000E+00 0.  1.
         12    1    3    3    0    0 -0.27705394980E+02  0.25811193927E+02 -0.10440415738E+03  0.11105869944E+03  0.00000000000E+00 0. -1.
         13    1    5    5    0    0 -0.26740692418E+02 -0.38844185689E+02  0.10370407721E+04  0.10381124690E+04  0.00000000000E+00 0. -1.
        -14    1    5    5    0    0 -0.56984749584E+01  0.17803065760E+02  0.60573226227E+02  0.63391935630E+02  0.00000000000E+00 0.  1.
          5    1    4    4  501    0  0.71476641963E+02  0.62719861330E+02  0.31737140959E+03  0.33133785684E+03  0.41800000000E+01 0.  1.
         -5    1    4    4    0  501 -0.22156595866E+02 -0.23585286279E+02  0.29726096133E+03  0.29904637099E+03  0.41800000000E+01 0.  1.
</event>
<event>
11    1  0.6930157E-009  0.1958270E+03  0.7561462E-02  0.1057514E+00
         22   -1    0    0    0    0  0.00000000000E+00  0.00000000000E+00  0.21053926965E+04  0.21053926965E+04  0.00000000000E+00 0.  1.
         22   -1    0    0    0    0 -0.00000000000E+00 -0.00000000000E+00 -0.11785464132E+03  0.11785464132E+03  0.00000000000E+00 0.  1.
        -24    2    1    2    0    0 -0.13852684310E+01  0.36373800287E+02 -0.81743652867E+02  0.12091419586E+03  0.81321864587E+02 0.  0.
         25    2    1    2    0    0  0.63885263978E+02  0.11392023637E+03  0.77415991981E+03  0.79500325004E+03  0.12508972353E+03 0.  0.
         24    2    1    2    0    0 -0.62499995547E+02 -0.15029403666E+03  0.12951217882E+04  0.13073298919E+04  0.72639197789E+02 0.  0.
        -13    1    5    5    0    0 -0.38165138078E+02 -0.14589701887E+03  0.10183842584E+04  0.10294896870E+04  0.00000000000E+00 0.  1.
         14    1    5    5    0    0 -0.24334857469E+02 -0.43970177896E+01  0.27673752977E+03  0.27784020486E+03  0.00000000000E+00 0. -1.
         11    1    3    3    0    0  0.75279919657E+01 -0.15945899079E+02  0.57794637929E+01  0.18556523441E+02  0.00000000000E+00 0. -1.
        -12    1    3    3    0    0 -0.89132603967E+01  0.52319699367E+02 -0.87523116660E+02  0.10235767242E+03  0.00000000000E+00 0.  1.
          5    1    4    4  501    0  0.60653870390E+02  0.13909994159E+02  0.14387969770E+03  0.15681587847E+03  0.41800000000E+01 0.  1.
         -5    1    4    4    0  501  0.32313935882E+01  0.10001024221E+03  0.63028022211E+03  0.63818737157E+03  0.41800000000E+01 0.  1.
</event>
<event>
11    1  0.6930157E-009  0.1834281E+03  0.7561462E-02  0.1066903E+00
         22   -1    0    0    0    0  0.00000000000E+00  0.00000000000E+00  0.58541117509E+03  0.58541117509E+03  0.00000000000E+00 0.  1.
         22   -1    0    0    0    0 -0.00000000000E+00 -0.00000000000E+00 -0.48455893167E+03  0.48455893167E+03  0.00000000000E+00 0.  1.
        -24    2    1    2    0    0 -0.12675376965E+03  0.73954366840E+02 -0.39075501785E+03  0.42546670077E+03  0.82441876483E+02 0.  0.
         25    2    1    2    0    0  0.71684649578E+02 -0.32198135987E+02  0.63291904124E+01  0.14786613807E+03  0.12509567214E+03 0.  0.
         24    2    1    2    0    0  0.55069120072E+02 -0.41756230853E+02  0.48527807086E+03  0.49663726791E+03  0.79859745960E+02 0.  0.
        -11    1    5    5    0    0  0.59438679729E+02 -0.33319603629E+02  0.48168294760E+03  0.48647879156E+03  0.00000000000E+00 0.  1.
         12    1    5    5    0    0 -0.43695596570E+01 -0.84366272239E+01  0.35951232594E+01  0.10158476350E+02  0.00000000000E+00 0. -1.
         11    1    3    3    0    0 -0.49895502953E+02  0.45403363095E+01 -0.56398759034E+02  0.75438689604E+02  0.00000000000E+00 0. -1.
        -12    1    3    3    0    0 -0.76858266698E+02  0.69414030531E+02 -0.33435625882E+03  0.35002801117E+03  0.00000000000E+00 0.  1.
          5    1    4    4  501    0  0.19997765882E+02  0.30210757843E+01  0.61179833997E+02  0.64571526442E+02  0.41800000000E+01 0. -1.
         -5    1    4    4    0  501  0.51686883697E+02 -0.35219211771E+02 -0.54850643584E+02  0.83294611625E+02  0.41800000000E+01 0. -1.
</event>
<event>
11    1  0.6930157E-009  0.1318185E+03  0.7561462E-02  0.1117055E+00
         22   -1    0    0    0    0  0.00000000000E+00  0.00000000000E+00  0.43101951656E+03  0.43101951656E+03  0.00000000000E+00 0. -1.
         22   -1    0    0    0    0 -0.00000000000E+00 -0.00000000000E+00 -0.19849395890E+03  0.19849395890E+03  0.00000000000E+00 0.  1.
        -24    2    1    2    0    0  0.24005575289E+02 -0.29080669570E+02 -0.12183924951E+03  0.15026440580E+03  0.79452098411E+02 0.  0.
         25    2    1    2    0    0 -0.35300029292E+02 -0.13038797191E+02  0.19480192843E+02  0.13207581575E+03  0.12509372843E+03 0.  0.
         24    2    1    2    0    0  0.11294454004E+02  0.42119466761E+02  0.33488461433E+03  0.34717325391E+03  0.80498131310E+02 0.  0.
        -11    1    5    5    0    0 -0.20581870420E+02  0.33368076612E+02  0.69976151707E+02  0.80210371739E+02  0.00000000000E+00 0.  1.
         12    1    5    5    0    0  0.31876324423E+02  0.87513901490E+01  0.26490846262E+03  0.26696288217E+03  0.00000000000E+00 0. -1.
         11    1    3    3    0    0  0.13694744823E+02 -0.10354339827E+02  0.78122244634E+01  0.18862376311E+02  0.00000000000E+00 0. -1.
        -12    1    3    3    0    0  0.10310830465E+02 -0.18726329742E+02 -0.12965147397E+03  0.13140202949E+03  0.00000000000E+00 0.  1.
          5    1    4    4  501    0 -0.52558532439E+02 -0.42415645138E+02  0.51575153856E+02  0.85082049692E+02  0.41800000000E+01 0.  1.
         -5    1    4    4    0  501  0.17258503147E+02  0.29376847947E+02 -0.32094961012E+02  0.46993766060E+02  0.41800000000E+01 0.  1.
</event>
<event>
11    1  0.6930157E-009  0.2121989E+03  0.7561462E-02  0.1046217E+00
         22   -1    0    0    0    0  0.00000000000E+00  0.00000000000E+00  0.14083221388E+04  0.14083221388E+04  0.00000000000E+00 0.  1.
         22   -1    0    0    0    0 -0.00000000000E+00 -0.00000000000E+00 -0.38914459062E+03  0.38914459062E+03  0.00000000000E+00 0.  1.
        -24    2    1    2    0    0  0.15631104260E+03 -0.51183423366E+02 -0.26919971774E+03  0.32623337440E+03  0.83107410452E+02 0.  0.
         25    2    1    2    0    0 -0.22223257197E+03  0.11077304067E+02  0.94568898556E+02  0.27221334402E+03  0.12508719111E+03 0.  0.
         24    2    1    2    0    0  0.65921529368E+02  0.40106119299E+02  0.11938083674E+04  0.11990200110E+04  0.80724345551E+02 0.  0.
        -13    1    5    5    0    0  0.80618002432E+02  0.19807172420E+02  0.76771952556E+03  0.77219483055E+03  0.00000000000E+00 0.  1.
         14    1    5    5    0    0 -0.14696473064E+02  0.20298946879E+02  0.42608884183E+03  0.42682518049E+03  0.00000000000E+00 0. -1.
         11    1    3    3    0    0  0.55634548674E+02 -0.59521291707E+01 -0.31620989238E+02  0.64269104616E+02  0.00000000000E+00 0. -1.
        -12    1    3    3    0    0  0.10067649392E+03 -0.45231294195E+02 -0.23757872851E+03  0.26196426978E+03  0.00000000000E+00 0.  1.
          5    1    4    4  501    0 -0.50484548504E+01 -0.25971640515E+02  0.34753690310E+02  0.43878290732E+02  0.41800000000E+01 0. -1.
         -5    1    4    4    0  501 -0.21718411711E+03  0.37048944581E+02  0.59815208246E+02  0.22833505329E+03  0.41800000000E+01 0. -1.
</event>
<event>
11    1  0.6930157E-009  0.1869994E+03  0.7561462E-02  0.1064118E+00
         22   -1    0    0    0    0  0.00000000000E+00  0.00000000000E+00  0.88187888494E+03  0.88187888494E+03  0.00000000000E+00 0. -1.
         22   -1    0    0    0    0 -0.00000000000E+00 -0.00000000000E+00 -0.11943152859E+03  0.11943152859E+03  0.00000000000E+00 0.  1.
        -24    2    1    2    0    0 -0.24730036405E+02  0.12624459382E+03  0.43508807124E+02  0.15847774344E+03  0.81687861401E+02 0.  0.
         25    2    1    2    0    0  0.10369067103E+03 -0.13471597668E+03  0.14060167522E+03  0.25360764382E+03  0.12509139177E+03 0.  0.
         24    2    1    2    0    0 -0.78960634629E+02  0.84713828616E+01  0.57833687399E+03  0.58922502627E+03  0.80037776186E+02 0.  0.
        -11    1    5    5    0    0 -0.71232524752E+02  0.72332319581E+00  0.23142783383E+03  0.24214342454E+03  0.00000000000E+00 0.  1.
         12    1    5    5    0    0 -0.77281098772E+01  0.77480596658E+01  0.34690904017E+03  0.34708160173E+03  0.00000000000E+00 0. -1.
         11    1    3    3    0    0 -0.15184415806E+02 -0.84193599110E+01  0.58576244732E+01  0.18323860651E+02  0.00000000000E+00 0. -1.
        -12    1    3    3    0    0 -0.95456205991E+01  0.13466395373E+03  0.37651182650E+02  0.14015388279E+03  0.00000000000E+00 0.  1.
          5    1    4    4  501    0  0.10069790442E+03 -0.95873080454E+02  0.38627436617E+02  0.14436504691E+03  0.41800000000E+01 0. -1.
         -5    1    4    4    0  501  0.29927666150E+01 -0.38842896225E+02  0.10197423861E+03  0.10924259691E+03  0.41800000000E+01 0. -1.
</event>
<event>
11    1  0.6930157E-009  0.2045194E+03  0.7561462E-02  0.1051373E+00
         22   -1    0    0    0    0  0.00000000000E+00  0.00000000000E+00  0.18028315893E+04  0.18028315893E+04  0.00000000000E+00 0. -1.
         22   -1    0    0    0    0 -0.00000000000E+00 -0.00000000000E+00 -0.19080118227E+03  0.19080118227E+03  0.00000000000E+00 0.  1.
         24    2    1    2    0    0 -0.26930847106E+02 -0.84316978164E+02 -0.14259294361E+03  0.18639804665E+03  0.81097847666E+02 0.  0.
         25    2    1    2    0    0  0.15707826221E+03  0.14715024488E+03  0.78605384186E+03  0.82453306234E+03  0.12508938227E+03 0.  0.
        -24    2    1    2    0    0 -0.13014741510E+03 -0.62833266712E+02  0.96856950875E+03  0.98270166255E+03  0.81788111795E+02 0.  0.
        -13    1    3    3    0    0 -0.31062829048E+02 -0.67625937361E+02 -0.15017724650E+03  0.16760480935E+03  0.00000000000E+00 0.  1.
         14    1    3    3    0    0  0.41319819419E+01 -0.16691040803E+02  0.75843028897E+01  0.18793237299E+02  0.00000000000E+00 0. -1.
         11    1    5    5    0    0 -0.39386953864E+02 -0.61068015532E+02  0.51861640341E+03  0.52368273653E+03  0.00000000000E+00 0. -1.
        -12    1    5    5    0    0 -0.90760461238E+02 -0.17652511800E+01  0.44995310534E+03  0.45901892602E+03  0.00000000000E+00 0.  1.
          5    1    4    4  501    0  0.44329790966E+02  0.11610548965E+03  0.30335892970E+03  0.32785626077E+03  0.41800000000E+01 0. -1.
         -5    1    4    4    0  501  0.11274847124E+03  0.31044755229E+02  0.48269491216E+03  0.49667680157E+03  0.41800000000E+01 0. -1.
</event>
<event>
11    1  0.6930157E-009  0.1366310E+03  0.7561462E-02  0.1111380E+00
         22   -1    0    0    0    0  0.00000000000E+00  0.00000000000E+00  0.34171011993E+03  0.34171011993E+03  0.00000000000E+00 0.  1.
         22   -1    0    0    0    0 -0.00000000000E+00 -0.00000000000E+00 -0.15359744265E+04  0.15359744265E+04  0.00000000000E+00 0. -1.
         24    2    1    2    0    0 -0.20349053068E+02 -0.33897776881E+02 -0.79162351468E+03  0.79671233149E+03  0.80744082891E+02 0.  0.
         25    2    1    2    0    0  0.37655549583E+02 -0.18554386778E+02 -0.72797348821E+03  0.73983450860E+03  0.12508994723E+03 0.  0.
        -24    2    1    2    0    0 -0.17306496516E+02  0.52452163659E+02  0.32533269634E+03  0.34113770632E+03  0.86503335606E+02 0.  0.
        -11    1    3    3    0    0  0.18298616929E+02 -0.77250872443E+01 -0.52743628645E+02  0.56359619561E+02  0.00000000000E+00 0.  1.
         12    1    3    3    0    0 -0.38647669997E+02 -0.26172689637E+02 -0.73887988603E+03  0.74035271193E+03  0.00000000000E+00 0. -1.
         13    1    5    5    0    0  0.53118149027E+01 -0.28014170795E+01 -0.34853219046E+01  0.69433985909E+01  0.00000000000E+00 0. -1.
        -14    1    5    5    0    0 -0.22618311418E+02  0.55253580738E+02  0.32881801825E+03  0.33419430773E+03  0.00000000000E+00 0.  1.
          5    1    4    4  501    0 -0.31358777815E+02 -0.62332297704E+00 -0.49845496042E+03  0.49945828799E+03  0.41800000000E+01 0.  1.
         -5    1    4    4    0  501  0.69014327399E+02 -0.17931063801E+02 -0.22951852779E+03  0.24037622061E+03  0.41800000000E+01 0.  1.
</event>
<event>
11    1  0.6930157E-009  0.1604554E+03  0.7561462E-02  0.1086650E+00
         22   -1    0    0    0    0  0.00000000000E+00  0.00000000000E+00  0.69284463289E+03  0.69284463289E+03  0.00000000000E+00 0. -1.
         22   -1    0    0    0    0 -0.00000000000E+00 -0.00000000000E+00 -0.36216384898E+03  0.36216384898E+03  0.00000000000E+00 0. -1.
        -24    2    1    2    0    0 -0.78476432396E+02 -0.60320383080E+02 -0.30593503157E+03  0.33254564513E+03  0.84813109216E+02 0.  0.
         25    2    1    2    0    0  0.76991322180E+02 -0.52518677441E+02  0.14999911690E+03  0.21640269393E+03  0.12507803843E+03 0.  0.
         24    2    1    2    0    0  0.14851102168E+01  0.11283906052E+03  0.48661669859E+03  0.50606014281E+03  0.81032077989E+02 0.  0.
        -11    1    5    5    0    0 -0.80272215151E+01 -0.10242953120E+02  0.24538106898E+02  0.27775403939E+02  0.00000000000E+00 0.  1.
         12    1    5    5    0    0  0.95123317319E+01  0.12308201364E+03  0.46207859169E+03  0.47828473887E+03  0.00000000000E+00 0. -1.
         13    1    3    3    0    0 -0.74541895270E+02 -0.73049753646E+02 -0.19829411013E+03  0.22408327642E+03  0.00000000000E+00 0. -1.
        -14    1    3    3    0    0 -0.39345371263E+01  0.12729370567E+02 -0.10764092144E+03  0.10846236871E+03  0.00000000000E+00 0.  1.
          5    1    4    4  501    0  0.10242416755E+03 -0.27154588827E+02  0.14538095172E+03  0.17994770162E+03  0.41800000000E+01 0.  1.
         -5    1    4    4    0  501 -0.25432845372E+02 -0.25364088615E+02  0.46181651797E+01  0.36454992314E+02  0.41800000000E+01 0.  1.
</event>
<event>
11    1  0.6930157E-009  0.1361100E+03  0.7561462E-02  0.1111982E+00
         22   -1    0    0    0    0  0.00000000000E+00  0.00000000000E+00  0.11649195231E+04  0.11649195231E+04  0.00000000000E+00 0.  1.
         22   -1    0    0    0    0 -0.00000000000E+00 -0.00000000000E+00 -0.96072230259E+03  0.96072230259E+03  0.00000000000E+00 0.  1.
        -24    2    1    2    0    0 -0.21359223665E+02 -0.94386003617E+01 -0.93812835643E+03  0.94177171025E+03  0.79396709485E+02 0.  0.
         25    2    1    2    0    0 -0.27981745266E+02 -0.18169235160E+02  0.21176111246E+03  0.24819403836E+03  0.12507762691E+03 0.  0.
         24    2    1    2    0    0  0.49340968931E+02  0.27607835522E+02  0.93056446446E+03  0.93567607705E+03  0.79641539743E+02 0.  0.
        -11    1    5    5    0    0  0.19597978328E+02 -0.17292965872E+02  0.61450284541E+03  0.61505843172E+03  0.00000000000E+00 0.  1.
         12    1    5    5    0    0  0.29742990603E+02  0.44900801394E+02  0.31606161906E+03  0.32061764533E+03  0.00000000000E+00 0. -1.
         13    1    3    3    0    0 -0.12073885020E+02 -0.42024399492E+02 -0.35898240745E+03  0.36163544864E+03  0.00000000000E+00 0. -1.
        -14    1    3    3    0    0 -0.92853386454E+01  0.32585799130E+02 -0.57914594898E+03  0.58013626161E+03  0.00000000000E+00 0.  1.
          5    1    4    4  501    0  0.59541111758E+01 -0.11225681623E+02 -0.14227190528E+02  0.19528254354E+02  0.41800000000E+01 0. -1.
         -5    1    4    4    0  501 -0.33935856442E+02 -0.69435535369E+01  0.22598830299E+03  0.22866578401E+03  0.41800000000E+01 0. -1.
</event>
<event>
11    1  0.6930157E-009  0.1670375E+03  0.7561462E-02  0.1080639E+00
         22   -1    0    0    0    0  0.00000000000E+00  0.00000000000E+00  0.14631868488E+04  0.14631868488E+04  0.00000000000E+00 0.  1.
         22   -1    0    0    0    0 -0.00000000000E+00 -0.00000000000E+00 -0.54695272913E+03  0.54695272913E+03  0.00000000000E+00 0.  1.
         24    2    1    2    0    0  0.90985406748E+02 -0.62829430944E+02 -0.45244384310E+03  0.47273429219E+03  0.80909815323E+02 0.  0.
         25    2    1    2    0    0 -0.10458895387E+03  0.44836703401E+02  0.29543269279E+01  0.16913089044E+03  0.12508937129E+03 0.  0.
        -24    2    1    2    0    0  0.13603547122E+02  0.17992727543E+02  0.13657236358E+04  0.13682743953E+04  0.80405078276E+02 0.  0.
        -13    1    3    3    0    0  0.17345720926E+02 -0.58499742435E+02 -0.16324481929E+03  0.17427554311E+03  0.00000000000E+00 0.  1.
         14    1    3    3    0    0  0.73639685822E+02 -0.43296885092E+01 -0.28919902381E+03  0.29845874908E+03  0.00000000000E+00 0. -1.
         11    1    5    5    0    0  0.64670750402E+00  0.21546313465E+01 -0.14333215204E+00  0.22541541520E+01  0.00000000000E+00 0. -1.
        -12    1    5    5    0    0  0.12956839618E+02  0.15838096197E+02  0.13658669680E+04  0.13660202412E+04  0.00000000000E+00 0.  1.
          5    1    4    4  501    0 -0.79180996121E+02  0.64297844159E+02 -0.44807645924E+02  0.11148560644E+03  0.41800000000E+01 0. -1.
         -5    1    4    4    0  501 -0.25407957750E+02 -0.19461140758E+02  0.47761972852E+02  0.57645283999E+02  0.41800000000E+01 0. -1.
</event>
<event>
11    1  0.6930157E-009  0.1686482E+03  0.7561462E-02  0.1079214E+00
         22   -1    0    0    0    0  0.00000000000E+00  0.00000000000E+00  0.34944926090E+03  0.34944926090E+03  0.00000000000E+00 0.  1.
         22   -1    0    0    0    0 -0.00000000000E+00 -0.00000000000E+00 -0.92123276553E+03  0.92123276553E+03  0.00000000000E+00 0. -1.
         24    2    1    2    0    0 -0.23592632012E+02 -0.45470773939E+02 -0.67699480400E+03  0.68352716354E+03  0.79140476968E+02 0.  0.
         25    2    1    2    0    0  0.91392417926E+02  0.13093728095E+03 -0.17532651020E+03  0.26811204450E+03  0.12509011803E+03 0.  0.
        -24    2    1    2    0    0 -0.67799785914E+02 -0.85466507008E+02  0.28053780957E+03  0.31904281838E+03  0.10576163092E+03 0.  0.
        -11    1    3    3    0    0 -0.43369213314E+01  0.45910585910E+01 -0.23271055062E+01  0.67306853780E+01  0.00000000000E+00 0.  1.
         12    1    3    3    0    0 -0.19255710681E+02 -0.50061832530E+02 -0.67466769849E+03  0.67679647816E+03  0.00000000000E+00 0. -1.
         11    1    5    5    0    0  0.21008653045E+01 -0.81046831304E+02  0.13379929451E+03  0.15644568933E+03  0.00000000000E+00 0. -1.
        -12    1    5    5    0    0 -0.69900651219E+02 -0.44196757044E+01  0.14673851506E+03  0.16259712905E+03  0.00000000000E+00 0.  1.
          5    1    4    4  501    0  0.26823335743E+02 -0.20964127800E+02 -0.50860627685E+02  0.61345430500E+02  0.41800000000E+01 0. -1.
         -5    1    4    4    0  501  0.64569082184E+02  0.15190140875E+03 -0.12446588252E+03  0.20676661400E+03  0.41800000000E+01 0. -1.
</event>
<event>
11    1  0.6930157E-009  0.1606903E+03  0.7561462E-02  0.1086430E+00
         22   -1    0    0    0    0  0.00000000000E+00  0.00000000000E+00  0.41784325105E+03  0.41784325105E+03  0.00000000000E+00 0.  1.
         22   -1    0    0    0    0 -0.00000000000E+00 -0.00000000000E+00 -0.42024136050E+03  0.42024136050E+03  0.00000000000E+00 0.  1.
         24    2    1    2    0    0  0.28578926925E+02 -0.17395341858E+02 -0.31113689892E+03  0.32310066549E+03  0.80427092379E+02 0.  0.
         25    2    1    2    0    0  0.75014969939E+01 -0.80067025634E+02 -0.30201542570E+02  0.15174548963E+03  0.12509020504E+03 0.  0.
        -24    2    1    2    0    0 -0.36080423919E+02  0.97462367492E+02  0.33894033204E+03  0.36323845644E+03  0.79125959621E+02 0.  0.
        -13    1    3    3    0    0  0.33006424821E+02 -0.44704151617E+02 -0.15805223682E+03  0.16753624926E+03  0.00000000000E+00 0.  1.
         14    1    3    3    0    0 -0.44274978958E+01  0.27308809758E+02 -0.15308466209E+03  0.15556441623E+03  0.00000000000E+00 0. -1.
         13    1    5    5    0    0  0.44144625418E+01  0.27907504911E+02  0.20825447556E+02  0.35100079427E+02  0.00000000000E+00 0. -1.
        -14    1    5    5    0    0 -0.40494886460E+02  0.69554862581E+02  0.31811488448E+03  0.32813837701E+03  0.00000000000E+00 0.  1.
          5    1    4    4  501    0 -0.38411616244E+00 -0.65260765776E+02  0.41855712608E+02  0.77643339526E+02  0.41800000000E+01 0. -1.
         -5    1    4    4    0  501  0.78856131563E+01 -0.14806259858E+02 -0.72057255178E+02  0.74102150101E+02  0.41800000000E+01 0. -1.
</event>
<event>
11    1  0.6930157E-009  0.1499017E+03  0.7561462E-02  0.1096979E+00
         22   -1    0    0    0    0  0.00000000000E+00  0.00000000000E+00  0.10654940232E+03  0.10654940232E+03  0.00000000000E+00 0.  1.
         22   -1    0    0    0    0 -0.00000000000E+00 -0.00000000000E+00 -0.13103831916E+04  0.13103831916E+04  0.00000000000E+00 0.  1.
         24    2    1    2    0    0  0.77876171706E+02  0.51246764014E+02 -0.10120333702E+04  0.10196589324E+04  0.82473432919E+02 0.  0.
         25    2    1    2    0    0 -0.23111094575E+02  0.27342779451E+02 -0.23209229695E+03  0.26607515222E+03  0.12508957609E+03 0.  0.
        -24    2    1    2    0    0 -0.54765077131E+02 -0.78589543465E+02  0.40291877824E+02  0.13119850931E+03  0.80087972947E+02 0.  0.
        -13    1    3    3    0    0  0.76541734792E+02  0.55847720636E+02 -0.10100330289E+04  0.10144675078E+04  0.00000000000E+00 0.  1.
         14    1    3    3    0    0  0.13344369144E+01 -0.46009566220E+01 -0.20003413248E+01  0.51914245763E+01  0.00000000000E+00 0. -1.
         11    1    5    5    0    0  0.19846478629E+02 -0.80473886400E+01  0.16169625397E+01  0.21476911923E+02  0.00000000000E+00 0. -1.
        -12    1    5    5    0    0 -0.74611555760E+02 -0.70542154825E+02  0.38674915284E+02  0.10972159738E+03  0.00000000000E+00 0.  1.
          5    1    4    4  501    0 -0.61452119096E+02  0.41733798358E+02 -0.20146978027E+03  0.21476875384E+03  0.41800000000E+01 0.  1.
         -5    1    4    4    0  501  0.38341024521E+02 -0.14391018907E+02 -0.30622516680E+02  0.51306398376E+02  0.41800000000E+01 0.  1.
</event>
<event>
11    1  0.6930157E-009  0.1815432E+03  0.7561462E-02  0.1068401E+00
         22   -1    0    0    0    0  0.00000000000E+00  0.00000000000E+00  0.26634005158E+04  0.26634005158E+04  0.00000000000E+00 0.  1.
         22   -1    0    0    0    0 -0.00000000000E+00 -0.00000000000E+00 -0.55059008560E+03  0.55059008560E+03  0.00000000000E+00 0.  1.
         24    2    1    2    0    0  0.11452750083E+03  0.72850206097E+02 -0.47900656096E+03  0.50407130951E+03  0.78847312282E+02 0.  0.
         25    2    1    2    0    0 -0.63376204743E+02 -0.77098806391E+02  0.51277952106E+02  0.16803256501E+03  0.12507895609E+03 0.  0.
        -24    2    1    2    0    0 -0.51151296090E+02  0.42486002937E+01  0.25405390391E+04  0.25418867269E+04  0.64923167094E+02 0.  0.
        -11    1    3    3    0    0  0.12035103190E+03  0.79773912636E+02 -0.46829946794E+03  0.49005371103E+03  0.00000000000E+00 0.  1.
         12    1    3    3    0    0 -0.58235310690E+01 -0.69237065386E+01 -0.10707093017E+02  0.14017598483E+02  0.00000000000E+00 0. -1.
         13    1    5    5    0    0 -0.36177622981E+02 -0.29494729526E+01  0.51418504696E+03  0.51546462760E+03  0.00000000000E+00 0. -1.
        -14    1    5    5    0    0 -0.14973673109E+02  0.71980732463E+01  0.20263539921E+04  0.20264220993E+04  0.00000000000E+00 0.  1.
          5    1    4    4  501    0 -0.78856378470E+02 -0.10185845738E+03  0.50790617417E+02  0.13853026017E+03  0.41800000000E+01 0. -1.
         -5    1    4    4    0  501  0.15480173726E+02  0.24759650990E+02  0.48733468874E+00  0.29502304840E+02  0.41800000000E+01 0. -1.
</event>
<event>
11    1  0.6930157E-009  0.1639063E+03  0.7561462E-02  0.1083460E+00
         22   -1    0    0    0    0  0.00000000000E+00  0.00000000000E+00  0.12379953160E+04  0.12379953160E+04  0.00000000000E+00 0. -1.
         22   -1    0    0    0    0 -0.00000000000E+00 -0.00000000000E+00 -0.13055959686E+03  0.13055959686E+03  0.00000000000E+00 0.  1.
         24    2    1    2    0    0  0.88225265881E+01 -0.33457978477E+02 -0.65607711604E+02  0.11119697391E+03  0.82843961076E+02 0.  0.
         25    2    1    2    0    0  0.95807133286E+02  0.51435818248E+02  0.14326032296E+03  0.21907879451E+03  0.12508935959E+03 0.  0.
        -24    2    1    2    0    0 -0.10462965987E+03 -0.17977839771E+02  0.10297831078E+04  0.10382791444E+04  0.79371054085E+02 0.  0.
        -11    1    3    3    0    0 -0.94288360207E+00 -0.29143543869E+02 -0.84559087288E+02  0.89445371158E+02  0.00000000000E+00 0.  1.
         12    1    3    3    0    0  0.97654101902E+01 -0.43144346073E+01  0.18951375684E+02  0.21751602756E+02  0.00000000000E+00 0. -1.
         13    1    5    5    0    0 -0.76918460617E+02 -0.45150725140E+02  0.82861807626E+03  0.83340443596E+03  0.00000000000E+00 0. -1.
        -14    1    5    5    0    0 -0.27711199257E+02  0.27172885369E+02  0.20116503153E+03  0.20487470848E+03  0.00000000000E+00 0.  1.
          5    1    4    4  501    0  0.24827657154E+02 -0.12120863266E+01  0.12655790850E+03  0.12904362951E+03  0.41800000000E+01 0.  1.
         -5    1    4    4    0  501  0.70979476132E+02  0.52647904574E+02  0.16702414456E+02  0.90035165001E+02  0.41800000000E+01 0.  1.
</event>
<event>
11    1  0.6930157E-009  0.1597109E+03  0.7561462E-02  0.1087350E+00
         22   -1    0    0    0    0  0.00000000000E+00  0.00000000000E+00  0.19152217448E+04  0.19152217448E+04  0.00000000000E+00 0. -1.
         22   -1    0    0    0    0 -0.00000000000E+00 -0.00000000000E+00 -0.16255254621E+03  0.16255254621E+03  0.00000000000E+00 0. -1.
        -24    2    1    2    0    0  0.10935694871E+02  0.31588202402E+02 -0.83340639597E+02  0.12742100290E+03  0.90404899308E+02 0.  0.
         25    2    1    2    0    0  0.80594252461E+02  0.93254253854E+01  0.46704158145E+02  0.15623865384E+03  0.12508733540E+03 0.  0.
         24    2    1    2    0    0 -0.91529947333E+02 -0.40913627788E+02  0.17893056801E+04  0.17941146343E+04  0.84739884963E+02 0.  0.
        -11    1    5    5    0    0 -0.28073098730E+01 -0.11022543936E+02  0.26669073971E+02  0.28993395282E+02  0.00000000000E+00 0.  1.
         12    1    5    5    0    0 -0.88722637460E+02 -0.29891083851E+02  0.17626366061E+04  0.17651212390E+04  0.00000000000E+00 0. -1.
         13    1    3    3    0    0  0.10369695893E+02  0.25325559036E+02 -0.10310783365E+03  0.10667773851E+03  0.00000000000E+00 0. -1.
        -14    1    3    3    0    0  0.56599897871E+00  0.62626433662E+01  0.19767194055E+02  0.20743264391E+02  0.00000000000E+00 0.  1.
          5    1    4    4  501    0  0.44172411214E+02 -0.29720591343E+02  0.77755749130E+02  0.94328915954E+02  0.41800000000E+01 0. -1.
         -5    1    4    4    0  501  0.36421841247E+02  0.39046016728E+02 -0.31051590985E+02  0.61909737884E+02  0.41800000000E+01 0. -1.
</event>
<event>
11    1  0.6930157E-009  0.1342672E+03  0.7561462E-02  0.1114134E+00
         22   -1    0    0    0    0  0.00000000000E+00  0.00000000000E+00  0.12090309640E+04  0.12090309640E+04  0.00000000000E+00 0.  1.
         22   -1    0    0    0    0 -0.00000000000E+00 -0.00000000000E+00 -0.51009426194E+02  0.51009426194E+02  0.00000000000E+00 0. -1.
         24    2    1    2    0    0 -0.17094058257E+02  0.30823812599E+02  0.95121522485E+01  0.88813308077E+02  0.80963006370E+02 0.  0.
         25    2    1    2    0    0 -0.29866953537E+02 -0.45755607783E+02  0.76609944842E+03  0.77816542515E+03  0.12508978167E+03 0.  0.
        -24    2    1    2    0    0  0.46961011794E+02  0.14931795184E+02  0.38240993715E+03  0.39306165698E+03  0.76366295028E+02 0.  0.
        -13    1    3    3    0    0  0.67780330584E+01 -0.20593091957E+02  0.21868755474E+02  0.30793824616E+02  0.00000000000E+00 0.  1.
         14    1    3    3    0    0 -0.23872091315E+02  0.51416904556E+02 -0.12356603225E+02  0.58019483462E+02  0.00000000000E+00 0. -1.
         11    1    5    5    0    0 -0.83750823363E+01 -0.15690185224E+02  0.18301608243E+03  0.18387824870E+03  0.00000000000E+00 0. -1.
        -12    1    5    5    0    0  0.55336094130E+02  0.30621980408E+02  0.19939385472E+03  0.20918340827E+03  0.00000000000E+00 0.  1.
          5    1    4    4  501    0 -0.75005293505E+02 -0.13822792436E+02  0.34006723182E+03  0.34853989471E+03  0.41800000000E+01 0. -1.
         -5    1    4    4    0  501  0.45138339967E+02 -0.31932815347E+02  0.42603221660E+03  0.42962553045E+03  0.41800000000E+01 0. -1.
</event>
<event>
11    1  0.6930157E-009  0.1279703E+03  0.7561462E-02  0.1121788E+00
         22   -1    0    0    0    0  0.00000000000E+00  0.00000000000E+00  0.23821386897E+04  0.23821386897E+04  0.00000000000E+00 0. -1.
         22   -1    0    0    0    0 -0.00000000000E+00 -0.00000000000E+00 -0.37889395154E+02  0.37889395154E+02  0.00000000000E+00 0. -1.
         24    2    1    2    0    0 -0.20940967966E+02  0.16633910085E+02  0.33381795920E+02  0.97113775087E+02  0.87186753058E+02 0.  0.
         25    2    1    2    0    0  0.44040835660E+02  0.80238999023E+01  0.94580457618E+03  0.95509020174E+03  0.12508804487E+03 0.  0.
        -24    2    1    2    0    0 -0.23099867694E+02 -0.24657809987E+02  0.13650629224E+04  0.13678241080E+04  0.80027475107E+02 0.  0.
        -13    1    3    3    0    0 -0.10383553492E+02  0.26938503205E+02  0.60054138723E+02  0.66633330367E+02  0.00000000000E+00 0.  1.
         14    1    3    3    0    0 -0.10557414474E+02 -0.10304593120E+02 -0.26672342803E+02  0.30480444720E+02  0.00000000000E+00 0. -1.
         13    1    5    5    0    0 -0.35038469064E+02 -0.10824240813E+02  0.12916759160E+04  0.12921963978E+04  0.00000000000E+00 0. -1.
        -14    1    5    5    0    0  0.11938601370E+02 -0.13833569174E+02  0.73387006376E+02  0.75627710157E+02  0.00000000000E+00 0.  1.
          5    1    4    4  501    0  0.20800675228E+02 -0.53433951590E+02  0.26809833564E+03  0.27419344494E+03  0.41800000000E+01 0.  1.
         -5    1    4    4    0  501  0.23240160433E+02  0.61457851493E+02  0.67770624054E+03  0.68089675680E+03  0.41800000000E+01 0.  1.
</event>
<event>
11    1  0.6930157E-009  0.1581982E+03  0.7561462E-02  0.1088784E+00
         22   -1    0    0    0    0  0.00000000000E+00  0.00000000000E+00  0.20080886132E+04  0.20080886132E+04  0.00000000000E+00 0.  1.
         22   -1    0    0    0    0 -0.00000000000E+00 -0.00000000000E+00 -0.11172622195E+04  0.11172622195E+04  0.00000000000E+00 0.  1.
         24    2    1    2    0    0  0.86045458854E+00 -0.52040183439E+02 -0.11002295877E+04  0.11042869751E+04  0.78966173471E+02 0.  0.
         25    2    1    2    0    0 -0.85343990937E+02 -0.45010138142E+01  0.45534641816E+03  0.47988766865E+03  0.12509179860E+03 0.  0.
        -24    2    1    2    0    0  0.84483536349E+02  0.56541197253E+02  0.15357095632E+04  0.15411761889E+04  0.80534513022E+02 0.  0.
        -13    1    3    3    0    0  0.27444246467E+02  0.31148742271E+01 -0.54336038480E+03  0.54406194214E+03  0.00000000000E+00 0.  1.
         14    1    3    3    0    0 -0.26583791878E+02 -0.55155057666E+02 -0.55686920290E+03  0.56022503292E+03  0.00000000000E+00 0. -1.
         11    1    5    5    0    0  0.55990688903E+01  0.41975734583E+02  0.31500609250E+03  0.31783981843E+03  0.00000000000E+00 0. -1.
        -12    1    5    5    0    0  0.78884467458E+02  0.14565462671E+02  0.12207034707E+04  0.12233363705E+04  0.00000000000E+00 0.  1.
          5    1    4    4  501    0 -0.31536857539E+02 -0.24679992231E+02  0.39275660441E+03  0.39481501758E+03  0.41800000000E+01 0.  1.
         -5    1    4    4    0  501 -0.53807133398E+02  0.20178978416E+02  0.62589813748E+02  0.85072651067E+02  0.41800000000E+01 0.  1.
</event>
<event>
11    1  0.6930157E-009  0.1428037E+03  0.7561462E-02  0.1104467E+00
         22   -1    0    0    0    0  0.00000000000E+00  0.00000000000E+00  0.70306876023E+03  0.70306876023E+03  0.00000000000E+00 0. -1.
         22   -1    0    0    0    0 -0.00000000000E+00 -0.00000000000E+00 -0.30649987046E+04  0.30649987046E+04  0.00000000000E+00 0. -1.
        -24    2    1    2    0    0  0.12687448320E+02  0.14461462057E+02 -0.24431676212E+04  0.24445355679E+04  0.79473343640E+02 0.  0.
         25    2    1    2    0    0 -0.79701844620E+02  0.12213303149E+01 -0.60789401203E+03  0.62572862241E+03  0.12508918159E+03 0.  0.
         24    2    1    2    0    0  0.67014396299E+02 -0.15682792372E+02  0.68913168886E+03  0.69780327449E+03  0.85381766338E+02 0.  0.
        -13    1    5    5    0    0 -0.12607643405E+02  0.80219671064E+01  0.27585412619E+03  0.27625858098E+03  0.00000000000E+00 0.  1.
         14    1    5    5    0    0  0.79622039705E+02 -0.23704759478E+02  0.41327756266E+03  0.42154469352E+03  0.00000000000E+00 0. -1.
         13    1    3    3    0    0  0.17181681611E+02  0.24883434837E+02 -0.23890143197E+04  0.23892056871E+04  0.00000000000E+00 0. -1.
        -14    1    3    3    0    0 -0.44942332905E+01 -0.10421972780E+02 -0.54153301465E+02  0.55329880798E+02  0.00000000000E+00 0.  1.
          5    1    4    4  501    0  0.20636639384E+02 -0.35333743989E+02 -0.18807329900E+03  0.19251852520E+03  0.41800000000E+01 0.  1.
         -5    1    4    4    0  501 -0.10033848400E+03  0.36555074304E+02 -0.41982071303E+03  0.43321009720E+03  0.41800000000E+01 0.  1.
</event>
<event>
11    1  0.6930157E-009  0.1652255E+03  0.7561462E-02  0.1082263E+00
         22   -1    0    0    0    0  0.00000000000E+00  0.00000000000E+00  0.24671918559E+03  0.24671918559E+03  0.00000000000E+00 0.  1.
         22   -1    0    0    0    0 -0.00000000000E+00 -0.00000000000E+00 -0.90511316021E+03  0.90511316021E+03  0.00000000000E+00 0.  1.
         24    2    1    2    0    0 -0.82977501401E+01  0.32840044145E+02 -0.75135510104E+03  0.75642226336E+03  0.80578108001E+02 0.  0.
         25    2    1    2    0    0  0.70559110541E+02  0.59602835167E+02 -0.79785150285E+02  0.17476613019E+03  0.12508574665E+03 0.  0.
        -24    2    1    2    0    0 -0.62261360400E+02 -0.92442879311E+02  0.17274627670E+03  0.22064395225E+03  0.80126865752E+02 0.  0.
        -13    1    3    3    0    0 -0.13574972113E+02 -0.21566482462E+02 -0.40297373172E+03  0.40377867885E+03  0.00000000000E+00 0.  1.
         14    1    3    3    0    0  0.52772219724E+01  0.54406526607E+02 -0.34838136932E+03  0.35264358451E+03  0.00000000000E+00 0. -1.
         11    1    5    5    0    0 -0.45683045904E+02 -0.24374379515E+01  0.57329843678E+02  0.73345707188E+02  0.00000000000E+00 0. -1.
        -12    1    5    5    0    0 -0.16578314497E+02 -0.90005441360E+02  0.11541643302E+03  0.14729824506E+03  0.00000000000E+00 0.  1.
          5    1    4    4  501    0  0.98088863713E+02  0.18958149641E+02 -0.75535037126E+02  0.12531500651E+03  0.41800000000E+01 0. -1.
         -5    1    4    4    0  501 -0.27529753173E+02  0.40644685526E+02 -0.42501131594E+01  0.49451123679E+02  0.41800000000E+01 0. -1.
</event>
<event>
11    1  0.6930157E-009  0.1480087E+03  0.7561462E-02  0.1098931E+00
         22   -1    0    0    0    0  0.00000000000E+00  0.00000000000E+00  0.15750676936E+04  0.15750676936E+04  0.00000000000E+00 0.  1.
         22   -1    0    0    0    0 -0.00000000000E+00 -0.00000000000E+00 -0.11005231592E+04  0.11005231592E+04  0.00000000000E+00 0.  1.
         24    2    1    2    0    0  0.24442214607E+02 -0.75747443401E+02 -0.10187703910E+04  0.10249914475E+04  0.79870274942E+02 0.  0.
         25    2    1    2    0    0 -0.49803735949E+02  0.55719040956E+02 -0.88887336477E+01  0.14598433061E+03  0.12508953417E+03 0.  0.
        -24    2    1    2    0    0  0.25361521342E+02  0.20028402445E+02  0.15022036591E+04  0.15046150747E+04  0.78780365376E+02 0.  0.
        -11    1    3    3    0    0  0.37093931225E+02 -0.21755700945E+02 -0.70853749507E+03  0.70984128662E+03  0.00000000000E+00 0.  1.
         12    1    3    3    0    0 -0.12651716618E+02 -0.53991742456E+02 -0.31023289590E+03  0.31515016086E+03  0.00000000000E+00 0. -1.
         11    1    5    5    0    0 -0.53027192277E+01  0.22837333519E+02  0.13202848244E+03  0.13409393278E+03  0.00000000000E+00 0. -1.
        -12    1    5    5    0    0  0.30664240570E+02 -0.28089310733E+01  0.13701751767E+04  0.13705211419E+04  0.00000000000E+00 0.  1.
          5    1    4    4  501    0 -0.29881430185E+02  0.50216316810E+02 -0.64126994805E+02  0.86858057810E+02  0.41800000000E+01 0. -1.
         -5    1    4    4    0  501 -0.19922305764E+02  0.55027241458E+01  0.55238261157E+02  0.59126272803E+02  0.41800000000E+01 0. -1.
</event>
<event>
11    1  0.6930157E-009  0.1510584E+03  0.7561462E-02  0.1095802E+00
         22   -1    0    0    0    0  0.00000000000E+00  0.00000000000E+00  0.43306867673E+03  0.43306867673E+03  0.00000000000E+00 0.  1.
         22   -1    0    0    0    0 -0.00000000000E+00 -0.00000000000E+00 -0.14822435069E+04  0.14822435069E+04  0.00000000000E+00 0. -1.
        -24    2    1    2    0    0  0.12256675010E+02 -0.13055712767E+02 -0.93507977107E+03  0.93875794721E+03  0.81065575194E+02 0.  0.
         25    2    1    2    0    0 -0.22314241124E+02  0.96925586251E+02 -0.52541407054E+03  0.54918105203E+03  0.12508951899E+03 0.  0.
         24    2    1    2    0    0  0.10057566115E+02 -0.83869873484E+02  0.41131901141E+03  0.42737318441E+03  0.79556264940E+02 0.  0.
        -11    1    5    5    0    0 -0.17655077709E+02 -0.35793376414E+02  0.30349085882E+03  0.30610385321E+03  0.00000000000E+00 0.  1.
         12    1    5    5    0    0  0.27712643823E+02 -0.48076497069E+02  0.10782815259E+03  0.12126933120E+03  0.00000000000E+00 0. -1.
         11    1    3    3    0    0  0.51450787413E+01 -0.22680161361E+02 -0.91560500973E+03  0.91590031957E+03  0.00000000000E+00 0. -1.
        -12    1    3    3    0    0  0.71115962683E+01  0.96244485936E+01 -0.19474761342E+02  0.22857627644E+02  0.00000000000E+00 0.  1.
          5    1    4    4  501    0  0.43115248451E+01  0.18957790390E+02 -0.39076353689E+03  0.39126921835E+03  0.41800000000E+01 0.  1.
         -5    1    4    4    0  501 -0.26625765969E+02  0.77967795860E+02 -0.13465053365E+03  0.15791183368E+03  0.41800000000E+01 0.  1.
</event>
<event>
11    1  0.6930157E-009  0.1522973E+03  0.7561462E-02  0.1094554E+00
         22   -1    0    0    0    0  0.00000000000E+00  0.00000000000E+00  0.18613158962E+04  0.18613158962E+04  0.00000000000E+00 0.  1.
         22   -1    0    0    0    0 -0.00000000000E+00 -0.00000000000E+00 -0.27083303591E+03  0.27083303591E+03  0.00000000000E+00 0. -1.
        -24    2    1    2    0    0  0.55307123684E+02 -0.69419483128E+02 -0.23073855004E+03  0.25988363464E+03  0.80132905292E+02 0.  0.
         25    2    1    2    0    0 -0.52772176936E+02  0.34809208360E+02  0.17736353212E+03  0.22607100502E+03  0.12511471991E+03 0.  0.
         24    2    1    2    0    0 -0.25349467485E+01  0.34610274768E+02  0.16438578782E+04  0.16461942924E+04  0.80514766987E+02 0.  0.
        -11    1    5    5    0    0 -0.34282374387E+02  0.57231419018E+01  0.11341116973E+04  0.11346441634E+04  0.00000000000E+00 0.  1.
         12    1    5    5    0    0  0.31747427638E+02  0.28887132866E+02  0.50974618085E+03  0.51155012902E+03  0.00000000000E+00 0. -1.
         13    1    3    3    0    0  0.68100040945E+02 -0.50894324086E+02 -0.21805755783E+03  0.23404475283E+03  0.00000000000E+00 0. -1.
        -14    1    3    3    0    0 -0.12792917261E+02 -0.18525159042E+02 -0.12680992207E+02  0.25838881805E+02  0.00000000000E+00 0.  1.
          5    1    4    4  501    0 -0.25624586089E+02  0.30606086329E+01  0.18196935010E+03  0.18383770971E+03  0.41800000000E+01 0.  1.
         -5    1    4    4    0  501 -0.27147590847E+02  0.31748599727E+02 -0.46058179736E+01  0.42233295309E+02  0.41800000000E+01 0.  1.
</event>
<event>
11    1  0.6930157E-009  0.1479342E+03  0.7561462E-02  0.1099008E+00
         22   -1    0    0    0    0  0.00000000000E+00  0.00000000000E+00  0.55083367749E+03  0.55083367749E+03  0.00000000000E+00 0.  1.
         22   -1    0    0    0    0 -0.00000000000E+00 -0.00000000000E+00 -0.17523366976E+04  0.17523366976E+04  0.00000000000E+00 0. -1.
        -24    2    1    2    0    0 -0.21276025029E+02  0.10044653184E+02 -0.11319820049E+04  0.11350722135E+04  0.80325004155E+02 0.  0.
         25    2    1    2    0    0 -0.57001480052E+02  0.18661869261E+01 -0.60544168053E+03  0.62085440926E+03  0.12509163681E+03 0.  0.
         24    2    1    2    0    0  0.78277505080E+02 -0.11910840110E+02  0.53592066528E+03  0.54724375231E+03  0.77430801716E+02 0.  0.
        -13    1    5    5    0    0  0.48483430000E+02  0.11576104550E+02  0.45664748492E+03  0.45935996198E+03  0.00000000000E+00 0.  1.
         14    1    5    5    0    0  0.29794075080E+02 -0.23486944660E+02  0.79273180354E+02  0.87883790329E+02  0.00000000000E+00 0. -1.
         11    1    3    3    0    0  0.28449632832E+02  0.49764122078E+01 -0.61549992314E+03  0.61617716744E+03  0.00000000000E+00 0. -1.
        -12    1    3    3    0    0 -0.49725657861E+02  0.50682409761E+01 -0.51648208173E+03  0.51889504610E+03  0.00000000000E+00 0.  1.
          5    1    4    4  501    0 -0.82677305245E+02 -0.14888728580E+02 -0.55739906988E+03  0.56370950546E+03  0.41800000000E+01 0.  1.
         -5    1    4    4    0  501  0.25675825193E+02  0.16754915506E+02 -0.48042610644E+02  0.57144903801E+02  0.41800000000E+01 0.  1.
</event>
<event>
11    1  0.6930157E-009  0.1475870E+03  0.7561462E-02  0.1099370E+00
         22   -1    0    0    0    0  0.00000000000E+00  0.00000000000E+00  0.26939253976E+04  0.26939253976E+04  0.00000000000E+00 0.  1.
         22   -1    0    0    0    0 -0.00000000000E+00 -0.00000000000E+00 -0.21848218779E+04  0.21848218779E+04  0.00000000000E+00 0. -1.
        -24    2    1    2    0    0  0.32383688861E+02 -0.71560615321E+02 -0.21716422167E+04  0.21744463017E+04  0.77570463679E+02 0.  0.
         25    2    1    2    0    0 -0.40994608960E+01  0.17172658997E+02  0.36532421965E+03  0.38655072414E+03  0.12509185057E+03 0.  0.
         24    2    1    2    0    0 -0.28284227965E+02  0.54387956323E+02  0.23154215168E+04  0.23177502497E+04  0.83853276893E+02 0.  0.
        -11    1    5    5    0    0 -0.91275805483E+01  0.72991063797E+02  0.13915220724E+04  0.13934649928E+04  0.00000000000E+00 0.  1.
         12    1    5    5    0    0 -0.19156647416E+02 -0.18603107473E+02  0.92389944435E+03  0.92428525684E+03  0.00000000000E+00 0. -1.
         13    1    3    3    0    0  0.36503017532E+02 -0.24578894261E+02 -0.16730158347E+04  0.16735945074E+04  0.00000000000E+00 0. -1.
        -14    1    3    3    0    0 -0.41193286715E+01 -0.46981721060E+02 -0.49862638204E+03  0.50085179430E+03  0.00000000000E+00 0.  1.
          5    1    4    4  501    0 -0.56786282413E+02  0.37862105005E+02  0.17289841287E+03  0.18592889619E+03  0.41800000000E+01 0. -1.
         -5    1    4    4    0  501  0.52686821517E+02 -0.20689446007E+02  0.19242580677E+03  0.20062182795E+03  0.41800000000E+01 0. -1.
</event>
<event>
11    1  0.6930157E-009  0.1405700E+03  0.7561462E-02  0.1106924E+00
         22   -1    0    0    0    0  0.00000000000E+00  0.00000000000E+00  0.14400277286E+04  0.14400277286E+04  0.00000000000E+00 0. -1.
         22   -1    0    0    0    0 -0.00000000000E+00 -0.00000000000E+00 -0.20551439405E+03  0.20551439405E+03  0.00000000000E+00 0. -1.
        -24    2    1    2    0    0 -0.22227649060E+02  0.36016325296E+02 -0.17972762098E+03  0.20074204207E+03  0.78766145288E+02 0.  0.
         25    2    1    2    0    0  0.65561147346E+02 -0.73401189657E+02  0.48668564748E+03  0.51205141280E+03  0.12509089177E+03 0.  0.
         24    2    1    2    0    0 -0.43333498287E+02  0.37384864361E+02  0.92755530806E+03  0.93274866779E+03  0.79911248280E+02 0.  0.
        -13    1    5    5    0    0 -0.41201977854E+02  0.27187162961E+02  0.23564167101E+03  0.24075660308E+03  0.00000000000E+00 0.  1.
         14    1    5    5    0    0 -0.21315204326E+01  0.10197701400E+02  0.69191363705E+03  0.69199206471E+03  0.00000000000E+00 0. -1.
         11    1    3    3    0    0 -0.68460115583E+01  0.60802131236E+01 -0.16282008158E+03  0.16307733084E+03  0.00000000000E+00 0. -1.
        -12    1    3    3    0    0 -0.15381637501E+02  0.29936112172E+02 -0.16907539392E+02  0.37664711236E+02  0.00000000000E+00 0.  1.
          5    1    4    4  501    0  0.67855327867E+02 -0.18631301023E+02  0.41882510523E+03  0.42471568380E+03  0.41800000000E+01 0.  1.
         -5    1    4    4    0  501 -0.22941805212E+01 -0.54769888634E+02  0.67860542253E+02  0.87335729000E+02  0.41800000000E+01 0.  1.
</event>
<event>
11    1  0.7118963E-009  0.1755100E+03  0.7561462E-02  0.1073334E+00
         22   -1    0    0    0    0  0.00000000000E+00  0.00000000000E+00  0.59530583083E+03  0.59530583083E+03  0.00000000000E+00 0.  1.
         22   -1    0    0    0    0 -0.00000000000E+00 -0.00000000000E+00 -0.42931649666E+03  0.42931649666E+03  0.00000000000E+00 0. -1.
        -24    2    1    2    0    0 -0.26081191202E+02 -0.52206333552E+01 -0.29331388725E+03  0.30579071366E+03  0.82264455006E+02 0.  0.
         25    2    1    2    0    0 -0.31980571772E+02 -0.10486808959E+03 -0.61194576656E+02  0.17723676690E+03  0.12509205469E+03 0.  0.
         24    2    1    2    0    0  0.58061762974E+02  0.11008872294E+03  0.52049779807E+03  0.54159484693E+03  0.83164446613E+02 0.  0.
        -13    1    5    5    0    0  0.71939695725E+02  0.11384555125E+03  0.48340099685E+03  0.50180937926E+03  0.00000000000E+00 0.  1.
         14    1    5    5    0    0 -0.13877932751E+02 -0.37568283042E+01  0.37096801226E+02  0.39785467668E+02  0.00000000000E+00 0. -1.
         11    1    3    3    0    0  0.17224669338E+02 -0.22625096628E+02 -0.19380717859E+03  0.19588212451E+03  0.00000000000E+00 0. -1.
        -12    1    3    3    0    0 -0.43305860540E+02  0.17404463273E+02 -0.99506708667E+02  0.10990858915E+03  0.00000000000E+00 0.  1.
          5    1    4    4  501    0 -0.65733984513E+02 -0.18259127719E+02 -0.49925711151E+01  0.68532843450E+02  0.41800000000E+01 0. -1.
         -5    1    4    4    0  501  0.33753412741E+02 -0.86608961869E+02 -0.56202005541E+02  0.10870392345E+03  0.41800000000E+01 0. -1.
</event>
<event>
11    1  0.6930157E-009  0.1289848E+03  0.7561462E-02  0.1120523E+00
         22   -1    0    0    0    0  0.00000000000E+00  0.00000000000E+00  0.16322775846E+03  0.16322775846E+03  0.00000000000E+00 0. -1.
         22   -1    0    0    0    0 -0.00000000000E+00 -0.00000000000E+00 -0.90187629341E+03  0.90187629341E+03  0.00000000000E+00 0.  1.
         24    2    1    2    0    0  0.30336129410E+02  0.71959169771E+01 -0.78692269711E+03  0.79179841711E+03  0.82008171151E+02 0.  0.
         25    2    1    2    0    0 -0.35276385038E+02 -0.90041829591E+01 -0.55956039750E+02  0.14178858643E+03  0.12508967265E+03 0.  0.
        -24    2    1    2    0    0  0.49402556286E+01  0.18082659819E+01  0.10423020191E+03  0.13151704833E+03  0.80032012711E+02 0.  0.
        -11    1    3    3    0    0 -0.62195191054E+01  0.24728895126E+02 -0.59944227926E+03  0.59998437216E+03  0.00000000000E+00 0.  1.
         12    1    3    3    0    0  0.36555648515E+02 -0.17532978149E+02 -0.18748041785E+03  0.19181404495E+03  0.00000000000E+00 0. -1.
         13    1    5    5    0    0  0.36992989661E+02  0.12965158944E+02  0.28300945329E+02  0.48347907266E+02  0.00000000000E+00 0. -1.
        -14    1    5    5    0    0 -0.32052734032E+02 -0.11156892962E+02  0.75929256586E+02  0.83169141063E+02  0.00000000000E+00 0.  1.
          5    1    4    4  501    0 -0.46771806244E+02 -0.58774915858E+02 -0.16273633813E+02  0.76970099071E+02  0.41800000000E+01 0.  1.
         -5    1    4    4    0  501  0.11495421206E+02  0.49770732899E+02 -0.39682405937E+02  0.64818487355E+02  0.41800000000E+01 0.  1.
</event>
<event>
11    1  0.6930157E-009  0.3666630E+03  0.7561462E-02  0.9753588E-01
         22   -1    0    0    0    0  0.00000000000E+00  0.00000000000E+00  0.10729237941E+04  0.10729237941E+04  0.00000000000E+00 0. -1.
         22   -1    0    0    0    0 -0.00000000000E+00 -0.00000000000E+00 -0.76954717514E+03  0.76954717514E+03  0.00000000000E+00 0.  1.
         24    2    1    2    0    0  0.12975328571E+03 -0.42621983164E+02 -0.56425197213E+03  0.58607762209E+03  0.80337677760E+02 0.  0.
         25    2    1    2    0    0  0.14157595834E+03 -0.20719316808E+03 -0.30629536074E+02  0.28205874225E+03  0.12508479014E+03 0.  0.
        -24    2    1    2    0    0 -0.27132924405E+03  0.24981515124E+03  0.89825812715E+03  0.97433460488E+03  0.80206550999E+02 0.  0.
        -13    1    3    3    0    0  0.13769307765E+03 -0.42373081138E+02 -0.55697335770E+03  0.57530355711E+03  0.00000000000E+00 0.  1.
         14    1    3    3    0    0 -0.79397919398E+01 -0.24890202604E+00 -0.72786144296E+01  0.10774064984E+02  0.00000000000E+00 0. -1.
         13    1    5    5    0    0 -0.27705400615E+03  0.24636398296E+03  0.88158391332E+03  0.95637039406E+03  0.00000000000E+00 0. -1.
        -14    1    5    5    0    0  0.57247620972E+01  0.34511682858E+01  0.16674213831E+02  0.17964210823E+02  0.00000000000E+00 0.  1.
          5    1    4    4  501    0  0.14043438909E+03 -0.12321249137E+03  0.12999458637E+02  0.18732216631E+03  0.41800000000E+01 0. -1.
         -5    1    4    4    0  501  0.11415692476E+01 -0.83980676713E+02 -0.43628994711E+02  0.94736575941E+02  0.41800000000E+01 0. -1.
</event>
<event>
11    1  0.6930157E-009  0.1741772E+03  0.7561462E-02  0.1074453E+00
         22   -1    0    0    0    0  0.00000000000E+00  0.00000000000E+00  0.88675217705E+03  0.88675217705E+03  0.00000000000E+00 0. -1.
         22   -1    0    0    0    0 -0.00000000000E+00 -0.00000000000E+00 -0.11522202015E+04  0.11522202015E+04  0.00000000000E+00 0. -1.
        -24    2    1    2    0    0  0.13453816560E+02 -0.19647406976E+02 -0.10496620017E+04  0.10529519641E+04  0.79689993405E+02 0.  0.
         25    2    1    2    0    0 -0.11082878395E+03 -0.52604340332E+02 -0.13037751131E+02  0.17569157112E+03  0.12508920511E+03 0.  0.
         24    2    1    2    0    0  0.97374967389E+02  0.72251747308E+02  0.79723172839E+03  0.81032884334E+03  0.79700729832E+02 0.  0.
        -11    1    5    5    0    0 -0.82392143970E+01  0.22197416733E+02  0.73464939418E+02  0.77186185858E+02  0.00000000000E+00 0.  1.
         12    1    5    5    0    0  0.10561418179E+03  0.50054330575E+02  0.72376678897E+03  0.73314265748E+03  0.00000000000E+00 0. -1.
         11    1    3    3    0    0  0.45615104433E+02 -0.16561246008E+02 -0.74578049903E+03  0.74735772248E+03  0.00000000000E+00 0. -1.
        -12    1    3    3    0    0 -0.32161287873E+02 -0.30861609680E+01 -0.30388150270E+03  0.30559424162E+03  0.00000000000E+00 0.  1.
          5    1    4    4  501    0  0.90944784562E+01  0.70228184754E+01  0.32059390710E+02  0.34311899545E+02  0.41800000000E+01 0. -1.
         -5    1    4    4    0  501 -0.11992326240E+03 -0.59627158807E+02 -0.45097141841E+02  0.14137967158E+03  0.41800000000E+01 0. -1.
</event>
<event>
11    1  0.6930157E-009  0.2127816E+03  0.7561462E-02  0.1045836E+00
         22   -1    0    0    0    0  0.00000000000E+00  0.00000000000E+00  0.56287308412E+03  0.56287308412E+03  0.00000000000E+00 0.  1.
         22   -1    0    0    0    0 -0.00000000000E+00 -0.00000000000E+00 -0.10799613080E+04  0.10799613080E+04  0.00000000000E+00 0. -1.
         24    2    1    2    0    0  0.17465336769E+03 -0.38945679639E+01 -0.10124888555E+04  0.10306730323E+04  0.81450908785E+02 0.  0.
         25    2    1    2    0    0 -0.12650865557E+03  0.36974045025E+02  0.10705559784E+03  0.21089170789E+03  0.12507154548E+03 0.  0.
        -24    2    1    2    0    0 -0.48144712129E+02 -0.33079477061E+02  0.38834503370E+03  0.40126965199E+03  0.82421497789E+02 0.  0.
        -11    1    3    3    0    0  0.11326442401E+03  0.36371584018E+02 -0.59443959887E+03  0.60622616124E+03  0.00000000000E+00 0.  1.
         12    1    3    3    0    0  0.61388943686E+02 -0.40266151982E+02 -0.41804925659E+03  0.42444687104E+03  0.00000000000E+00 0. -1.
         11    1    5    5    0    0  0.19061174596E+02 -0.11768593714E+02  0.39854939917E+02  0.45719190836E+02  0.00000000000E+00 0. -1.
        -12    1    5    5    0    0 -0.67205886724E+02 -0.21310883347E+02  0.34849009379E+03  0.35555046115E+03  0.00000000000E+00 0.  1.
          5    1    4    4  501    0 -0.11784984875E+03 -0.21722487400E+02  0.55290626161E+02  0.13204158077E+03  0.41800000000E+01 0.  1.
         -5    1    4    4    0  501 -0.86588068128E+01  0.58696532425E+02  0.51764971680E+02  0.78850127122E+02  0.41800000000E+01 0.  1.
</event>
<event>
11    1  0.6930157E-009  0.1685141E+03  0.7561462E-02  0.1079332E+00
         22   -1    0    0    0    0  0.00000000000E+00  0.00000000000E+00  0.13176408637E+04  0.13176408637E+04  0.00000000000E+00 0. -1.
         22   -1    0    0    0    0 -0.00000000000E+00 -0.00000000000E+00 -0.68906296562E+03  0.68906296562E+03  0.00000000000E+00 0. -1.
         24    2    1    2    0    0 -0.15624857246E+02  0.34924504917E+02 -0.34590890418E+03  0.35754385403E+03  0.81980365688E+02 0.  0.
         25    2    1    2    0    0  0.29398517943E+02 -0.14658356296E+03 -0.30511791406E+03  0.36207186014E+03  0.12509227251E+03 0.  0.
        -24    2    1    2    0    0 -0.13773660696E+02  0.11165905804E+03  0.12796047163E+04  0.12870881151E+04  0.80932855634E+02 0.  0.
        -13    1    3    3    0    0 -0.35364337361E+02  0.43323212010E+02 -0.14367477883E+03  0.15417515730E+03  0.00000000000E+00 0.  1.
         14    1    3    3    0    0  0.19739480114E+02 -0.83987070931E+01 -0.20223412535E+03  0.20336869673E+03  0.00000000000E+00 0. -1.
         11    1    5    5    0    0 -0.42502215219E+01  0.38965971127E+02  0.87614638720E+03  0.87702274947E+03  0.00000000000E+00 0. -1.
        -12    1    5    5    0    0 -0.95234391745E+01  0.72693086916E+02  0.40345832907E+03  0.41006536562E+03  0.00000000000E+00 0.  1.
          5    1    4    4  501    0  0.32980640933E+02  0.12589789229E+02 -0.60627287834E+02  0.70280622502E+02  0.41800000000E+01 0.  1.
         -5    1    4    4    0  501 -0.35821229909E+01 -0.15917335219E+03 -0.24449062623E+03  0.29179123764E+03  0.41800000000E+01 0.  1.
</event>
<event>
11    1  0.6930157E-009  0.1823267E+03  0.7561462E-02  0.1067776E+00
         22   -1    0    0    0    0  0.00000000000E+00  0.00000000000E+00  0.60578628372E+03  0.60578628372E+03  0.00000000000E+00 0. -1.
         22   -1    0    0    0    0 -0.00000000000E+00 -0.00000000000E+00 -0.31052623761E+03  0.31052623761E+03  0.00000000000E+00 0.  1.
        -24    2    1    2    0    0  0.61734801175E+01  0.13424065670E+03 -0.25788329049E+03  0.29760983011E+03  0.63317878177E+02 0.  0.
         25    2    1    2    0    0 -0.59227374341E+02 -0.10149329253E+03  0.29584166913E+03  0.34202211759E+03  0.12509222768E+03 0.  0.
         24    2    1    2    0    0  0.53053894223E+02 -0.32747364171E+02  0.25730166746E+03  0.27668057363E+03  0.80379637909E+02 0.  0.
        -13    1    5    5    0    0 -0.15451769973E+02 -0.28953408588E+02  0.73646920586E+02  0.80628319938E+02  0.00000000000E+00 0.  1.
         14    1    5    5    0    0  0.68505664196E+02 -0.37939555836E+01  0.18365474688E+03  0.19605225369E+03  0.00000000000E+00 0. -1.
         13    1    3    3    0    0 -0.18348160264E+01  0.48883586245E+02 -0.39084816358E+02  0.62614650232E+02  0.00000000000E+00 0. -1.
        -14    1    3    3    0    0  0.80082961439E+01  0.85357070459E+02 -0.21879847413E+03  0.23499517988E+03  0.00000000000E+00 0.  1.
          5    1    4    4  501    0 -0.58730642493E+01  0.61448915583E+01  0.16139348640E+03  0.16167121706E+03  0.41800000000E+01 0. -1.
         -5    1    4    4    0  501 -0.53354310091E+02 -0.10763818409E+03  0.13444818274E+03  0.18035090053E+03  0.41800000000E+01 0. -1.
</event>
<event>
11    1  0.6930157E-009  0.1419317E+03  0.7561462E-02  0.1105420E+00
         22   -1    0    0    0    0  0.00000000000E+00  0.00000000000E+00  0.12615229560E+04  0.12615229560E+04  0.00000000000E+00 0.  1.
         22   -1    0    0    0    0 -0.00000000000E+00 -0.00000000000E+00 -0.10627771565E+04  0.10627771565E+04  0.00000000000E+00 0.  1.
         24    2    1    2    0    0  0.37762494783E+02 -0.17215588890E+02 -0.10344361990E+04  0.10384419691E+04  0.81123923304E+02 0.  0.
         25    2    1    2    0    0 -0.34646194299E+01  0.75183907942E+02  0.19869546768E+03  0.24656109697E+03  0.12509141482E+03 0.  0.
        -24    2    1    2    0    0 -0.34297875353E+02 -0.57968319052E+02  0.10344865308E+04  0.10392970465E+04  0.73751597736E+02 0.  0.
        -13    1    3    3    0    0  0.22237302875E+02  0.13637361810E+02 -0.87126158482E+03  0.87165200881E+03  0.00000000000E+00 0.  1.
         14    1    3    3    0    0  0.15525191908E+02 -0.30852950699E+02 -0.16317461416E+03  0.16678996030E+03  0.00000000000E+00 0. -1.
         13    1    5    5    0    0 -0.18078074596E+02 -0.12894507800E+02  0.66173666543E+02  0.69799994672E+02  0.00000000000E+00 0. -1.
        -14    1    5    5    0    0 -0.16219800757E+02 -0.45073811252E+02  0.96831286425E+03  0.96949705181E+03  0.00000000000E+00 0.  1.
          5    1    4    4  501    0  0.48748084365E+02  0.21380162229E+02  0.28471843481E+02  0.60511200099E+02  0.41800000000E+01 0.  1.
         -5    1    4    4    0  501 -0.52212703795E+02  0.53803745713E+02  0.17022362420E+03  0.18604989687E+03  0.41800000000E+01 0.  1.
</event>
<event>
11    1  0.6930157E-009  0.1745542E+03  0.7561462E-02  0.1074135E+00
         22   -1    0    0    0    0  0.00000000000E+00  0.00000000000E+00  0.33507679113E+03  0.33507679113E+03  0.00000000000E+00 0. -1.
         22   -1    0    0    0    0 -0.00000000000E+00 -0.00000000000E+00 -0.54178593380E+03  0.54178593380E+03  0.00000000000E+00 0.  1.
         24    2    1    2    0    0  0.31432769302E+02  0.32618492490E+01 -0.41164314412E+03  0.42052089501E+03  0.79931760848E+02 0.  0.
         25    2    1    2    0    0 -0.13550682987E+03 -0.56242189150E+02 -0.15814115347E+02  0.19345152144E+03  0.12509244630E+03 0.  0.
        -24    2    1    2    0    0  0.10407406056E+03  0.52980339901E+02  0.22074811679E+03  0.26289030849E+03  0.82117335157E+02 0.  0.
        -11    1    3    3    0    0  0.50165526292E+02  0.19861476876E+02 -0.19137393618E+03  0.19883420666E+03  0.00000000000E+00 0.  1.
         12    1    3    3    0    0 -0.18732756990E+02 -0.16599627627E+02 -0.22026920794E+03  0.22168668834E+03  0.00000000000E+00 0. -1.
         13    1    5    5    0    0  0.92613194309E+02  0.71555743326E+02  0.20471267423E+03  0.23580650363E+03  0.00000000000E+00 0. -1.
        -14    1    5    5    0    0  0.11460866254E+02 -0.18575403425E+02  0.16035442561E+02  0.27083804862E+02  0.00000000000E+00 0.  1.
          5    1    4    4  501    0 -0.16042404511E+02 -0.69476001735E+02 -0.15940341568E+02  0.73183607788E+02  0.41800000000E+01 0.  1.
         -5    1    4    4    0  501 -0.11946442536E+03  0.13233812585E+02  0.12622622090E+00  0.12026791365E+03  0.41800000000E+01 0.  1.
</event>
<event>
11    1  0.6930157E-009  0.1442780E+03  0.7561462E-02  0.1102873E+00
         22   -1    0    0    0    0  0.00000000000E+00  0.00000000000E+00  0.16112261939E+04  0.16112261939E+04  0.00000000000E+00 0.  1.
         22   -1    0    0    0    0 -0.00000000000E+00 -0.00000000000E+00 -0.26062667338E+03  0.26062667338E+03  0.00000000000E+00 0.  1.
        -24    2    1    2    0    0  0.71306170366E+00 -0.24096951024E+02 -0.22880136165E+03  0.24331472329E+03  0.79188509071E+02 0.  0.
         25    2    1    2    0    0  0.48704468063E+02 -0.30315952887E+02  0.18896012781E+03  0.23375966634E+03  0.12508584851E+03 0.  0.
         24    2    1    2    0    0 -0.49417529766E+02  0.54412903911E+02  0.13904407544E+04  0.13947784777E+04  0.81723032029E+02 0.  0.
        -13    1    5    5    0    0 -0.21019992943E+02  0.72964786817E+02  0.93891959530E+03  0.94198498218E+03  0.00000000000E+00 0.  1.
         14    1    5    5    0    0 -0.28397536823E+02 -0.18551882906E+02  0.45152115906E+03  0.45279349547E+03  0.00000000000E+00 0. -1.
         11    1    3    3    0    0  0.12721577029E+02  0.25032716331E+01 -0.31231763534E+00  0.12969288079E+02  0.00000000000E+00 0. -1.
        -12    1    3    3    0    0 -0.12008515325E+02 -0.26600222657E+02 -0.22848904402E+03  0.23034543521E+03  0.00000000000E+00 0.  1.
          5    1    4    4  501    0 -0.27363305150E+02 -0.49210599477E+02  0.57065784033E+02  0.80277080645E+02  0.41800000000E+01 0.  1.
         -5    1    4    4    0  501  0.76067773213E+02  0.18894646590E+02  0.13189434378E+03  0.15348258569E+03  0.41800000000E+01 0.  1.
</event>
<event>
11    1  0.6930157E-009  0.1622232E+03  0.7561462E-02  0.1085005E+00
         22   -1    0    0    0    0  0.00000000000E+00  0.00000000000E+00  0.47604882751E+03  0.47604882751E+03  0.00000000000E+00 0.  1.
         22   -1    0    0    0    0 -0.00000000000E+00 -0.00000000000E+00 -0.40988585201E+03  0.40988585201E+03  0.00000000000E+00 0.  1.
        -24    2    1    2    0    0  0.61285024807E+02 -0.82999880805E+02 -0.35725845428E+03  0.38042014387E+03  0.80256141402E+02 0.  0.
         25    2    1    2    0    0 -0.10616942441E+03  0.52243388154E+02  0.21362538877E+03  0.27438046664E+03  0.12509002943E+03 0.  0.
         24    2    1    2    0    0  0.44884399599E+02  0.30756492651E+02  0.20979604100E+03  0.23113406900E+03  0.80299488579E+02 0.  0.
        -13    1    5    5    0    0  0.76204586276E+01 -0.13664969825E+02  0.13783667941E+03  0.13872185474E+03  0.00000000000E+00 0.  1.
         14    1    5    5    0    0  0.37263940971E+02  0.44421462476E+02  0.71959361592E+02  0.92412214268E+02  0.00000000000E+00 0. -1.
         13    1    3    3    0    0  0.42825647396E+02 -0.54371076353E+02 -0.10427729422E+03  0.12515591919E+03  0.00000000000E+00 0. -1.
        -14    1    3    3    0    0  0.18459377411E+02 -0.28628804452E+02 -0.25298116006E+03  0.25526422468E+03  0.00000000000E+00 0.  1.
          5    1    4    4  501    0 -0.40137908830E+02  0.11606179307E+02  0.18797300021E+03  0.19260601323E+03  0.41800000000E+01 0. -1.
         -5    1    4    4    0  501 -0.66031515576E+02  0.40637208847E+02  0.25652388559E+02  0.81774453412E+02  0.41800000000E+01 0. -1.
</event>
<event>
11    1  0.6930157E-009  0.1359564E+03  0.7561462E-02  0.1112160E+00
         22   -1    0    0    0    0  0.00000000000E+00  0.00000000000E+00  0.22988183147E+03  0.22988183147E+03  0.00000000000E+00 0. -1.
         22   -1    0    0    0    0 -0.00000000000E+00 -0.00000000000E+00 -0.15081352994E+04  0.15081352994E+04  0.00000000000E+00 0. -1.
         24    2    1    2    0    0  0.52402843063E+02 -0.29856795956E+02 -0.13281922230E+04  0.13319735799E+04  0.80134575755E+02 0.  0.
         25    2    1    2    0    0  0.11362136670E+01  0.40962656679E+01 -0.13539140964E+03  0.18437640398E+03  0.12508298912E+03 0.  0.
        -24    2    1    2    0    0 -0.53539056730E+02  0.25760530288E+02  0.18533016466E+03  0.22166714699E+03  0.10610852276E+03 0.  0.
        -11    1    3    3    0    0 -0.58535759845E+01  0.20902448484E+02 -0.39071521675E+03  0.39131771913E+03  0.00000000000E+00 0.  1.
         12    1    3    3    0    0  0.58256419048E+02 -0.50759244440E+02 -0.93747700622E+03  0.94065586079E+03  0.00000000000E+00 0. -1.
         13    1    5    5    0    0 -0.77880006201E+02  0.20992175544E+02  0.17859611758E+03  0.19596566030E+03  0.00000000000E+00 0. -1.
        -14    1    5    5    0    0  0.24340949471E+02  0.47683547445E+01  0.67340470829E+01  0.25701486693E+02  0.00000000000E+00 0.  1.
          5    1    4    4  501    0  0.26325276878E+02  0.52584939596E+02 -0.10815753898E+03  0.12318166143E+03  0.41800000000E+01 0. -1.
         -5    1    4    4    0  501 -0.25189063211E+02 -0.48488673928E+02 -0.27233870663E+02  0.61194742552E+02  0.41800000000E+01 0. -1.
</event>
<event>
11    1  0.6930157E-009  0.1337107E+03  0.7561462E-02  0.1114792E+00
         22   -1    0    0    0    0  0.00000000000E+00  0.00000000000E+00  0.11640779303E+04  0.11640779303E+04  0.00000000000E+00 0.  1.
         22   -1    0    0    0    0 -0.00000000000E+00 -0.00000000000E+00 -0.65512260161E+03  0.65512260161E+03  0.00000000000E+00 0. -1.
         24    2    1    2    0    0  0.41675582230E+01 -0.26811353726E+02 -0.46766254337E+03  0.47546517039E+03  0.81379706062E+02 0.  0.
         25    2    1    2    0    0  0.42436278045E+02  0.34489947808E+02 -0.15597359245E+03  0.20728122556E+03  0.12508937099E+03 0.  0.
        -24    2    1    2    0    0 -0.46603836268E+02 -0.76785940819E+01  0.11325914645E+04  0.11364541359E+04  0.80831301393E+02 0.  0.
        -11    1    3    3    0    0 -0.31184236530E+02 -0.29957515649E+02 -0.15922831440E+03  0.16499565285E+03  0.00000000000E+00 0.  1.
         12    1    3    3    0    0  0.35351794753E+02  0.31461619229E+01 -0.30843422896E+03  0.31046951754E+03  0.00000000000E+00 0. -1.
         11    1    5    5    0    0 -0.52696317696E+01  0.21803968217E+02  0.94655792147E+02  0.97277443613E+02  0.00000000000E+00 0. -1.
        -12    1    5    5    0    0 -0.41334204499E+02 -0.29482562299E+02  0.10379356723E+04  0.10391766923E+04  0.00000000000E+00 0.  1.
          5    1    4    4  501    0  0.18520564316E+02  0.40677735225E+02 -0.17185245954E+03  0.17761877630E+03  0.41800000000E+01 0.  1.
         -5    1    4    4    0  501  0.23915713730E+02 -0.61877874172E+01  0.15878867087E+02  0.29662449263E+02  0.41800000000E+01 0.  1.
</event>
<event>
11    1  0.6930157E-009  0.1667626E+03  0.7561462E-02  0.1080884E+00
         22   -1    0    0    0    0  0.00000000000E+00  0.00000000000E+00  0.69781025959E+03  0.69781025959E+03  0.00000000000E+00 0.  1.
         22   -1    0    0    0    0 -0.00000000000E+00 -0.00000000000E+00 -0.91837644723E+03  0.91837644723E+03  0.00000000000E+00 0. -1.
         24    2    1    2    0    0  0.73123030283E+02  0.84574241325E+02 -0.87328960730E+03  0.88434965033E+03  0.83305377856E+02 0.  0.
         25    2    1    2    0    0 -0.46509042843E+02 -0.52908975541E+02  0.10968850836E+03  0.18066838745E+03  0.12508815531E+03 0.  0.
        -24    2    1    2    0    0 -0.26613987440E+02 -0.31665265784E+02  0.54303491129E+03  0.55116866902E+03  0.84787932188E+02 0.  0.
        -11    1    3    3    0    0  0.76557261910E+01  0.19827890648E+02 -0.34501643039E+02  0.40523064586E+02  0.00000000000E+00 0.  1.
         12    1    3    3    0    0  0.65467304092E+02  0.64746350677E+02 -0.83878796426E+03  0.84382658575E+03  0.00000000000E+00 0. -1.
         11    1    5    5    0    0 -0.48623970990E+02 -0.26273231169E+02  0.20329200055E+03  0.21067085873E+03  0.00000000000E+00 0. -1.
        -12    1    5    5    0    0  0.22009983550E+02 -0.53920346153E+01  0.33974291074E+03  0.34049781029E+03  0.00000000000E+00 0.  1.
          5    1    4    4  501    0 -0.45183399157E+02 -0.56488053868E+02  0.13581603640E+03  0.15393475219E+03  0.41800000000E+01 0.  1.
         -5    1    4    4    0  501 -0.13256436867E+01  0.35790783275E+01 -0.26127528037E+02  0.26733635260E+02  0.41800000000E+01 0.  1.
</event>
<event>
11    1  0.6930157E-009  0.2330935E+03  0.7561462E-02  0.1033312E+00
         22   -1    0    0    0    0  0.00000000000E+00  0.00000000000E+00  0.71353556189E+03  0.71353556189E+03  0.00000000000E+00 0.  1.
         22   -1    0    0    0    0 -0.00000000000E+00 -0.00000000000E+00 -0.27582694429E+03  0.27582694429E+03  0.00000000000E+00 0. -1.
         24    2    1    2    0    0 -0.44908470238E+02  0.17922237227E+02 -0.14257329614E+03  0.16959142290E+03  0.78077709121E+02 0.  0.
         25    2    1    2    0    0  0.70908177080E+02  0.17889910914E+03  0.32778280934E+02  0.23185157690E+03  0.12509147527E+03 0.  0.
        -24    2    1    2    0    0 -0.25999706842E+02 -0.19682134636E+03  0.54750363281E+03  0.58791950637E+03  0.80464221194E+02 0.  0.
        -13    1    3    3    0    0 -0.22400345518E+02 -0.96382618556E+01 -0.18690502279E+01  0.24457410322E+02  0.00000000000E+00 0.  1.
         14    1    3    3    0    0 -0.22508124720E+02  0.27560499083E+02 -0.14070424592E+03  0.14513401258E+03  0.00000000000E+00 0. -1.
         13    1    5    5    0    0  0.26920309157E+02 -0.10274649685E+03  0.27878339210E+03  0.29833156952E+03  0.00000000000E+00 0. -1.
        -14    1    5    5    0    0 -0.52920015999E+02 -0.94074849515E+02  0.26872024071E+03  0.28958793686E+03  0.00000000000E+00 0.  1.
          5    1    4    4  501    0  0.72533840035E+01  0.60383066167E+02  0.69392880327E+02  0.92366500959E+02  0.41800000000E+01 0.  1.
         -5    1    4    4    0  501  0.63654793077E+02  0.11851604297E+03 -0.36614599394E+02  0.13948507595E+03  0.41800000000E+01 0.  1.
</event>
<event>
11    1  0.6930157E-009  0.1423035E+03  0.7561462E-02  0.1105013E+00
         22   -1    0    0    0    0  0.00000000000E+00  0.00000000000E+00  0.99033041975E+02  0.99033041975E+02  0.00000000000E+00 0.  1.
         22   -1    0    0    0    0 -0.00000000000E+00 -0.00000000000E+00 -0.18079655620E+04  0.18079655620E+04  0.00000000000E+00 0. -1.
         24    2    1    2    0    0  0.20149920672E+02  0.41998141285E+02 -0.94735077673E+03  0.95187810080E+03  0.80178310274E+02 0.  0.
         25    2    1    2    0    0 -0.69138714382E+02 -0.86704925105E+02 -0.81982621615E+03  0.83669654354E+03  0.12509266732E+03 0.  0.
        -24    2    1    2    0    0  0.48988793710E+02  0.44706783820E+02  0.58244472809E+02  0.11842395968E+03  0.78950726312E+02 0.  0.
        -11    1    3    3    0    0  0.14777077611E+01  0.60841697308E+02 -0.49108100906E+03  0.49483780495E+03  0.00000000000E+00 0.  1.
         12    1    3    3    0    0  0.18672212911E+02 -0.18843556024E+02 -0.45626976767E+03  0.45704029585E+03  0.00000000000E+00 0. -1.
         13    1    5    5    0    0 -0.10918095943E+02  0.17100145893E+02  0.47422658437E+02  0.51580309633E+02  0.00000000000E+00 0. -1.
        -14    1    5    5    0    0  0.59906889654E+02  0.27606637927E+02  0.10821814372E+02  0.66843650050E+02  0.00000000000E+00 0.  1.
          5    1    4    4  501    0 -0.15041841821E+02 -0.92511149903E+02 -0.30806416299E+03  0.32203349326E+03  0.41800000000E+01 0. -1.
         -5    1    4    4    0  501 -0.54096872562E+02  0.58062247977E+01 -0.51176205316E+03  0.51466305028E+03  0.41800000000E+01 0. -1.
</event>
<event>
11    1  0.6930157E-009  0.2154480E+03  0.7561462E-02  0.1044107E+00
         22   -1    0    0    0    0  0.00000000000E+00  0.00000000000E+00  0.52325874769E+02  0.52325874769E+02  0.00000000000E+00 0.  1.
         22   -1    0    0    0    0 -0.00000000000E+00 -0.00000000000E+00 -0.22650611854E+04  0.22650611854E+04  0.00000000000E+00 0. -1.
         24    2    1    2    0    0  0.19050387082E+02  0.49166212324E+02 -0.10506588009E+04  0.10550938933E+04  0.80987493743E+02 0.  0.
         25    2    1    2    0    0  0.95033095041E+02  0.97308707221E+02 -0.95668574138E+03  0.97436949319E+03  0.12509207741E+03 0.  0.
        -24    2    1    2    0    0 -0.11408348212E+03 -0.14647491954E+03 -0.20539076836E+03  0.28792367366E+03  0.79023611548E+02 0.  0.
        -13    1    3    3    0    0  0.49777367196E+02  0.18366350376E+02 -0.59801188759E+03  0.60036099708E+03  0.00000000000E+00 0.  1.
         14    1    3    3    0    0 -0.30726980113E+02  0.30799861948E+02 -0.45264691333E+03  0.45473289627E+03  0.00000000000E+00 0. -1.
         13    1    5    5    0    0 -0.26572816326E+02 -0.54480371194E+02 -0.21209642969E+02  0.64218956452E+02  0.00000000000E+00 0. -1.
        -14    1    5    5    0    0 -0.87510665797E+02 -0.91994548351E+02 -0.18418112539E+03  0.22370471721E+03  0.00000000000E+00 0.  1.
          5    1    4    4  501    0  0.48747144487E+02 -0.17227307844E+02 -0.16125422336E+03  0.16939144365E+03  0.41800000000E+01 0. -1.
         -5    1    4    4    0  501  0.46285950554E+02  0.11453601507E+03 -0.79543151802E+03  0.80497804953E+03  0.41800000000E+01 0. -1.
</event>
<event>
11    1  0.6930157E-009  0.1388068E+03  0.7561462E-02  0.1108898E+00
         22   -1    0    0    0    0  0.00000000000E+00  0.00000000000E+00  0.45148310630E+03  0.45148310630E+03  0.00000000000E+00 0.  1.
         22   -1    0    0    0    0 -0.00000000000E+00 -0.00000000000E+00 -0.19585816527E+04  0.19585816527E+04  0.00000000000E+00 0.  1.
        -24    2    1    2    0    0 -0.45847191628E+02 -0.39429745463E+02 -0.19220902228E+04  0.19247721869E+04  0.81611744711E+02 0.  0.
         25    2    1    2    0    0 -0.21305469237E+01  0.40003640904E+02  0.12943996296E+03  0.18440968529E+03  0.12508955793E+03 0.  0.
         24    2    1    2    0    0  0.47977738551E+02 -0.57389544054E+00  0.28555171347E+03  0.30088288682E+03  0.81783480996E+02 0.  0.
        -13    1    5    5    0    0 -0.74498361204E+00 -0.48507433717E+01  0.21488574264E+03  0.21494177607E+03  0.00000000000E+00 0.  1.
         14    1    5    5    0    0  0.48722722163E+02  0.42768479312E+01  0.70665970832E+02  0.85941110749E+02  0.00000000000E+00 0. -1.
         13    1    3    3    0    0  0.78284281190E+01  0.57008789309E+01 -0.33275286397E+02  0.34655865192E+02  0.00000000000E+00 0. -1.
        -14    1    3    3    0    0 -0.53675619747E+02 -0.45130624394E+02 -0.18888149364E+04  0.18901163217E+04  0.00000000000E+00 0.  1.
          5    1    4    4  501    0 -0.25187433174E+02 -0.39415114911E+02  0.33545475383E+02  0.57712471720E+02  0.41800000000E+01 0. -1.
         -5    1    4    4    0  501  0.23056886250E+02  0.79418755815E+02  0.95894487581E+02  0.12669721357E+03  0.41800000000E+01 0. -1.
</event>
<event>
11    1  0.6930157E-009  0.1439681E+03  0.7561462E-02  0.1103207E+00
         22   -1    0    0    0    0  0.00000000000E+00  0.00000000000E+00  0.13467058090E+04  0.13467058090E+04  0.00000000000E+00 0. -1.
         22   -1    0    0    0    0 -0.00000000000E+00 -0.00000000000E+00 -0.19857208234E+03  0.19857208234E+03  0.00000000000E+00 0.  1.
        -24    2    1    2    0    0  0.90155374082E+01  0.15540457395E+02 -0.95251725425E+02  0.12584578000E+03  0.80258852569E+02 0.  0.
         25    2    1    2    0    0 -0.69474191285E+02  0.22215201760E+02 -0.25121407874E+02  0.14696613514E+03  0.12509109201E+03 0.  0.
         24    2    1    2    0    0  0.60458653877E+02 -0.37755659154E+02  0.12685068599E+04  0.12724659762E+04  0.70563929883E+02 0.  0.
        -13    1    5    5    0    0  0.27536770091E+01 -0.20475275274E+02  0.86797184209E+02  0.89222031030E+02  0.00000000000E+00 0.  1.
         14    1    5    5    0    0  0.57704976868E+02 -0.17280383880E+02  0.11817096757E+04  0.11832439451E+04  0.00000000000E+00 0. -1.
         13    1    3    3    0    0 -0.81848808282E+01 -0.15429553857E+02  0.60846832759E+01  0.18495588041E+02  0.00000000000E+00 0. -1.
        -14    1    3    3    0    0  0.17200418236E+02  0.30970011252E+02 -0.10133640870E+03  0.10735019196E+03  0.00000000000E+00 0.  1.
          5    1    4    4  501    0 -0.16142428252E+02  0.59758926710E+02  0.22613723665E+02  0.66034538004E+02  0.41800000000E+01 0.  1.
         -5    1    4    4    0  501 -0.53331763033E+02 -0.37543724951E+02 -0.47735131540E+02  0.80931597133E+02  0.41800000000E+01 0.  1.
</event>
<event>
11    1  0.6930157E-009  0.2926316E+03  0.7561462E-02  0.1003359E+00
         22   -1    0    0    0    0  0.00000000000E+00  0.00000000000E+00  0.66757104968E+03  0.66757104968E+03  0.00000000000E+00 0. -1.
         22   -1    0    0    0    0 -0.00000000000E+00 -0.00000000000E+00 -0.12243619732E+04  0.12243619732E+04  0.00000000000E+00 0.  1.
        -24    2    1    2    0    0  0.24010861576E+02 -0.26409666755E+03 -0.11441260283E+04  0.11771699727E+04  0.79882443836E+02 0.  0.
         25    2    1    2    0    0  0.25982880085E+02  0.25370536347E+03  0.30818120447E+03  0.41912382008E+03  0.12509036838E+03 0.  0.
         24    2    1    2    0    0 -0.49993741662E+02  0.10391304081E+02  0.27915390022E+03  0.29563923013E+03  0.82875213291E+02 0.  0.
        -13    1    5    5    0    0 -0.41283092448E+02  0.14837951384E+02  0.50982222394E+02  0.67258051738E+02  0.00000000000E+00 0.  1.
         14    1    5    5    0    0 -0.87106492135E+01 -0.44466473027E+01  0.22817167783E+03  0.22838117839E+03  0.00000000000E+00 0. -1.
         11    1    3    3    0    0  0.55305796331E+00 -0.79999128380E+02 -0.20862215520E+03  0.22343538228E+03  0.00000000000E+00 0. -1.
        -12    1    3    3    0    0  0.23457803613E+02 -0.18409753917E+03 -0.93550387306E+03  0.95373459043E+03  0.00000000000E+00 0.  1.
          5    1    4    4  501    0  0.26934742472E+02  0.54690162794E+00  0.53245659934E+02  0.59819329278E+02  0.41800000000E+01 0. -1.
         -5    1    4    4    0  501 -0.95186238705E+00  0.25315846184E+03  0.25493554454E+03  0.35930449081E+03  0.41800000000E+01 0. -1.
</event>
<event>
11    1  0.6930157E-009  0.2320759E+03  0.7561462E-02  0.1033906E+00
         22   -1    0    0    0    0  0.00000000000E+00  0.00000000000E+00  0.55541845955E+03  0.55541845955E+03  0.00000000000E+00 0.  1.
         22   -1    0    0    0    0 -0.00000000000E+00 -0.00000000000E+00 -0.19883362381E+04  0.19883362381E+04  0.00000000000E+00 0. -1.
         24    2    1    2    0    0 -0.85906180334E+02 -0.19042775699E+03 -0.16090322004E+04  0.16244848751E+04  0.79522856921E+02 0.  0.
         25    2    1    2    0    0 -0.22792486748E+02  0.16356521642E+03 -0.33133726037E+03  0.39077463729E+03  0.12508940628E+03 0.  0.
        -24    2    1    2    0    0  0.10869866708E+03  0.26862540566E+02  0.50745168227E+03  0.52849518530E+03  0.96244245231E+02 0.  0.
        -13    1    3    3    0    0 -0.89225082802E+02 -0.13909372675E+03 -0.10300027739E+04  0.10431749108E+04  0.00000000000E+00 0.  1.
         14    1    3    3    0    0  0.33189024675E+01 -0.51334030242E+02 -0.57902942651E+03  0.58130996425E+03  0.00000000000E+00 0. -1.
         13    1    5    5    0    0  0.11478704587E+02 -0.26017898454E+02  0.47028631343E+02  0.54958019114E+02  0.00000000000E+00 0. -1.
        -14    1    5    5    0    0  0.97219962495E+02  0.52880439020E+02  0.46042305093E+03  0.47353716619E+03  0.00000000000E+00 0.  1.
          5    1    4    4  501    0  0.48210995047E+01 -0.14534922509E+02 -0.79459089001E+02  0.81029168808E+02  0.41800000000E+01 0. -1.
         -5    1    4    4    0  501 -0.27613586253E+02  0.17810013893E+03 -0.25187817137E+03  0.30974546849E+03  0.41800000000E+01 0. -1.
</event>
<event>
11    1  0.6930157E-009  0.1596833E+03  0.7561462E-02  0.1087376E+00
         22   -1    0    0    0    0  0.00000000000E+00  0.00000000000E+00  0.30910331656E+03  0.30910331656E+03  0.00000000000E+00 0.  1.
         22   -1    0    0    0    0 -0.00000000000E+00 -0.00000000000E+00 -0.53013528936E+03  0.53013528936E+03  0.00000000000E+00 0.  1.
         24    2    1    2    0    0  0.54303225289E+02 -0.62726886526E+02 -0.43288567228E+03  0.44650473613E+03  0.71365058338E+02 0.  0.
         25    2    1    2    0    0  0.43903278369E+02 -0.31602155567E+01 -0.49164426896E+01  0.13269960062E+03  0.12509007867E+03 0.  0.
        -24    2    1    2    0    0 -0.98206503658E+02  0.65887102083E+02  0.21677014216E+03  0.26003426917E+03  0.81503981658E+02 0.  0.
        -13    1    3    3    0    0  0.60299504816E+01 -0.60232691505E+02 -0.26296744564E+03  0.26984479779E+03  0.00000000000E+00 0.  1.
         14    1    3    3    0    0  0.48273274807E+02 -0.24941950213E+01 -0.16991822664E+03  0.17665993834E+03  0.00000000000E+00 0. -1.
         11    1    5    5    0    0  0.97587837171E+01 -0.13835637583E+00  0.48574170895E+02  0.49544960190E+02  0.00000000000E+00 0. -1.
        -12    1    5    5    0    0 -0.10796528737E+03  0.66025458458E+02  0.16819597127E+03  0.21048930898E+03  0.00000000000E+00 0.  1.
          5    1    4    4  501    0 -0.28460993175E+02  0.36282265196E+02  0.13334442508E+02  0.48184132837E+02  0.41800000000E+01 0.  1.
         -5    1    4    4    0  501  0.72364271543E+02 -0.39442480753E+02 -0.18250885198E+02  0.84515467782E+02  0.41800000000E+01 0.  1.
</event>
<event>
11    1  0.6930157E-009  0.1308163E+03  0.7561462E-02  0.1118270E+00
         22   -1    0    0    0    0  0.00000000000E+00  0.00000000000E+00  0.27514137161E+04  0.27514137161E+04  0.00000000000E+00 0. -1.
         22   -1    0    0    0    0 -0.00000000000E+00 -0.00000000000E+00 -0.14539869230E+03  0.14539869230E+03  0.00000000000E+00 0. -1.
        -24    2    1    2    0    0 -0.33299971831E+02  0.18784056632E+02 -0.12672006628E+03  0.15523277868E+03  0.81101858610E+02 0.  0.
         25    2    1    2    0    0  0.44387470639E+02 -0.90387010733E+01  0.17463482904E+04  0.17514087051E+04  0.12509258698E+03 0.  0.
         24    2    1    2    0    0 -0.11087498807E+02 -0.97453555583E+01  0.98638679965E+03  0.99017092457E+03  0.85215237828E+02 0.  0.
        -13    1    5    5    0    0  0.14252121180E+02  0.32974203887E+02  0.34556923230E+03  0.34743131032E+03  0.00000000000E+00 0.  1.
         14    1    5    5    0    0 -0.25339619987E+02 -0.42719559445E+02  0.64081756735E+03  0.64273961424E+03  0.00000000000E+00 0. -1.
         11    1    3    3    0    0 -0.54813326223E+02 -0.22851469314E+01 -0.56125767254E+02  0.78484548658E+02  0.00000000000E+00 0. -1.
        -12    1    3    3    0    0  0.21513354392E+02  0.21069203563E+02 -0.70594299028E+02  0.76748230020E+02  0.00000000000E+00 0.  1.
          5    1    4    4  501    0  0.23874144440E+01  0.43766565129E+02  0.12122408748E+04  0.12130402396E+04  0.41800000000E+01 0. -1.
         -5    1    4    4    0  501  0.42000056195E+02 -0.52805266203E+02  0.53410741565E+03  0.53836846556E+03  0.41800000000E+01 0. -1.
</event>
<event>
11    1  0.6930157E-009  0.1354928E+03  0.7561462E-02  0.1112698E+00
         22   -1    0    0    0    0  0.00000000000E+00  0.00000000000E+00  0.14832532509E+04  0.14832532509E+04  0.00000000000E+00 0. -1.
         22   -1    0    0    0    0 -0.00000000000E+00 -0.00000000000E+00 -0.41539833480E+03  0.41539833480E+03  0.00000000000E+00 0. -1.
        -24    2    1    2    0    0  0.42588330883E+02  0.10039419921E+02 -0.31166176908E+03  0.32474077884E+03  0.80055975792E+02 0.  0.
         25    2    1    2    0    0  0.90731967971E+01  0.71111790059E+00 -0.54458604264E+02  0.13673976726E+03  0.12509674570E+03 0.  0.
         24    2    1    2    0    0 -0.51661527680E+02 -0.10750537821E+02  0.14339752894E+04  0.14371710396E+04  0.79943597719E+02 0.  0.
        -11    1    5    5    0    0 -0.29793629024E+02 -0.19562890609E+02  0.21250976208E+03  0.21547799423E+03  0.00000000000E+00 0.  1.
         12    1    5    5    0    0 -0.21867898656E+02  0.88123527878E+01  0.12214655273E+04  0.12216930453E+04  0.00000000000E+00 0. -1.
         11    1    3    3    0    0  0.54360974236E+02 -0.13222506705E+02 -0.26889819488E+03  0.27465649348E+03  0.00000000000E+00 0. -1.
        -12    1    3    3    0    0 -0.11772643353E+02  0.23261926626E+02 -0.42763574197E+02  0.50084285359E+02  0.00000000000E+00 0.  1.
          5    1    4    4  501    0  0.19136880935E+02 -0.22468538783E+02  0.33667466263E+02  0.44966944877E+02  0.41800000000E+01 0.  1.
         -5    1    4    4    0  501 -0.10063684138E+02  0.23179656684E+02 -0.88126070527E+02  0.91772822387E+02  0.41800000000E+01 0.  1.
</event>
<event>
11    1  0.6930157E-009  0.1703139E+03  0.7561462E-02  0.1077759E+00
         22   -1    0    0    0    0  0.00000000000E+00  0.00000000000E+00  0.17981801990E+04  0.17981801990E+04  0.00000000000E+00 0.  1.
         22   -1    0    0    0    0 -0.00000000000E+00 -0.00000000000E+00 -0.55403032780E+03  0.55403032780E+03  0.00000000000E+00 0. -1.
        -24    2    1    2    0    0 -0.11198774683E+03  0.26661699704E+02 -0.52893288195E+03  0.54717199762E+03  0.79844221428E+02 0.  0.
         25    2    1    2    0    0  0.15034062936E+03 -0.17050697776E+02  0.66513575053E+03  0.69350272632E+03  0.12508970241E+03 0.  0.
         24    2    1    2    0    0 -0.38352882536E+02 -0.96110019272E+01  0.11079470026E+04  0.11115358028E+04  0.80012283305E+02 0.  0.
        -13    1    5    5    0    0 -0.35343120374E+02 -0.34470351172E+02  0.38463015823E+03  0.38778563651E+03  0.00000000000E+00 0.  1.
         14    1    5    5    0    0 -0.30097621619E+01  0.24859349245E+02  0.72331684435E+03  0.72375016631E+03  0.00000000000E+00 0. -1.
         13    1    3    3    0    0 -0.12473813019E+03  0.23528111432E+02 -0.48254200409E+03  0.49895887492E+03  0.00000000000E+00 0. -1.
        -14    1    3    3    0    0  0.12750383362E+02  0.31335882719E+01 -0.46390877868E+02  0.48213122702E+02  0.00000000000E+00 0.  1.
          5    1    4    4  501    0  0.43536602898E+02  0.37939024310E+02  0.98486797772E+02  0.11424503093E+03  0.41800000000E+01 0.  1.
         -5    1    4    4    0  501  0.10680402647E+03 -0.54989722086E+02  0.56664895276E+03  0.57925769539E+03  0.41800000000E+01 0.  1.
</event>
<event>
11    1  0.6930157E-009  0.1291559E+03  0.7561462E-02  0.1120310E+00
         22   -1    0    0    0    0  0.00000000000E+00  0.00000000000E+00  0.40867083395E+02  0.40867083395E+02  0.00000000000E+00 0. -1.
         22   -1    0    0    0    0 -0.00000000000E+00 -0.00000000000E+00 -0.21794032895E+04  0.21794032895E+04  0.00000000000E+00 0. -1.
         24    2    1    2    0    0  0.13476673159E+02  0.29445350912E+02 -0.12989560936E+04  0.13018700272E+04  0.80808322951E+02 0.  0.
         25    2    1    2    0    0 -0.39584009830E+02 -0.12766016659E+02 -0.81993071202E+03  0.83046018611E+03  0.12509149928E+03 0.  0.
        -24    2    1    2    0    0  0.26107336671E+02 -0.16679334253E+02 -0.19649400480E+02  0.87940159633E+02  0.79922334288E+02 0.  0.
        -13    1    3    3    0    0  0.22778343002E+02  0.18193144523E+02 -0.14920403353E+03  0.15202528421E+03  0.00000000000E+00 0.  1.
         14    1    3    3    0    0 -0.93016698430E+01  0.11252206389E+02 -0.11497520601E+04  0.11498447430E+04  0.00000000000E+00 0. -1.
         13    1    5    5    0    0  0.27027951893E+02  0.17010887161E+02  0.18602808111E+02  0.36958692281E+02  0.00000000000E+00 0. -1.
        -14    1    5    5    0    0 -0.92061522207E+00 -0.33690221414E+02 -0.38252208591E+02  0.50981467352E+02  0.00000000000E+00 0.  1.
          5    1    4    4  501    0 -0.34448095673E+02 -0.67424895346E+02 -0.52287421458E+03  0.52834430487E+03  0.41800000000E+01 0.  1.
         -5    1    4    4    0  501 -0.51359141570E+01  0.54658878687E+02 -0.29705649743E+03  0.30211588125E+03  0.41800000000E+01 0.  1.
</event>
<event>
11    1  0.6930157E-009  0.1383965E+03  0.7561462E-02  0.1109362E+00
         22   -1    0    0    0    0  0.00000000000E+00  0.00000000000E+00  0.36666130385E+03  0.36666130385E+03  0.00000000000E+00 0. -1.
         22   -1    0    0    0    0 -0.00000000000E+00 -0.00000000000E+00 -0.76599038367E+03  0.76599038367E+03  0.00000000000E+00 0. -1.
         24    2    1    2    0    0  0.55598477306E+02  0.18729016665E+02 -0.71685324777E+03  0.72672559501E+03  0.10396896104E+03 0.  0.
         25    2    1    2    0    0 -0.85943426192E+02  0.94909344804E+01  0.14441792084E+03  0.20971506311E+03  0.12509005353E+03 0.  0.
        -24    2    1    2    0    0  0.30344948885E+02 -0.28219951146E+02  0.17310624710E+03  0.19621102941E+03  0.82557941532E+02 0.  0.
        -11    1    3    3    0    0  0.82600169256E+01 -0.14090819456E+02 -0.13989690103E+02  0.21505592336E+02  0.00000000000E+00 0.  1.
         12    1    3    3    0    0  0.47338460381E+02  0.32819836122E+02 -0.70286355766E+03  0.70522000267E+03  0.00000000000E+00 0. -1.
         13    1    5    5    0    0  0.23358970190E+02 -0.38753788038E+02  0.17723023866E+03  0.18291543147E+03  0.00000000000E+00 0. -1.
        -14    1    5    5    0    0  0.69859786951E+01  0.10533836892E+02 -0.41239915597E+01  0.13295597933E+02  0.00000000000E+00 0.  1.
          5    1    4    4  501    0 -0.20371518937E+02  0.42867640839E+02  0.12460247958E+03  0.13340121338E+03  0.41800000000E+01 0. -1.
         -5    1    4    4    0  501 -0.65571907254E+02 -0.33376706358E+02  0.19815441270E+02  0.76313849732E+02  0.41800000000E+01 0. -1.
</event>
<event>
11    1  0.6930157E-009  0.1447380E+03  0.7561462E-02  0.1102380E+00
         22   -1    0    0    0    0  0.00000000000E+00  0.00000000000E+00  0.11390873026E+04  0.11390873026E+04  0.00000000000E+00 0. -1.
         22   -1    0    0    0    0 -0.00000000000E+00 -0.00000000000E+00 -0.15272084902E+03  0.15272084902E+03  0.00000000000E+00 0. -1.
         24    2    1    2    0    0 -0.18118827167E+02 -0.68422663995E+02 -0.10734813692E+03  0.15269410821E+03  0.82352385120E+02 0.  0.
         25    2    1    2    0    0  0.49489026040E+02  0.93125288631E+02  0.31672041176E+03  0.35648424775E+03  0.12509083333E+03 0.  0.
        -24    2    1    2    0    0 -0.31370198873E+02 -0.24702624636E+02  0.77699417874E+03  0.78262979567E+03  0.84824137026E+02 0.  0.
        -11    1    3    3    0    0 -0.28595978654E+02  0.71205011221E+01 -0.15457629463E+02  0.33277166947E+02  0.00000000000E+00 0.  1.
         12    1    3    3    0    0  0.10477151487E+02 -0.75543165117E+02 -0.91890507456E+02  0.11941694126E+03  0.00000000000E+00 0. -1.
         11    1    5    5    0    0 -0.57294913493E+02  0.76643995443E+00  0.49368521149E+03  0.49699937886E+03  0.00000000000E+00 0. -1.
        -12    1    5    5    0    0  0.25924714620E+02 -0.25469064590E+02  0.28330896725E+03  0.28563041681E+03  0.00000000000E+00 0.  1.
          5    1    4    4  501    0  0.63225926300E+02  0.37253300101E+02  0.27664304695E+03  0.28624146092E+03  0.41800000000E+01 0. -1.
         -5    1    4    4    0  501 -0.13736900260E+02  0.55871988530E+02  0.40077364819E+02  0.70242786832E+02  0.41800000000E+01 0. -1.
</event>
<event>
11    1  0.6930157E-009  0.1545015E+03  0.7561462E-02  0.1092366E+00
         22   -1    0    0    0    0  0.00000000000E+00  0.00000000000E+00  0.12579160718E+04  0.12579160718E+04  0.00000000000E+00 0.  1.
         22   -1    0    0    0    0 -0.00000000000E+00 -0.00000000000E+00 -0.76256587779E+02  0.76256587779E+02  0.00000000000E+00 0.  1.
         24    2    1    2    0    0 -0.73998641989E+02  0.36789221117E+02  0.13494219557E+02  0.11567345843E+03  0.79806072556E+02 0.  0.
         25    2    1    2    0    0  0.12696685679E+03 -0.60551026961E+02  0.37995047914E+03  0.42402729068E+03  0.12509902898E+03 0.  0.
        -24    2    1    2    0    0 -0.52968214798E+02  0.23761805844E+02  0.78821478528E+03  0.79447191043E+03  0.80825822180E+02 0.  0.
        -13    1    3    3    0    0 -0.53302752644E+02 -0.13949216153E+02  0.23622712059E+02  0.59948282676E+02  0.00000000000E+00 0.  1.
         14    1    3    3    0    0 -0.20695889345E+02  0.50738437270E+02 -0.10128492502E+02  0.55725175753E+02  0.00000000000E+00 0. -1.
         11    1    5    5    0    0 -0.89354722146E+01  0.16029360892E+02  0.31636511542E+02  0.36573924275E+02  0.00000000000E+00 0. -1.
        -12    1    5    5    0    0 -0.44032742584E+02  0.77324449513E+01  0.75657827374E+03  0.75789798616E+03  0.00000000000E+00 0.  1.
          5    1    4    4  501    0  0.11589231605E+03 -0.94252777695E+02  0.27238305115E+03  0.31068410641E+03  0.41800000000E+01 0.  1.
         -5    1    4    4    0  501  0.11074540738E+02  0.33701750735E+02  0.10756742799E+03  0.11334318426E+03  0.41800000000E+01 0.  1.
</event>
<event>
11    1  0.6930157E-009  0.1428664E+03  0.7561462E-02  0.1104399E+00
         22   -1    0    0    0    0  0.00000000000E+00  0.00000000000E+00  0.86615634452E+03  0.86615634452E+03  0.00000000000E+00 0. -1.
         22   -1    0    0    0    0 -0.00000000000E+00 -0.00000000000E+00 -0.53955523952E+03  0.53955523952E+03  0.00000000000E+00 0. -1.
        -24    2    1    2    0    0  0.48880401607E+02  0.21252521899E+02 -0.49126562059E+03  0.50062572722E+03  0.80269828933E+02 0.  0.
         25    2    1    2    0    0 -0.31337314199E+02  0.48398675431E+02  0.79755027909E+02  0.15916346216E+03  0.12509070375E+03 0.  0.
         24    2    1    2    0    0 -0.17543087408E+02 -0.69651197330E+02  0.73811169769E+03  0.74592239466E+03  0.80201567225E+02 0.  0.
        -11    1    5    5    0    0  0.23472634679E+02 -0.99234714609E+01  0.83211953016E+02  0.87026829135E+02  0.00000000000E+00 0.  1.
         12    1    5    5    0    0 -0.41015722087E+02 -0.59727725869E+02  0.65489974467E+03  0.65889556552E+03  0.00000000000E+00 0. -1.
         13    1    3    3    0    0  0.40201707032E+02  0.47305160606E+02 -0.24136142584E+03  0.24921736165E+03  0.00000000000E+00 0. -1.
        -14    1    3    3    0    0  0.86786945755E+01 -0.26052638707E+02 -0.24990419475E+03  0.25140836557E+03  0.00000000000E+00 0.  1.
          5    1    4    4  501    0  0.66354709715E+01 -0.40091480406E+02  0.17634929179E+02  0.44495161572E+02  0.41800000000E+01 0.  1.
         -5    1    4    4    0  501 -0.37972785171E+02  0.88490155837E+02  0.62120098729E+02  0.11466830059E+03  0.41800000000E+01 0.  1.
</event>
<event>
11    1  0.6930157E-009  0.1331016E+03  0.7561462E-02  0.1115516E+00
         22   -1    0    0    0    0  0.00000000000E+00  0.00000000000E+00  0.59480382695E+03  0.59480382695E+03  0.00000000000E+00 0. -1.
         22   -1    0    0    0    0 -0.00000000000E+00 -0.00000000000E+00 -0.13640565185E+03  0.13640565185E+03  0.00000000000E+00 0. -1.
        -24    2    1    2    0    0  0.51537033149E+02  0.12657054912E+02 -0.39773723316E+02  0.10447832042E+03  0.80731056885E+02 0.  0.
         25    2    1    2    0    0 -0.17859536721E+02 -0.34875720814E+02  0.11283755619E+02  0.13157117579E+03  0.12509345388E+03 0.  0.
         24    2    1    2    0    0 -0.33677496428E+02  0.22218665902E+02  0.48688814279E+03  0.49515998260E+03  0.80594676602E+02 0.  0.
        -11    1    5    5    0    0 -0.36115688977E+02 -0.23652986135E+02  0.19891224129E+03  0.20354332826E+03  0.00000000000E+00 0.  1.
         12    1    5    5    0    0  0.24381925487E+01  0.45871652037E+02  0.28797590151E+03  0.29161665434E+03  0.00000000000E+00 0. -1.
         11    1    3    3    0    0  0.23092425828E+02  0.42692927133E+02 -0.40330973684E+02  0.63107318087E+02  0.00000000000E+00 0. -1.
        -12    1    3    3    0    0  0.28444607321E+02 -0.30035872221E+02  0.55725036807E+00  0.41371002329E+02  0.00000000000E+00 0.  1.
          5    1    4    4  501    0  0.47683804728E+02 -0.22619856627E+02  0.31704959678E+02  0.61709642807E+02  0.41800000000E+01 0.  1.
         -5    1    4    4    0  501 -0.65543341448E+02 -0.12255864187E+02 -0.20421204059E+02  0.69861532981E+02  0.41800000000E+01 0.  1.
</event>
<event>
11    1  0.6930157E-009  0.1331542E+03  0.7561462E-02  0.1115453E+00
         22   -1    0    0    0    0  0.00000000000E+00  0.00000000000E+00  0.33882366990E+04  0.33882366990E+04  0.00000000000E+00 0.  1.
         22   -1    0    0    0    0 -0.00000000000E+00 -0.00000000000E+00 -0.14422471377E+03  0.14422471377E+03  0.00000000000E+00 0. -1.
        -24    2    1    2    0    0 -0.21002041166E+02  0.36038848007E+02 -0.71478220901E+02  0.11540008558E+03  0.80424867981E+02 0.  0.
         25    2    1    2    0    0  0.16066588207E+02 -0.80962937460E+02  0.61894512862E+02  0.16214799747E+03  0.12509160589E+03 0.  0.
         24    2    1    2    0    0  0.49354529589E+01  0.44924089453E+02  0.32535956932E+04  0.32549133297E+04  0.80828931905E+02 0.  0.
        -13    1    5    5    0    0  0.14693832245E+02  0.50654409536E+02  0.31813111591E+04  0.31817483353E+04  0.00000000000E+00 0.  1.
         14    1    5    5    0    0 -0.97583792865E+01 -0.57303200830E+01  0.72284534109E+02  0.73164994402E+02  0.00000000000E+00 0. -1.
         11    1    3    3    0    0  0.10807682976E+02 -0.50248036007E+01 -0.61326936526E+02  0.62474377197E+02  0.00000000000E+00 0. -1.
        -12    1    3    3    0    0 -0.31809724141E+02  0.41063651608E+02 -0.10151284375E+02  0.52925708382E+02  0.00000000000E+00 0.  1.
          5    1    4    4  501    0 -0.48624766086E+02 -0.43348699958E+01  0.26609070974E+02  0.55755484330E+02  0.41800000000E+01 0. -1.
         -5    1    4    4    0  501  0.64691354293E+02 -0.76628067464E+02  0.35285441887E+02  0.10639251314E+03  0.41800000000E+01 0. -1.
</event>
<event>
11    1  0.6930157E-009  0.1691432E+03  0.7561462E-02  0.1078780E+00
         22   -1    0    0    0    0  0.00000000000E+00  0.00000000000E+00  0.35854489146E+03  0.35854489146E+03  0.00000000000E+00 0.  1.
         22   -1    0    0    0    0 -0.00000000000E+00 -0.00000000000E+00 -0.37408298931E+03  0.37408298931E+03  0.00000000000E+00 0. -1.
         24    2    1    2    0    0  0.99021834088E-01  0.23579363705E+02 -0.29583311704E+03  0.30756500526E+03  0.80765110788E+02 0.  0.
         25    2    1    2    0    0  0.32528372340E+02  0.93229878289E+02  0.81797498126E+02  0.17913266820E+03  0.12509107444E+03 0.  0.
        -24    2    1    2    0    0 -0.32627394174E+02 -0.11680924199E+03  0.19849752106E+03  0.24593020731E+03  0.79821395199E+02 0.  0.
        -11    1    3    3    0    0  0.11850259848E+02 -0.23688834610E+02 -0.46463261655E+02  0.53482933981E+02  0.00000000000E+00 0.  1.
         12    1    3    3    0    0 -0.11751238014E+02  0.47268198315E+02 -0.24936985539E+03  0.25408207128E+03  0.00000000000E+00 0. -1.
         11    1    5    5    0    0  0.45276713128E+01 -0.96828244657E+02  0.10252206452E+03  0.14109210639E+03  0.00000000000E+00 0. -1.
        -12    1    5    5    0    0 -0.37155065487E+02 -0.19980997337E+02  0.95975456544E+02  0.10483810092E+03  0.00000000000E+00 0.  1.
          5    1    4    4  501    0 -0.64810919731E+01  0.95355263943E+02  0.97707094004E+02  0.13674348077E+03  0.41800000000E+01 0.  1.
         -5    1    4    4    0  501  0.39009464313E+02 -0.21253856546E+01 -0.15909595878E+02  0.42389187432E+02  0.41800000000E+01 0.  1.
</event>
<event>
11    1  0.6930157E-009  0.1526801E+03  0.7561462E-02  0.1094171E+00
         22   -1    0    0    0    0  0.00000000000E+00  0.00000000000E+00  0.12371820519E+03  0.12371820519E+03  0.00000000000E+00 0. -1.
         22   -1    0    0    0    0 -0.00000000000E+00 -0.00000000000E+00 -0.24399942714E+04  0.24399942714E+04  0.00000000000E+00 0. -1.
         24    2    1    2    0    0 -0.85549228441E+02  0.19702215672E+02 -0.19950127452E+04  0.19985173972E+04  0.79303755672E+02 0.  0.
         25    2    1    2    0    0  0.95670860359E+02  0.46504387322E+02 -0.40172043286E+03  0.43398400704E+03  0.12508893089E+03 0.  0.
        -24    2    1    2    0    0 -0.10121631918E+02 -0.66206602994E+02  0.80457111786E+02  0.13121107239E+03  0.79102698864E+02 0.  0.
        -11    1    3    3    0    0 -0.46546665705E+02 -0.11120068707E+02 -0.41955399653E+03  0.42227455999E+03  0.00000000000E+00 0.  1.
         12    1    3    3    0    0 -0.39002562735E+02  0.30822284379E+02 -0.15754587486E+04  0.15762428372E+04  0.00000000000E+00 0. -1.
         11    1    5    5    0    0 -0.34567912416E+02 -0.38679459217E+02  0.78820444105E+02  0.94359438018E+02  0.00000000000E+00 0. -1.
        -12    1    5    5    0    0  0.24446280497E+02 -0.27527143777E+02  0.16366676813E+01  0.36851634370E+02  0.00000000000E+00 0.  1.
          5    1    4    4  501    0 -0.75978737684E+01  0.43499265064E+02 -0.47536162303E+02  0.65015943225E+02  0.41800000000E+01 0. -1.
         -5    1    4    4    0  501  0.10326873413E+03  0.30051222583E+01 -0.35418427056E+03  0.36896806382E+03  0.41800000000E+01 0. -1.
</event>
<event>
11    1  0.6930157E-009  0.1461217E+03  0.7561462E-02  0.1100909E+00
         22   -1    0    0    0    0  0.00000000000E+00  0.00000000000E+00  0.19757514323E+03  0.19757514323E+03  0.00000000000E+00 0. -1.
         22   -1    0    0    0    0 -0.00000000000E+00 -0.00000000000E+00 -0.77038378989E+03  0.77038378989E+03  0.00000000000E+00 0. -1.
         24    2    1    2    0    0  0.11121382416E+02  0.79766682144E+02 -0.67697977015E+03  0.68652048260E+03  0.80761098982E+02 0.  0.
         25    2    1    2    0    0  0.17779139447E+01 -0.15097411700E+02 -0.10612318919E+02  0.12645378492E+03  0.12508735183E+03 0.  0.
        -24    2    1    2    0    0 -0.12899296361E+02 -0.64669270444E+02  0.11478344242E+03  0.15498466560E+03  0.80600877994E+02 0.  0.
        -13    1    3    3    0    0 -0.23404844910E+02 -0.20930693913E+01 -0.98877276192E+02  0.10163111459E+03  0.00000000000E+00 0.  1.
         14    1    3    3    0    0  0.34526227327E+02  0.81859751536E+02 -0.57810249396E+03  0.58488936802E+03  0.00000000000E+00 0. -1.
         13    1    5    5    0    0  0.33091244581E+02 -0.27497058875E+02  0.63540840241E+02  0.76736934349E+02  0.00000000000E+00 0. -1.
        -14    1    5    5    0    0 -0.45990540942E+02 -0.37172211568E+02  0.51242602174E+02  0.78247731255E+02  0.00000000000E+00 0.  1.
          5    1    4    4  501    0  0.13818419800E+02  0.51622969679E+02 -0.21320500601E+02  0.57688091233E+02  0.41800000000E+01 0. -1.
         -5    1    4    4    0  501 -0.12040505855E+02 -0.66720381380E+02  0.10708181682E+02  0.68765693683E+02  0.41800000000E+01 0. -1.
</event>
<event>
11    1  0.6930157E-009  0.1550045E+03  0.7561462E-02  0.1091872E+00
         22   -1    0    0    0    0  0.00000000000E+00  0.00000000000E+00  0.24075174083E+04  0.24075174083E+04  0.00000000000E+00 0. -1.
         22   -1    0    0    0    0 -0.00000000000E+00 -0.00000000000E+00 -0.10290518765E+03  0.10290518765E+03  0.00000000000E+00 0. -1.
        -24    2    1    2    0    0 -0.96379794471E+02 -0.45209527044E+01 -0.44136260030E+02  0.13540414498E+03  0.84123535546E+02 0.  0.
         25    2    1    2    0    0  0.49309459960E+02  0.16238924747E+02  0.36958100926E+03  0.39361542943E+03  0.12509140003E+03 0.  0.
         24    2    1    2    0    0  0.47070334510E+02 -0.11717972043E+02  0.19791674714E+04  0.19814030215E+04  0.80629563721E+02 0.  0.
        -13    1    5    5    0    0 -0.61301924329E+01 -0.20188087910E+02  0.15375300198E+03  0.15519382646E+03  0.00000000000E+00 0.  1.
         14    1    5    5    0    0  0.53200526943E+02  0.84701158666E+01  0.18254144694E+04  0.18262091951E+04  0.00000000000E+00 0. -1.
         11    1    3    3    0    0 -0.97225150753E+02 -0.24547504927E+02 -0.53076100142E+02  0.11345652182E+03  0.00000000000E+00 0. -1.
        -12    1    3    3    0    0  0.84535628271E+00  0.20026552222E+02  0.89398401121E+01  0.21947623160E+02  0.00000000000E+00 0.  1.
          5    1    4    4  501    0 -0.21788300783E+02  0.24953599692E+02  0.25181429906E+02  0.41820915828E+02  0.41800000000E+01 0. -1.
         -5    1    4    4    0  501  0.71097760743E+02 -0.87146749447E+01  0.34439957935E+03  0.35179451360E+03  0.41800000000E+01 0. -1.
</event>
<event>
11    1  0.6930157E-009  0.1421899E+03  0.7561462E-02  0.1105137E+00
         22   -1    0    0    0    0  0.00000000000E+00  0.00000000000E+00  0.11660491400E+04  0.11660491400E+04  0.00000000000E+00 0.  1.
         22   -1    0    0    0    0 -0.00000000000E+00 -0.00000000000E+00 -0.98158887973E+03  0.98158887973E+03  0.00000000000E+00 0.  1.
         24    2    1    2    0    0 -0.18563122857E+02  0.57362411935E+02 -0.81960388840E+03  0.82574564836E+03  0.80438212760E+02 0.  0.
         25    2    1    2    0    0  0.80687987299E+02 -0.82512478874E+02 -0.11027846910E+03  0.20279976174E+03  0.12509013611E+03 0.  0.
        -24    2    1    2    0    0 -0.62124864442E+02  0.25150066939E+02  0.11143426177E+04  0.11190926096E+04  0.78209810859E+02 0.  0.
        -13    1    3    3    0    0 -0.37323251965E+02  0.25672007572E+02 -0.67526555357E+03  0.67678330723E+03  0.00000000000E+00 0.  1.
         14    1    3    3    0    0  0.18760129108E+02  0.31690404363E+02 -0.14433833483E+03  0.14896234113E+03  0.00000000000E+00 0. -1.
         11    1    5    5    0    0 -0.13387770069E+02 -0.14020264598E+02  0.63541737554E+02  0.66433068710E+02  0.00000000000E+00 0. -1.
        -12    1    5    5    0    0 -0.48737094373E+02  0.39170331537E+02  0.10508008802E+04  0.10526595409E+04  0.00000000000E+00 0.  1.
          5    1    4    4  501    0 -0.19349643075E+02 -0.17950779152E+02 -0.73359546882E+02  0.78075186058E+02  0.41800000000E+01 0. -1.
         -5    1    4    4    0  501  0.10003763037E+03 -0.64561699722E+02 -0.36918922214E+02  0.12472457568E+03  0.41800000000E+01 0. -1.
</event>
<event>
11    1  0.6930157E-009  0.1342987E+03  0.7561462E-02  0.1114097E+00
         22   -1    0    0    0    0  0.00000000000E+00  0.00000000000E+00  0.16381145746E+03  0.16381145746E+03  0.00000000000E+00 0.  1.
         22   -1    0    0    0    0 -0.00000000000E+00 -0.00000000000E+00 -0.11457684720E+04  0.11457684720E+04  0.00000000000E+00 0.  1.
        -24    2    1    2    0    0  0.61471281413E+01 -0.38187177026E+01 -0.92376354623E+03  0.92734634480E+03  0.81115868283E+02 0.  0.
         25    2    1    2    0    0 -0.54355203005E+02 -0.11676502280E+01 -0.18156777728E+03  0.22708959574E+03  0.12508787011E+03 0.  0.
         24    2    1    2    0    0  0.48208074864E+02  0.49863679306E+01  0.12337430896E+03  0.15514398892E+03  0.80619816669E+02 0.  0.
        -13    1    5    5    0    0 -0.19965091411E+02 -0.41519639937E+01  0.10432808649E+02  0.22906051086E+02  0.00000000000E+00 0.  1.
         14    1    5    5    0    0  0.68173166275E+02  0.91383319243E+01  0.11294150031E+03  0.13223793783E+03  0.00000000000E+00 0. -1.
         11    1    3    3    0    0 -0.16554907310E+02 -0.15662727345E+02 -0.79696722892E+02  0.82891215600E+02  0.00000000000E+00 0. -1.
        -12    1    3    3    0    0  0.22702035451E+02  0.11844009642E+02 -0.84406682334E+03  0.84445512920E+03  0.00000000000E+00 0.  1.
          5    1    4    4  501    0 -0.89155640628E+02 -0.52277681993E+01 -0.81482647457E+02  0.12096673945E+03  0.41800000000E+01 0.  1.
         -5    1    4    4    0  501  0.34800437622E+02  0.40601179713E+01 -0.10008512982E+03  0.10612285630E+03  0.41800000000E+01 0.  1.
</event>
<event>
11    1  0.6930157E-009  0.1449158E+03  0.7561462E-02  0.1102190E+00
         22   -1    0    0    0    0  0.00000000000E+00  0.00000000000E+00  0.37244981884E+03  0.37244981884E+03  0.00000000000E+00 0.  1.
         22   -1    0    0    0    0 -0.00000000000E+00 -0.00000000000E+00 -0.18556404212E+04  0.18556404212E+04  0.00000000000E+00 0. -1.
         24    2    1    2    0    0 -0.47436241997E+02  0.15066150878E+02 -0.17910724523E+04  0.17935546643E+04  0.80128762189E+02 0.  0.
         25    2    1    2    0    0 -0.32710574941E+02  0.24875791796E+01  0.28484382103E+02  0.13242149482E+03  0.12509165641E+03 0.  0.
        -24    2    1    2    0    0  0.80146816938E+02 -0.17553730058E+02  0.27939746786E+03  0.30211408088E+03  0.80488055723E+02 0.  0.
        -13    1    3    3    0    0 -0.93881592168E+01  0.28297452515E+01 -0.22658419799E+02  0.24689045738E+02  0.00000000000E+00 0.  1.
         14    1    3    3    0    0 -0.38048082780E+02  0.12236405627E+02 -0.17684140325E+04  0.17688656186E+04  0.00000000000E+00 0. -1.
         13    1    5    5    0    0  0.21233855618E+02 -0.25624371981E+02  0.27139052687E+02  0.42941975322E+02  0.00000000000E+00 0. -1.
        -14    1    5    5    0    0  0.58912961320E+02  0.80706419234E+01  0.25225841517E+03  0.25917210556E+03  0.00000000000E+00 0.  1.
          5    1    4    4  501    0 -0.39255392753E+02 -0.40530803754E+02  0.56933171340E+02  0.80265748062E+02  0.41800000000E+01 0.  1.
         -5    1    4    4    0  501  0.65448178111E+01  0.43018382934E+02 -0.28448789237E+02  0.52155746754E+02  0.41800000000E+01 0.  1.
</event>
<event>
11    1  0.6930157E-009  0.1650147E+03  0.7561462E-02  0.1082453E+00
         22   -1    0    0    0    0  0.00000000000E+00  0.00000000000E+00  0.14753789378E+04  0.14753789378E+04  0.00000000000E+00 0. -1.
         22   -1    0    0    0    0 -0.00000000000E+00 -0.00000000000E+00 -0.10967973157E+04  0.10967973157E+04  0.00000000000E+00 0.  1.
         24    2    1    2    0    0 -0.24213974208E+02  0.10534927255E+03 -0.10582704572E+04  0.10667927803E+04  0.80160400010E+02 0.  0.
         25    2    1    2    0    0 -0.26727007341E+02 -0.94147699716E+02  0.16192655457E+03  0.22681641531E+03  0.12508938763E+03 0.  0.
        -24    2    1    2    0    0  0.50940981549E+02 -0.11201572834E+02  0.12749255248E+04  0.12785670579E+04  0.81105911300E+02 0.  0.
        -11    1    3    3    0    0  0.64801577740E+01  0.10362940716E+03 -0.81829940843E+03  0.82486057507E+03  0.00000000000E+00 0.  1.
         12    1    3    3    0    0 -0.30694131982E+02  0.17198653930E+01 -0.23997104878E+03  0.24193220523E+03  0.00000000000E+00 0. -1.
         13    1    5    5    0    0 -0.44838419643E+01  0.28063822486E+02  0.40110210066E+03  0.40210766982E+03  0.00000000000E+00 0. -1.
        -14    1    5    5    0    0  0.55424823513E+02 -0.39265395319E+02  0.87382342416E+03  0.87645938808E+03  0.00000000000E+00 0.  1.
          5    1    4    4  501    0  0.17689219984E+02 -0.77833437570E+02  0.27959080979E+02  0.84676650364E+02  0.41800000000E+01 0.  1.
         -5    1    4    4    0  501 -0.44416227325E+02 -0.16314262146E+02  0.13396747359E+03  0.14213976495E+03  0.41800000000E+01 0.  1.
</event>
<event>
11    1  0.6930157E-009  0.1403686E+03  0.7561462E-02  0.1107148E+00
         22   -1    0    0    0    0  0.00000000000E+00  0.00000000000E+00  0.29425058375E+03  0.29425058375E+03  0.00000000000E+00 0. -1.
         22   -1    0    0    0    0 -0.00000000000E+00 -0.00000000000E+00 -0.10111127043E+04  0.10111127043E+04  0.00000000000E+00 0.  1.
         24    2    1    2    0    0 -0.35875310591E+02  0.18218517761E+02 -0.83097964275E+03  0.83583401235E+03  0.80451085983E+02 0.  0.
         25    2    1    2    0    0 -0.24780506464E+02  0.75891654885E+01 -0.14351454101E+03  0.19213420585E+03  0.12508981031E+03 0.  0.
        -24    2    1    2    0    0  0.60655817055E+02 -0.25807683250E+02  0.25763206322E+03  0.27739506984E+03  0.78921353963E+02 0.  0.
        -11    1    3    3    0    0 -0.36547531280E+02 -0.12761271036E+02 -0.70634755071E+03  0.70740754483E+03  0.00000000000E+00 0.  1.
         12    1    3    3    0    0  0.67222068911E+00  0.30979788797E+02 -0.12463209204E+03  0.12842646752E+03  0.00000000000E+00 0. -1.
         11    1    5    5    0    0  0.12505142867E+02  0.27587068585E+02  0.62879782412E+02  0.69794641538E+02  0.00000000000E+00 0. -1.
        -12    1    5    5    0    0  0.48150674187E+02 -0.53394751835E+02  0.19475228081E+03  0.20760042830E+03  0.00000000000E+00 0.  1.
          5    1    4    4  501    0  0.24304943873E+02  0.53359193382E+02 -0.51392995136E+02  0.78081023073E+02  0.41800000000E+01 0.  1.
         -5    1    4    4    0  501 -0.49085450336E+02 -0.45770027893E+02 -0.92121545876E+02  0.11405318278E+03  0.41800000000E+01 0.  1.
</event>
<event>
11    1  0.6930157E-009  0.1659962E+03  0.7561462E-02  0.1081569E+00
         22   -1    0    0    0    0  0.00000000000E+00  0.00000000000E+00  0.13205936464E+03  0.13205936464E+03  0.00000000000E+00 0. -1.
         22   -1    0    0    0    0 -0.00000000000E+00 -0.00000000000E+00 -0.16036192173E+04  0.16036192173E+04  0.00000000000E+00 0. -1.
        -24    2    1    2    0    0  0.98495190642E+02  0.51192503583E+01 -0.96220539736E+03  0.97042827442E+03  0.78513054859E+02 0.  0.
         25    2    1    2    0    0 -0.18704445537E+03 -0.58555442481E+02 -0.57319467642E+03  0.61855825323E+03  0.12509119647E+03 0.  0.
         24    2    1    2    0    0  0.88549264723E+02  0.53436192123E+02  0.63840221163E+02  0.14669205424E+03  0.82137604223E+02 0.  0.
        -11    1    5    5    0    0  0.10612752985E+01 -0.12349947132E+02 -0.89045769449E+01  0.15262338942E+02  0.00000000000E+00 0.  1.
         12    1    5    5    0    0  0.87487989425E+02  0.65786139254E+02  0.72744798108E+02  0.13142971530E+03  0.00000000000E+00 0. -1.
         13    1    3    3    0    0  0.93259188013E+02 -0.30206115523E+01 -0.95122826808E+03  0.95579371113E+03  0.00000000000E+00 0. -1.
        -14    1    3    3    0    0  0.52360026284E+01  0.81398619106E+01 -0.10977129278E+02  0.14634563288E+02  0.00000000000E+00 0.  1.
          5    1    4    4  501    0 -0.14379450869E+03 -0.60805093524E+01 -0.25214304708E+03  0.29035740375E+03  0.41800000000E+01 0.  1.
         -5    1    4    4    0  501 -0.43249946676E+02 -0.52474933128E+02 -0.32105162934E+03  0.32820084948E+03  0.41800000000E+01 0.  1.
</event>
<event>
11    1  0.7180123E-009  0.1580130E+03  0.7561462E-02  0.1088961E+00
         22   -1    0    0    0    0  0.00000000000E+00  0.00000000000E+00  0.20041398904E+03  0.20041398904E+03  0.00000000000E+00 0. -1.
         22   -1    0    0    0    0 -0.00000000000E+00 -0.00000000000E+00 -0.55812755166E+03  0.55812755166E+03  0.00000000000E+00 0.  1.
        -24    2    1    2    0    0  0.67754484770E+02  0.53417537594E+02 -0.38842177205E+03  0.40653667484E+03  0.83405584107E+02 0.  0.
         25    2    1    2    0    0 -0.14640531777E+03 -0.12331643105E+02 -0.58831072777E+02  0.20171888476E+03  0.12507128708E+03 0.  0.
         24    2    1    2    0    0  0.78650833000E+02 -0.41085894489E+02  0.89539282203E+02  0.15028598109E+03  0.81820466865E+02 0.  0.
        -11    1    5    5    0    0 -0.94837541943E+01 -0.24529437248E+02  0.44638533400E+01  0.26675098350E+02  0.00000000000E+00 0.  1.
         12    1    5    5    0    0  0.88134587194E+02 -0.16556457241E+02  0.85075428863E+02  0.12361088274E+03  0.00000000000E+00 0. -1.
         13    1    3    3    0    0  0.41323733832E+01  0.10584744006E+02 -0.79014120601E+00  0.11390243130E+02  0.00000000000E+00 0. -1.
        -14    1    3    3    0    0  0.63622111387E+02  0.42832793588E+02 -0.38763163084E+03  0.39514643171E+03  0.00000000000E+00 0.  1.
          5    1    4    4  501    0 -0.75036927265E+02 -0.62199628208E+02 -0.18312271340E+01  0.97571307234E+02  0.41800000000E+01 0.  1.
         -5    1    4    4    0  501 -0.71368390505E+02  0.49867985102E+02 -0.56999845643E+02  0.10414757753E+03  0.41800000000E+01 0.  1.
</event>
<event>
11    1  0.6930157E-009  0.1355553E+03  0.7561462E-02  0.1112626E+00
         22   -1    0    0    0    0  0.00000000000E+00  0.00000000000E+00  0.74194159214E+03  0.74194159214E+03  0.00000000000E+00 0.  1.
         22   -1    0    0    0    0 -0.00000000000E+00 -0.00000000000E+00 -0.31521449183E+03  0.31521449183E+03  0.00000000000E+00 0. -1.
         24    2    1    2    0    0  0.53363319010E+02  0.49759235097E+02 -0.28274473939E+03  0.30103448781E+03  0.73167956836E+02 0.  0.
         25    2    1    2    0    0 -0.32467880567E+02 -0.84978515489E+02  0.37343808524E+03  0.40420056336E+03  0.12508629243E+03 0.  0.
        -24    2    1    2    0    0 -0.20895438443E+02  0.35219280392E+02  0.33603375446E+03  0.35192103279E+03  0.96191018959E+02 0.  0.
        -11    1    3    3    0    0 -0.33857141721E+01 -0.10892885529E+02 -0.78038368982E+01  0.13820922037E+02  0.00000000000E+00 0.  1.
         12    1    3    3    0    0  0.56749033182E+02  0.60652120626E+02 -0.27494090249E+03  0.28721356577E+03  0.00000000000E+00 0. -1.
         13    1    5    5    0    0 -0.54034088381E+02  0.56616731713E+01  0.12549817994E+03  0.13675353896E+03  0.00000000000E+00 0. -1.
        -14    1    5    5    0    0  0.33138649938E+02  0.29557607221E+02  0.21053557452E+03  0.21516749383E+03  0.00000000000E+00 0.  1.
          5    1    4    4  501    0  0.18584857392E+02  0.23584823679E+02  0.12000968626E+03  0.12377979653E+03  0.41800000000E+01 0. -1.
         -5    1    4    4    0  501 -0.51052737959E+02 -0.10856333917E+03  0.25342839897E+03  0.28042076683E+03  0.41800000000E+01 0. -1.
</event>
<event>
11    1  0.6930157E-009  0.1819725E+03  0.7561462E-02  0.1068058E+00
         22   -1    0    0    0    0  0.00000000000E+00  0.00000000000E+00  0.12847480861E+04  0.12847480861E+04  0.00000000000E+00 0.  1.
         22   -1    0    0    0    0 -0.00000000000E+00 -0.00000000000E+00 -0.77684040498E+02  0.77684040498E+02  0.00000000000E+00 0.  1.
         24    2    1    2    0    0 -0.10771998808E+03 -0.72922078110E+02  0.39182966009E+02  0.15673653182E+03  0.78165275365E+02 0.  0.
         25    2    1    2    0    0  0.13074620822E+03  0.62032435961E+02  0.51110316524E+03  0.54572748644E+03  0.12509776122E+03 0.  0.
        -24    2    1    2    0    0 -0.23026220140E+02  0.10889642150E+02  0.65677791435E+03  0.65996810834E+03  0.59597685562E+02 0.  0.
        -13    1    3    3    0    0  0.21815135690E+01 -0.41988459102E+01 -0.15387165050E+02  0.16098265643E+02  0.00000000000E+00 0.  1.
         14    1    3    3    0    0 -0.10990150165E+03 -0.68723232200E+02  0.54570131059E+02  0.14063826617E+03  0.00000000000E+00 0. -1.
         11    1    5    5    0    0 -0.19174546352E+02  0.35198855093E+02  0.38734717551E+03  0.38941553257E+03  0.00000000000E+00 0. -1.
        -12    1    5    5    0    0 -0.38516737882E+01 -0.24309212944E+02  0.26943073884E+03  0.27055257577E+03  0.00000000000E+00 0.  1.
          5    1    4    4  501    0  0.10221052126E+03 -0.16945441575E+02  0.22942647939E+03  0.25176997536E+03  0.41800000000E+01 0. -1.
         -5    1    4    4    0  501  0.28535686960E+02  0.78977877536E+02  0.28167668585E+03  0.29395751108E+03  0.41800000000E+01 0. -1.
</event>
<event>
11    1  0.6930157E-009  0.1325391E+03  0.7561462E-02  0.1116188E+00
         22   -1    0    0    0    0  0.00000000000E+00  0.00000000000E+00  0.17093826499E+03  0.17093826499E+03  0.00000000000E+00 0. -1.
         22   -1    0    0    0    0 -0.00000000000E+00 -0.00000000000E+00 -0.15983480994E+04  0.15983480994E+04  0.00000000000E+00 0.  1.
         24    2    1    2    0    0 -0.23539245413E+01 -0.24748871021E+02 -0.14566303984E+04  0.14591846951E+04  0.82642660453E+02 0.  0.
         25    2    1    2    0    0 -0.31689040254E+02 -0.57687489582E+01 -0.92081547405E+02  0.15863529693E+03  0.12509465345E+03 0.  0.
        -24    2    1    2    0    0  0.34042964796E+02  0.30517619979E+02  0.12130211144E+03  0.15146637231E+03  0.78342907268E+02 0.  0.
        -13    1    3    3    0    0  0.51381000646E+01  0.23796700867E+02 -0.91705160107E+03  0.91737469012E+03  0.00000000000E+00 0.  1.
         14    1    3    3    0    0 -0.74920246059E+01 -0.48545571888E+02 -0.53957879735E+03  0.54181000501E+03  0.00000000000E+00 0. -1.
         13    1    5    5    0    0  0.58607553391E+02  0.30634573704E+02  0.87364805981E+02  0.10957158274E+03  0.00000000000E+00 0. -1.
        -14    1    5    5    0    0 -0.24564588595E+02 -0.11695372477E+00  0.33937305458E+02  0.41894789565E+02  0.00000000000E+00 0.  1.
          5    1    4    4  501    0 -0.25096836137E+02  0.58807676686E+02 -0.47964815452E+02  0.80039302487E+02  0.41800000000E+01 0. -1.
         -5    1    4    4    0  501 -0.65922041177E+01 -0.64576425644E+02 -0.44116731952E+02  0.78595994442E+02  0.41800000000E+01 0. -1.
</event>
<event>
11    1  0.1390614E-008  0.1720596E+03  0.7561462E-02  0.1076253E+00
         22   -1    0    0    0    0  0.00000000000E+00  0.00000000000E+00  0.76340589169E+03  0.76340589169E+03  0.00000000000E+00 0.  1.
         22   -1    0    0    0    0 -0.00000000000E+00 -0.00000000000E+00 -0.12212153662E+04  0.12212153662E+04  0.00000000000E+00 0.  1.
        -24    2    1    2    0    0  0.11376829029E+03 -0.62050934587E+01 -0.91341860485E+03  0.92395736797E+03  0.79887064444E+02 0.  0.
         25    2    1    2    0    0 -0.15077791137E+03 -0.99754889312E+02 -0.25500969303E+03  0.33669147982E+03  0.12508474144E+03 0.  0.
         24    2    1    2    0    0  0.37009621086E+02  0.10595998277E+03  0.71061882336E+03  0.72397241013E+03  0.80992027503E+02 0.  0.
        -13    1    5    5    0    0  0.61113834666E+02  0.88904240810E+02  0.51925852178E+03  0.53034731758E+03  0.00000000000E+00 0.  1.
         14    1    5    5    0    0 -0.24104213580E+02  0.17055741961E+02  0.19136030158E+03  0.19362509255E+03  0.00000000000E+00 0. -1.
         13    1    3    3    0    0  0.29578041945E+02  0.48408645395E+01 -0.68337406264E+02  0.74621013325E+02  0.00000000000E+00 0. -1.
        -14    1    3    3    0    0  0.84190248340E+02 -0.11045957998E+02 -0.84508119859E+03  0.84933635464E+03  0.00000000000E+00 0.  1.
          5    1    4    4  501    0  0.91616871798E+01 -0.17517742988E+02  0.47176903130E+01  0.20749381515E+02  0.41800000000E+01 0. -1.
         -5    1    4    4    0  501 -0.15993959855E+03 -0.82237146324E+02 -0.25972738334E+03  0.31594209830E+03  0.41800000000E+01 0. -1.
</event>
<event>
11    1  0.6930157E-009  0.1268092E+03  0.7561462E-02  0.1123253E+00
         22   -1    0    0    0    0  0.00000000000E+00  0.00000000000E+00  0.86054083026E+02  0.86054083026E+02  0.00000000000E+00 0.  1.
         22   -1    0    0    0    0 -0.00000000000E+00 -0.00000000000E+00 -0.75112180995E+03  0.75112180995E+03  0.00000000000E+00 0. -1.
         24    2    1    2    0    0 -0.93140119418E+01 -0.60368837815E+01 -0.55232125159E+03  0.55775295821E+03  0.76853123868E+02 0.  0.
         25    2    1    2    0    0  0.25773979052E+02 -0.55617839584E+01 -0.14309318407E+03  0.19188303069E+03  0.12509279236E+03 0.  0.
        -24    2    1    2    0    0 -0.16459967110E+02  0.11598667740E+02  0.30346708744E+02  0.87539904077E+02  0.79604349528E+02 0.  0.
        -11    1    3    3    0    0  0.21493069365E+02 -0.10398668563E+02 -0.45396870454E+03  0.45459616039E+03  0.00000000000E+00 0.  1.
         12    1    3    3    0    0 -0.30807081307E+02  0.43617847811E+01 -0.98352547046E+02  0.10315679782E+03  0.00000000000E+00 0. -1.
         11    1    5    5    0    0  0.27585893554E+02  0.88150277905E+01 -0.69214534712E+01  0.29775707486E+02  0.00000000000E+00 0. -1.
        -12    1    5    5    0    0 -0.44045860664E+02  0.27836399494E+01  0.37268162215E+02  0.57764196591E+02  0.00000000000E+00 0.  1.
          5    1    4    4  501    0  0.33678064659E+02  0.54657656259E+02 -0.92779023899E+02  0.11290301636E+03  0.41800000000E+01 0.  1.
         -5    1    4    4    0  501 -0.79040856070E+01 -0.60219440217E+02 -0.50314160174E+02  0.78980014329E+02  0.41800000000E+01 0.  1.
</event>
<event>
11    1  0.6930157E-009  0.1290557E+03  0.7561462E-02  0.1120435E+00
         22   -1    0    0    0    0  0.00000000000E+00  0.00000000000E+00  0.18260173953E+03  0.18260173953E+03  0.00000000000E+00 0.  1.
         22   -1    0    0    0    0 -0.00000000000E+00 -0.00000000000E+00 -0.20640104555E+04  0.20640104555E+04  0.00000000000E+00 0. -1.
        -24    2    1    2    0    0 -0.13520855612E+02  0.27339041260E+02 -0.17263772439E+04  0.17284698323E+04  0.79368358109E+02 0.  0.
         25    2    1    2    0    0  0.36216800013E+02 -0.38240181578E+02 -0.31340916377E+03  0.34152241606E+03  0.12505314327E+03 0.  0.
         24    2    1    2    0    0 -0.22695944400E+02  0.10901140317E+02  0.15837769173E+03  0.17661994663E+03  0.74007915504E+02 0.  0.
        -13    1    5    5    0    0  0.17501796649E+02  0.23099963377E+02  0.10366905709E+03  0.10764383212E+03  0.00000000000E+00 0.  1.
         14    1    5    5    0    0 -0.40197741050E+02 -0.12198823059E+02  0.54708634634E+02  0.68976114511E+02  0.00000000000E+00 0. -1.
         13    1    3    3    0    0 -0.31618812926E+02  0.32393290327E+02 -0.16057431720E+04  0.16063810908E+04  0.00000000000E+00 0. -1.
        -14    1    3    3    0    0  0.18097957314E+02 -0.50542490661E+01 -0.12063407194E+03  0.12208874152E+03  0.00000000000E+00 0.  1.
          5    1    4    4  501    0  0.64919180194E+02 -0.63676462156E+02 -0.26118643380E+03  0.27659540378E+03  0.41800000000E+01 0.  1.
         -5    1    4    4    0  501 -0.28702380182E+02  0.25436280578E+02 -0.52222729975E+02  0.64927012282E+02  0.41800000000E+01 0.  1.
</event>
<event>
11    1  0.6930157E-009  0.1320435E+03  0.7561462E-02  0.1116783E+00
         22   -1    0    0    0    0  0.00000000000E+00  0.00000000000E+00  0.18306462933E+04  0.18306462933E+04  0.00000000000E+00 0. -1.
         22   -1    0    0    0    0 -0.00000000000E+00 -0.00000000000E+00 -0.63708801979E+02  0.63708801979E+02  0.00000000000E+00 0.  1.
        -24    2    1    2    0    0 -0.15006782042E+02  0.25676730207E+02 -0.68981416712E+01  0.85884685067E+02  0.80275131823E+02 0.  0.
         25    2    1    2    0    0 -0.28038423087E+02 -0.17556527317E+02  0.24665517170E+03  0.27853235468E+03  0.12508842495E+03 0.  0.
         24    2    1    2    0    0  0.43045205129E+02 -0.81202028901E+01  0.15271804613E+04  0.15299380555E+04  0.80693649287E+02 0.  0.
        -13    1    5    5    0    0  0.63369300294E+02 -0.90477639804E+01  0.13629234404E+04  0.13644258260E+04  0.00000000000E+00 0.  1.
         14    1    5    5    0    0 -0.20324095166E+02  0.92756109030E+00  0.16425702089E+03  0.16551222953E+03  0.00000000000E+00 0. -1.
         11    1    3    3    0    0 -0.22581185165E+02  0.20255585938E+02  0.33052392437E+02  0.44862671911E+02  0.00000000000E+00 0. -1.
        -12    1    3    3    0    0  0.75744031231E+01  0.54211442697E+01 -0.39950534108E+02  0.41022013156E+02  0.00000000000E+00 0.  1.
          5    1    4    4  501    0 -0.20858021559E+01 -0.74417711107E+01  0.25001267266E+03  0.25016702304E+03  0.41800000000E+01 0.  1.
         -5    1    4    4    0  501 -0.25952620931E+02 -0.10114756207E+02 -0.33575009559E+01  0.28365331638E+02  0.41800000000E+01 0.  1.
</event>
<event>
11    1  0.6930157E-009  0.1464612E+03  0.7561462E-02  0.1100551E+00
         22   -1    0    0    0    0  0.00000000000E+00  0.00000000000E+00  0.16058574228E+04  0.16058574228E+04  0.00000000000E+00 0.  1.
         22   -1    0    0    0    0 -0.00000000000E+00 -0.00000000000E+00 -0.80239712550E+03  0.80239712550E+03  0.00000000000E+00 0.  1.
        -24    2    1    2    0    0 -0.68372311298E+02  0.13315400272E+02 -0.76359282214E+03  0.77091687353E+03  0.79917176088E+02 0.  0.
         25    2    1    2    0    0  0.98195620321E+01 -0.65974263234E+02  0.11962053483E+03  0.18548293988E+03  0.12508325798E+03 0.  0.
         24    2    1    2    0    0  0.58552749266E+02  0.52658862962E+02  0.14474325846E+04  0.14518547349E+04  0.81361562958E+02 0.  0.
        -11    1    5    5    0    0  0.65271789431E+01  0.34096888543E+02  0.10531065679E+04  0.10536786252E+04  0.00000000000E+00 0.  1.
         12    1    5    5    0    0  0.52025570323E+02  0.18561974419E+02  0.39432601671E+03  0.39817610968E+03  0.00000000000E+00 0. -1.
         13    1    3    3    0    0  0.12519713471E+02 -0.13950167117E+02 -0.89592485434E+02  0.91532310330E+02  0.00000000000E+00 0. -1.
        -14    1    3    3    0    0 -0.80892024770E+02  0.27265567389E+02 -0.67400033671E+03  0.67938456320E+03  0.00000000000E+00 0.  1.
          5    1    4    4  501    0 -0.23753164760E+02 -0.90640109211E+02  0.55747849535E+02  0.10911066566E+03  0.41800000000E+01 0. -1.
         -5    1    4    4    0  501  0.33572726792E+02  0.24665845977E+02  0.63872685297E+02  0.76372274217E+02  0.41800000000E+01 0. -1.
</event>
<event>
11    1  0.6930157E-009  0.2439037E+03  0.7561462E-02  0.1027198E+00
         22   -1    0    0    0    0  0.00000000000E+00  0.00000000000E+00  0.19500908247E+03  0.19500908247E+03  0.00000000000E+00 0. -1.
         22   -1    0    0    0    0 -0.00000000000E+00 -0.00000000000E+00 -0.71602761194E+03  0.71602761194E+03  0.00000000000E+00 0.  1.
        -24    2    1    2    0    0  0.20659193517E+03 -0.52429088883E+01 -0.50309536653E+03  0.54948165109E+03  0.78213945614E+02 0.  0.
         25    2    1    2    0    0 -0.22036189188E+03  0.15018705395E+02 -0.70649295138E+02  0.26348380211E+03  0.12508983240E+03 0.  0.
         24    2    1    2    0    0  0.13769956704E+02 -0.97757965067E+01  0.52726132194E+02  0.98071241206E+02  0.80949029830E+02 0.  0.
        -11    1    5    5    0    0 -0.75638344479E+00 -0.42375639659E+02  0.12270523813E+02  0.44122927227E+02  0.00000000000E+00 0.  1.
         12    1    5    5    0    0  0.14526340148E+02  0.32599843152E+02  0.40455608381E+02  0.53948313979E+02  0.00000000000E+00 0. -1.
         11    1    3    3    0    0  0.11815848928E+01  0.10144053547E+02 -0.59799926661E+02  0.60665716792E+02  0.00000000000E+00 0. -1.
        -12    1    3    3    0    0  0.20541035028E+03 -0.15386962435E+02 -0.44329543987E+03  0.48881593430E+03  0.00000000000E+00 0.  1.
          5    1    4    4  501    0 -0.18961179363E+03  0.59864534767E+02 -0.49164987731E+02  0.20486840466E+03  0.41800000000E+01 0. -1.
         -5    1    4    4    0  501 -0.30750098241E+02 -0.44845829372E+02 -0.21484307407E+02  0.58615397454E+02  0.41800000000E+01 0. -1.
</event>
<event>
11    1  0.6930157E-009  0.1358898E+03  0.7561462E-02  0.1112237E+00
         22   -1    0    0    0    0  0.00000000000E+00  0.00000000000E+00  0.23895744338E+03  0.23895744338E+03  0.00000000000E+00 0.  1.
         22   -1    0    0    0    0 -0.00000000000E+00 -0.00000000000E+00 -0.52572258536E+03  0.52572258536E+03  0.00000000000E+00 0. -1.
         24    2    1    2    0    0  0.10697557932E+02 -0.30566899710E+01 -0.31019908807E+03  0.32149724998E+03  0.83745008251E+02 0.  0.
         25    2    1    2    0    0 -0.49639706578E+01 -0.49931695420E+02 -0.17584226559E+03  0.22155619201E+03  0.12509527823E+03 0.  0.
        -24    2    1    2    0    0 -0.57335872743E+01  0.52988385391E+02  0.19927621168E+03  0.22162658675E+03  0.81035130682E+02 0.  0.
        -11    1    3    3    0    0 -0.71945393925E+01 -0.34671465849E+02 -0.68775304713E+02  0.77355765652E+02  0.00000000000E+00 0.  1.
         12    1    3    3    0    0  0.17892097325E+02  0.31614775878E+02 -0.24142378336E+03  0.24414148433E+03  0.00000000000E+00 0. -1.
         13    1    5    5    0    0  0.64030323404E+01 -0.17631554128E+02  0.15359944840E+02  0.24244554638E+02  0.00000000000E+00 0. -1.
        -14    1    5    5    0    0 -0.12136619615E+02  0.70619939519E+02  0.18391626684E+03  0.19738203211E+03  0.00000000000E+00 0.  1.
          5    1    4    4  501    0  0.30931828639E+02 -0.50260431843E+02 -0.21357908058E+02  0.62900887662E+02  0.41800000000E+01 0.  1.
         -5    1    4    4    0  501 -0.35895799297E+02  0.32873642304E+00 -0.15448435753E+03  0.15865530434E+03  0.41800000000E+01 0.  1.
</event>
<event>
11    1  0.6930157E-009  0.1769563E+03  0.7561462E-02  0.1072132E+00
         22   -1    0    0    0    0  0.00000000000E+00  0.00000000000E+00  0.23073636379E+04  0.23073636379E+04  0.00000000000E+00 0.  1.
         22   -1    0    0    0    0 -0.00000000000E+00 -0.00000000000E+00 -0.94209694641E+03  0.94209694641E+03  0.00000000000E+00 0. -1.
        -24    2    1    2    0    0 -0.38812864850E+02 -0.11404595336E+03 -0.78613475889E+03  0.79941551709E+03  0.80897415659E+02 0.  0.
         25    2    1    2    0    0  0.80426221412E+02  0.16841322824E+03 -0.62967251355E+02  0.23332798457E+03  0.12508269705E+03 0.  0.
         24    2    1    2    0    0 -0.41613356561E+02 -0.54367274876E+02  0.22143687018E+04  0.22167170827E+04  0.75620137886E+02 0.  0.
        -11    1    5    5    0    0 -0.41490413633E+02 -0.70412925011E+02  0.15486587377E+04  0.15508137607E+04  0.00000000000E+00 0.  1.
         12    1    5    5    0    0 -0.12294292811E+00  0.16045650135E+02  0.66570996401E+03  0.66590332195E+03  0.00000000000E+00 0. -1.
         13    1    3    3    0    0  0.62201152792E+01 -0.38626651266E+02 -0.45991914248E+03  0.46158024832E+03  0.00000000000E+00 0. -1.
        -14    1    3    3    0    0 -0.45032980130E+02 -0.75419302097E+02 -0.32621561642E+03  0.33783526876E+03  0.00000000000E+00 0.  1.
          5    1    4    4  501    0  0.69908121783E+02  0.18317544391E+02 -0.34286203271E+02  0.80098027806E+02  0.41800000000E+01 0.  1.
         -5    1    4    4    0  501  0.10518099629E+02  0.15009568385E+03 -0.28681048083E+02  0.15322995676E+03  0.41800000000E+01 0.  1.
</event>
<event>
11    1  0.6930157E-009  0.1507777E+03  0.7561462E-02  0.1096087E+00
         22   -1    0    0    0    0  0.00000000000E+00  0.00000000000E+00  0.96510539468E+03  0.96510539468E+03  0.00000000000E+00 0. -1.
         22   -1    0    0    0    0 -0.00000000000E+00 -0.00000000000E+00 -0.16780278310E+04  0.16780278310E+04  0.00000000000E+00 0.  1.
        -24    2    1    2    0    0 -0.69210611827E+02  0.42126577473E+02 -0.14405793276E+04  0.14448965745E+04  0.76762976450E+02 0.  0.
         25    2    1    2    0    0  0.13849138843E+03 -0.45734402011E+02 -0.19251136790E+03  0.27199039783E+03  0.12508656820E+03 0.  0.
         24    2    1    2    0    0 -0.69280776601E+02  0.36078245381E+01  0.92016825922E+03  0.92624625331E+03  0.80060315280E+02 0.  0.
        -11    1    5    5    0    0  0.14108452475E+02 -0.14362960632E+02  0.14296682810E+03  0.14437748095E+03  0.00000000000E+00 0.  1.
         12    1    5    5    0    0 -0.83389229076E+02  0.17970785170E+02  0.77720143113E+03  0.78186877236E+03  0.00000000000E+00 0. -1.
         13    1    3    3    0    0 -0.48257823766E+02  0.22727605502E+01 -0.34205333816E+03  0.34544821485E+03  0.00000000000E+00 0. -1.
        -14    1    3    3    0    0 -0.20952788061E+02  0.39853816923E+02 -0.10985259894E+04  0.10994483596E+04  0.00000000000E+00 0.  1.
          5    1    4    4  501    0  0.87288564225E+02  0.11015680067E+02 -0.31209219915E+02  0.93445847739E+02  0.41800000000E+01 0. -1.
         -5    1    4    4    0  501  0.51202824203E+02 -0.56750082078E+02 -0.16130214799E+03  0.17854455009E+03  0.41800000000E+01 0. -1.
</event>
<event>
11    1  0.6930157E-009  0.2298557E+03  0.7561462E-02  0.1035213E+00
         22   -1    0    0    0    0  0.00000000000E+00  0.00000000000E+00  0.11306334602E+04  0.11306334602E+04  0.00000000000E+00 0.  1.
         22   -1    0    0    0    0 -0.00000000000E+00 -0.00000000000E+00 -0.35831217082E+03  0.35831217082E+03  0.00000000000E+00 0.  1.
        -24    2    1    2    0    0  0.15668593872E+03 -0.10898545743E+03 -0.24977634096E+03  0.32438434192E+03  0.80054153260E+02 0.  0.
         25    2    1    2    0    0 -0.15554375567E+03  0.13305715612E+03  0.13722372189E+03  0.27635664292E+03  0.12507828554E+03 0.  0.
         24    2    1    2    0    0 -0.11421830463E+01 -0.24071698687E+02  0.88487390843E+03  0.88820464617E+03  0.72971969945E+02 0.  0.
        -13    1    5    5    0    0 -0.31275504662E+02 -0.31012999772E+02  0.61235558548E+03  0.61393755905E+03  0.00000000000E+00 0.  1.
         14    1    5    5    0    0  0.30133321616E+02  0.69413010848E+01  0.27251832296E+03  0.27426708712E+03  0.00000000000E+00 0. -1.
         11    1    3    3    0    0  0.50148257677E+02  0.54869191806E+01 -0.66228739089E+02  0.83253828209E+02  0.00000000000E+00 0. -1.
        -12    1    3    3    0    0  0.10653768104E+03 -0.11447237661E+03 -0.18354760187E+03  0.24113051371E+03  0.00000000000E+00 0.  1.
          5    1    4    4  501    0 -0.14835161263E+03  0.52896184269E+02  0.74760183400E+02  0.17439255919E+03  0.41800000000E+01 0.  1.
         -5    1    4    4    0  501 -0.71921430423E+01  0.80160971846E+02  0.62463538493E+02  0.10196408373E+03  0.41800000000E+01 0.  1.
</event>
<event>
11    1  0.6930157E-009  0.2932625E+03  0.7561462E-02  0.1003084E+00
         22   -1    0    0    0    0  0.00000000000E+00  0.00000000000E+00  0.10172600367E+03  0.10172600367E+03  0.00000000000E+00 0. -1.
         22   -1    0    0    0    0 -0.00000000000E+00 -0.00000000000E+00 -0.13765589661E+04  0.13765589661E+04  0.00000000000E+00 0.  1.
         24    2    1    2    0    0  0.67957788534E+02 -0.35844580510E+02 -0.35628329799E+03  0.37305652063E+03  0.79563083058E+02 0.  0.
         25    2    1    2    0    0 -0.76130136202E+02 -0.23892897864E+03 -0.66932686940E+03  0.72561871419E+03  0.12506480644E+03 0.  0.
        -24    2    1    2    0    0  0.81723476681E+01  0.27477355915E+03 -0.24922279503E+03  0.37960973494E+03  0.80151439322E+02 0.  0.
        -11    1    3    3    0    0 -0.10803037964E+02 -0.26887692555E+01 -0.14091331898E+03  0.14135239148E+03  0.00000000000E+00 0.  1.
         12    1    3    3    0    0  0.78760826498E+02 -0.33155811254E+02 -0.21536997901E+03  0.23170412916E+03  0.00000000000E+00 0. -1.
         11    1    5    5    0    0 -0.48517701228E+01  0.17539214460E+03 -0.10664676652E+03  0.20532773040E+03  0.00000000000E+00 0. -1.
        -12    1    5    5    0    0  0.13024117791E+02  0.99381414547E+02 -0.14257602851E+03  0.17428200454E+03  0.00000000000E+00 0.  1.
          5    1    4    4  501    0 -0.88530012438E+02 -0.14114165077E+03 -0.29831325383E+03  0.34171157209E+03  0.41800000000E+01 0.  1.
         -5    1    4    4    0  501  0.12399876236E+02 -0.97787327868E+02 -0.37101361557E+03  0.38390714210E+03  0.41800000000E+01 0.  1.
</event>
<event>
11    1  0.6930157E-009  0.1290685E+03  0.7561462E-02  0.1120419E+00
         22   -1    0    0    0    0  0.00000000000E+00  0.00000000000E+00  0.23639061780E+03  0.23639061780E+03  0.00000000000E+00 0. -1.
         22   -1    0    0    0    0 -0.00000000000E+00 -0.00000000000E+00 -0.19923823515E+03  0.19923823515E+03  0.00000000000E+00 0. -1.
        -24    2    1    2    0    0 -0.15397630745E+02 -0.10536866124E+02 -0.40843781403E+02  0.88231680798E+02  0.75950657909E+02 0.  0.
         25    2    1    2    0    0 -0.14885929342E+02  0.22548584103E+02 -0.91268754141E+02  0.15718787951E+03  0.12509202390E+03 0.  0.
         24    2    1    2    0    0  0.30283560088E+02 -0.12011717980E+02  0.16926491820E+03  0.19020929265E+03  0.80421309964E+02 0.  0.
        -13    1    5    5    0    0 -0.20317545859E+02  0.14435336934E+02  0.83794739743E+02  0.87422766090E+02  0.00000000000E+00 0.  1.
         14    1    5    5    0    0  0.50601105947E+02 -0.26447054914E+02  0.85470178456E+02  0.10278652656E+03  0.00000000000E+00 0. -1.
         13    1    3    3    0    0  0.26613558916E+02 -0.19706143057E+02 -0.27967312581E+02  0.43344943942E+02  0.00000000000E+00 0. -1.
        -14    1    3    3    0    0 -0.42011189661E+02  0.91692769329E+01 -0.12876468822E+02  0.44886736856E+02  0.00000000000E+00 0.  1.
          5    1    4    4  501    0  0.45155160337E+02  0.30759074039E+02 -0.77480211858E+02  0.94898707949E+02  0.41800000000E+01 0. -1.
         -5    1    4    4    0  501 -0.60041089680E+02 -0.82104899360E+01 -0.13788542283E+02  0.62289171556E+02  0.41800000000E+01 0. -1.
</event>
<event>
11    1  0.6930157E-009  0.1307508E+03  0.7561462E-02  0.1118350E+00
         22   -1    0    0    0    0  0.00000000000E+00  0.00000000000E+00  0.94090554957E+02  0.94090554957E+02  0.00000000000E+00 0. -1.
         22   -1    0    0    0    0 -0.00000000000E+00 -0.00000000000E+00 -0.66360370699E+03  0.66360370699E+03  0.00000000000E+00 0.  1.
        -24    2    1    2    0    0  0.50566858886E+01 -0.36889348172E+02 -0.43606112425E+03  0.44501973412E+03  0.80665144868E+02 0.  0.
         25    2    1    2    0    0  0.64839518052E+01  0.43074973124E+02 -0.17695856612E+03  0.22104060267E+03  0.12508844457E+03 0.  0.
         24    2    1    2    0    0 -0.11540637694E+02 -0.61856249515E+01  0.43506538335E+02  0.91633925156E+02  0.79577063825E+02 0.  0.
        -11    1    5    5    0    0 -0.35933034126E+02 -0.85846025737E+01 -0.50054143288E+01  0.37281798715E+02  0.00000000000E+00 0.  1.
         12    1    5    5    0    0  0.24392396432E+02  0.23989776222E+01  0.48511952664E+02  0.54352126441E+02  0.00000000000E+00 0. -1.
         11    1    3    3    0    0  0.24104726700E+02 -0.49239897496E+02 -0.18548625797E+03  0.19341860626E+03  0.00000000000E+00 0. -1.
        -12    1    3    3    0    0 -0.19048040811E+02  0.12350549324E+02 -0.25057486628E+03  0.25160112786E+03  0.00000000000E+00 0.  1.
          5    1    4    4  501    0  0.41731323620E+02  0.72255224388E+02 -0.90746694755E+02  0.12334810834E+03  0.41800000000E+01 0.  1.
         -5    1    4    4    0  501 -0.35247371815E+02 -0.29180251264E+02 -0.86211871365E+02  0.97692494328E+02  0.41800000000E+01 0.  1.
</event>
<event>
11    1  0.6930157E-009  0.1389302E+03  0.7561462E-02  0.1108759E+00
         22   -1    0    0    0    0  0.00000000000E+00  0.00000000000E+00  0.13942203314E+04  0.13942203314E+04  0.00000000000E+00 0.  1.
         22   -1    0    0    0    0 -0.00000000000E+00 -0.00000000000E+00 -0.12194719723E+03  0.12194719723E+03  0.00000000000E+00 0.  1.
         24    2    1    2    0    0  0.38574938603E+00 -0.61707967485E+02 -0.89480584853E+02  0.13458107422E+03  0.79355330114E+02 0.  0.
         25    2    1    2    0    0 -0.12441120432E+02  0.30501735705E+02  0.53056614342E+03  0.54610605109E+03  0.12508496764E+03 0.  0.
        -24    2    1    2    0    0  0.12055371045E+02  0.31206231781E+02  0.83118757560E+03  0.83548040332E+03  0.77688851373E+02 0.  0.
        -11    1    3    3    0    0 -0.32879231782E+02 -0.58258731060E+02 -0.55749726243E+02  0.87081316041E+02  0.00000000000E+00 0.  1.
         12    1    3    3    0    0  0.33264981168E+02 -0.34492364253E+01 -0.33730858611E+02  0.47499758174E+02  0.00000000000E+00 0. -1.
         13    1    5    5    0    0 -0.12015265662E+02 -0.21387127584E+02  0.16893287083E+03  0.17070468852E+03  0.00000000000E+00 0. -1.
        -14    1    5    5    0    0  0.24070636708E+02  0.52593359365E+02  0.66225470476E+03  0.66477571480E+03  0.00000000000E+00 0.  1.
          5    1    4    4  501    0  0.40288177182E+02 -0.15991436881E+01  0.39515381466E+03  0.39722752186E+03  0.41800000000E+01 0.  1.
         -5    1    4    4    0  501 -0.52729297613E+02  0.32100879393E+02  0.13541232877E+03  0.14887852923E+03  0.41800000000E+01 0.  1.
</event>
<event>
11    1  0.6930157E-009  0.1463170E+03  0.7561462E-02  0.1100703E+00
         22   -1    0    0    0    0  0.00000000000E+00  0.00000000000E+00  0.18740795717E+03  0.18740795717E+03  0.00000000000E+00 0.  1.
         22   -1    0    0    0    0 -0.00000000000E+00 -0.00000000000E+00 -0.86669363970E+03  0.86669363970E+03  0.00000000000E+00 0.  1.
         24    2    1    2    0    0 -0.48096027902E+02 -0.64388442537E+02 -0.50571780382E+03  0.51819683827E+03  0.79488154213E+02 0.  0.
         25    2    1    2    0    0 -0.20473779571E+02  0.98815502164E+02 -0.30889384423E+03  0.34820274617E+03  0.12508423689E+03 0.  0.
        -24    2    1    2    0    0  0.68569807473E+02 -0.34427059627E+02  0.13532596552E+03  0.18770201243E+03  0.10503279296E+03 0.  0.
        -13    1    3    3    0    0 -0.45934733452E+02 -0.58684524412E+02 -0.21747764437E+03  0.22989214632E+03  0.00000000000E+00 0.  1.
         14    1    3    3    0    0 -0.21612944498E+01 -0.57039181253E+01 -0.28824015945E+03  0.28830469194E+03  0.00000000000E+00 0. -1.
         13    1    5    5    0    0  0.30165970415E+02  0.18958254461E+02 -0.17450761875E+01  0.35671367708E+02  0.00000000000E+00 0. -1.
        -14    1    5    5    0    0  0.38403837058E+02 -0.53385314088E+02  0.13707104171E+03  0.15203064472E+03  0.00000000000E+00 0.  1.
          5    1    4    4  501    0  0.16307610265E+02 -0.14472904784E+02 -0.64436271263E+01  0.23117003612E+02  0.41800000000E+01 0.  1.
         -5    1    4    4    0  501 -0.36781389836E+02  0.11328840695E+03 -0.30245021710E+03  0.32508574255E+03  0.41800000000E+01 0.  1.
</event>
<event>
11    1  0.6930157E-009  0.1299129E+03  0.7561462E-02  0.1119376E+00
         22   -1    0    0    0    0  0.00000000000E+00  0.00000000000E+00  0.15559762458E+04  0.15559762458E+04  0.00000000000E+00 0.  1.
         22   -1    0    0    0    0 -0.00000000000E+00 -0.00000000000E+00 -0.10944633862E+03  0.10944633862E+03  0.00000000000E+00 0. -1.
         24    2    1    2    0    0 -0.19667424947E+02 -0.21828871051E+02 -0.81319380665E+02  0.11822306802E+03  0.80625956888E+02 0.  0.
         25    2    1    2    0    0 -0.15836989924E+02  0.32872294316E+02  0.54492171366E+03  0.56028360965E+03  0.12508657499E+03 0.  0.
        -24    2    1    2    0    0  0.35504414871E+02 -0.11043423265E+02  0.98292757421E+03  0.98691590678E+03  0.80460364462E+02 0.  0.
        -11    1    3    3    0    0 -0.12914833876E+02 -0.48882908354E+02 -0.27368335554E+02  0.57492238208E+02  0.00000000000E+00 0.  1.
         12    1    3    3    0    0 -0.67525910716E+01  0.27054037303E+02 -0.53951045111E+02  0.60730829808E+02  0.00000000000E+00 0. -1.
         13    1    5    5    0    0  0.22864711968E+02 -0.25572065704E+01  0.66602493477E+02  0.70464363307E+02  0.00000000000E+00 0. -1.
        -14    1    5    5    0    0  0.12639702903E+02 -0.84862166950E+01  0.91632508073E+03  0.91645154348E+03  0.00000000000E+00 0.  1.
          5    1    4    4  501    0 -0.46461430708E+02 -0.19757014273E+02  0.39767118233E+03  0.40088507807E+03  0.41800000000E+01 0.  1.
         -5    1    4    4    0  501  0.30624440784E+02  0.52629308589E+02  0.14725053132E+03  0.15939853158E+03  0.41800000000E+01 0.  1.
</event>
<event>
11    1  0.6930157E-009  0.1577374E+03  0.7561462E-02  0.1089225E+00
         22   -1    0    0    0    0  0.00000000000E+00  0.00000000000E+00  0.28531814253E+03  0.28531814253E+03  0.00000000000E+00 0. -1.
         22   -1    0    0    0    0 -0.00000000000E+00 -0.00000000000E+00 -0.60239858316E+03  0.60239858316E+03  0.00000000000E+00 0.  1.
        -24    2    1    2    0    0  0.14032437611E+02 -0.15496972919E+01 -0.22453360565E+03  0.23900108921E+03  0.80665170384E+02 0.  0.
         25    2    1    2    0    0 -0.10951009295E+03 -0.30301221087E+01 -0.33649142465E+03  0.37532126764E+03  0.12505172125E+03 0.  0.
         24    2    1    2    0    0  0.95477655341E+02  0.45798194005E+01  0.24394458966E+03  0.27339436884E+03  0.78093281855E+02 0.  0.
        -13    1    5    5    0    0  0.55029633091E+02 -0.31639904967E+02  0.17143788872E+03  0.18281218175E+03  0.00000000000E+00 0.  1.
         14    1    5    5    0    0  0.40448022250E+02  0.36219724368E+02  0.72506700940E+02  0.90582187092E+02  0.00000000000E+00 0. -1.
         13    1    3    3    0    0  0.45638428341E+02  0.56825846569E+01 -0.96099639091E+02  0.10653777989E+03  0.00000000000E+00 0. -1.
        -14    1    3    3    0    0 -0.31605990730E+02 -0.72322819488E+01 -0.12843396656E+03  0.13246330933E+03  0.00000000000E+00 0.  1.
          5    1    4    4  501    0 -0.27567059430E+02  0.38269404058E+02 -0.31681099845E+02  0.56970646301E+02  0.41800000000E+01 0. -1.
         -5    1    4    4    0  501 -0.81943033522E+02 -0.41299526167E+02 -0.30481032480E+03  0.31835062134E+03  0.41800000000E+01 0. -1.
</event>
<event>
11    1  0.6930157E-009  0.4092232E+03  0.7561462E-02  0.9622930E-01
         22   -1    0    0    0    0  0.00000000000E+00  0.00000000000E+00  0.20446271886E+04  0.20446271886E+04  0.00000000000E+00 0. -1.
         22   -1    0    0    0    0 -0.00000000000E+00 -0.00000000000E+00 -0.72752161422E+03  0.72752161422E+03  0.00000000000E+00 0.  1.
         24    2    1    2    0    0 -0.28856259727E+03  0.25821943355E+03 -0.53746964709E+03  0.66731329705E+03  0.80546672650E+02 0.  0.
         25    2    1    2    0    0  0.26502103043E+03 -0.30762915767E+03  0.24115882552E+03  0.48854557340E+03  0.12508937981E+03 0.  0.
        -24    2    1    2    0    0  0.23541566841E+02  0.49409724118E+02  0.16134163960E+04  0.16162899324E+04  0.79278954014E+02 0.  0.
        -11    1    3    3    0    0 -0.19815441636E+03  0.13076225094E+03 -0.35507566613E+03  0.42713307958E+03  0.00000000000E+00 0.  1.
         12    1    3    3    0    0 -0.90408180905E+02  0.12745718261E+03 -0.18239398095E+03  0.24018021747E+03  0.00000000000E+00 0. -1.
         11    1    5    5    0    0  0.26758895171E+02  0.34967585144E+02  0.15659934017E+04  0.15666123019E+04  0.00000000000E+00 0. -1.
        -12    1    5    5    0    0 -0.32173283302E+01  0.14442138974E+02  0.47422994309E+02  0.49677630468E+02  0.00000000000E+00 0.  1.
          5    1    4    4  501    0  0.15076223817E+03 -0.11689880335E+03  0.55142507018E+02  0.19862716623E+03  0.41800000000E+01 0.  1.
         -5    1    4    4    0  501  0.11425879226E+03 -0.19073035432E+03  0.18601631850E+03  0.28991840717E+03  0.41800000000E+01 0.  1.
</event>
<event>
11    1  0.6930157E-009  0.1678179E+03  0.7561462E-02  0.1079946E+00
         22   -1    0    0    0    0  0.00000000000E+00  0.00000000000E+00  0.21506399846E+04  0.21506399846E+04  0.00000000000E+00 0. -1.
         22   -1    0    0    0    0 -0.00000000000E+00 -0.00000000000E+00 -0.83136936638E+02  0.83136936638E+02  0.00000000000E+00 0.  1.
         24    2    1    2    0    0  0.10852166352E+03  0.67132490505E+00  0.31203718618E+02  0.13951351314E+03  0.81932570824E+02 0.  0.
         25    2    1    2    0    0 -0.12251647774E+03  0.14051281007E+02  0.24732691513E+03  0.30335875437E+03  0.12509278594E+03 0.  0.
        -24    2    1    2    0    0  0.13994814219E+02 -0.14722605912E+02  0.17889724143E+04  0.17909046538E+04  0.80650914198E+02 0.  0.
        -11    1    3    3    0    0  0.76723823459E+02 -0.53634611475E+01 -0.19514599254E+02  0.79348165610E+02  0.00000000000E+00 0.  1.
         12    1    3    3    0    0  0.31797840063E+02  0.60347860526E+01  0.50718317872E+02  0.60165347528E+02  0.00000000000E+00 0. -1.
         13    1    5    5    0    0 -0.92931255979E+01 -0.36984966494E+02  0.47192472231E+03  0.47346298003E+03  0.00000000000E+00 0. -1.
        -14    1    5    5    0    0  0.23287939817E+02  0.22262360582E+02  0.13170476920E+04  0.13174416737E+04  0.00000000000E+00 0.  1.
          5    1    4    4  501    0 -0.46736295766E+02 -0.53483077304E+02  0.12969891653E+03  0.14793242460E+03  0.41800000000E+01 0. -1.
         -5    1    4    4    0  501 -0.75780181975E+02  0.67534358310E+02  0.11762799860E+03  0.15542632977E+03  0.41800000000E+01 0. -1.
</event>
<event>
11    1  0.6930157E-009  0.1420878E+03  0.7561462E-02  0.1105249E+00
         22   -1    0    0    0    0  0.00000000000E+00  0.00000000000E+00  0.14173439650E+04  0.14173439650E+04  0.00000000000E+00 0. -1.
         22   -1    0    0    0    0 -0.00000000000E+00 -0.00000000000E+00 -0.16977500737E+03  0.16977500737E+03  0.00000000000E+00 0.  1.
        -24    2    1    2    0    0 -0.36951767998E+02  0.52220447973E+02 -0.11444335206E+03  0.15464479329E+03  0.82008066172E+02 0.  0.
         25    2    1    2    0    0  0.72229898861E+02 -0.71160384210E+02  0.15827214478E+03  0.22578456025E+03  0.12509051628E+03 0.  0.
         24    2    1    2    0    0 -0.35278130862E+02  0.18939936237E+02  0.12037401649E+04  0.12066896189E+04  0.74203664896E+02 0.  0.
        -11    1    5    5    0    0 -0.12674385323E+02  0.58702357827E+01  0.35375221153E+02  0.38032959168E+02  0.00000000000E+00 0.  1.
         12    1    5    5    0    0 -0.22603745539E+02  0.13069700455E+02  0.11683649438E+04  0.11686566597E+04  0.00000000000E+00 0. -1.
         11    1    3    3    0    0  0.62269806185E+01  0.38031627384E+01  0.11127215710E+02  0.13306173902E+02  0.00000000000E+00 0. -1.
        -12    1    3    3    0    0 -0.43178748617E+02  0.48417285235E+02 -0.12557056777E+03  0.14133861939E+03  0.00000000000E+00 0.  1.
          5    1    4    4  501    0  0.55866116870E+02  0.16318001483E+02  0.10984169573E+03  0.12437833697E+03  0.41800000000E+01 0. -1.
         -5    1    4    4    0  501  0.16363781991E+02 -0.87478385693E+02  0.48430449051E+02  0.10140622328E+03  0.41800000000E+01 0. -1.
</event>
<event>
11    1  0.6930157E-009  0.1355539E+03  0.7561462E-02  0.1112627E+00
         22   -1    0    0    0    0  0.00000000000E+00  0.00000000000E+00  0.11799651029E+04  0.11799651029E+04  0.00000000000E+00 0. -1.
         22   -1    0    0    0    0 -0.00000000000E+00 -0.00000000000E+00 -0.14898837853E+03  0.14898837853E+03  0.00000000000E+00 0.  1.
        -24    2    1    2    0    0 -0.30846186058E+02 -0.75989051398E+01 -0.90049768430E+02  0.12888853940E+03  0.86568263467E+02 0.  0.
         25    2    1    2    0    0  0.50900913309E+02 -0.40297066862E+02  0.96020799038E+02  0.17053127279E+03  0.12508462967E+03 0.  0.
         24    2    1    2    0    0 -0.20054727251E+02  0.47895972002E+02  0.10250056938E+04  0.10295336693E+04  0.81281533252E+02 0.  0.
        -13    1    5    5    0    0 -0.18201762322E+01 -0.12357167152E+02  0.29445495091E+02  0.31985149722E+02  0.00000000000E+00 0.  1.
         14    1    5    5    0    0 -0.18234551019E+02  0.60253139154E+02  0.99556019869E+03  0.99754851954E+03  0.00000000000E+00 0. -1.
         13    1    3    3    0    0 -0.23725943577E+02 -0.94254027891E+01  0.10836920765E+02  0.27734409459E+02  0.00000000000E+00 0. -1.
        -14    1    3    3    0    0 -0.71202424806E+01  0.18264976493E+01 -0.10088668919E+03  0.10115412994E+03  0.00000000000E+00 0.  1.
          5    1    4    4  501    0 -0.25362290550E+02 -0.49126516515E+02  0.70135978630E+02  0.89404632459E+02  0.41800000000E+01 0.  1.
         -5    1    4    4    0  501  0.76263203858E+02  0.88294496532E+01  0.25884820408E+02  0.81126640332E+02  0.41800000000E+01 0.  1.
</event>
<event>
11    1  0.6930157E-009  0.1776174E+03  0.7561462E-02  0.1071587E+00
         22   -1    0    0    0    0  0.00000000000E+00  0.00000000000E+00  0.14262171457E+04  0.14262171457E+04  0.00000000000E+00 0. -1.
         22   -1    0    0    0    0 -0.00000000000E+00 -0.00000000000E+00 -0.92073888330E+03  0.92073888330E+03  0.00000000000E+00 0. -1.
         24    2    1    2    0    0 -0.12431380138E+03 -0.29648395079E+02 -0.83731542969E+03  0.85075443371E+03  0.79705891482E+02 0.  0.
         25    2    1    2    0    0  0.10449191282E+03  0.84695351592E+01  0.13075511687E+02  0.16373418316E+03  0.12509045070E+03 0.  0.
        -24    2    1    2    0    0  0.19821888556E+02  0.21178859920E+02  0.13297181804E+04  0.13324674121E+04  0.80483002718E+02 0.  0.
        -11    1    3    3    0    0 -0.16510064437E+02  0.23695569897E+02 -0.21400679684E+03  0.21594668637E+03  0.00000000000E+00 0.  1.
         12    1    3    3    0    0 -0.10780373694E+03 -0.53343964976E+02 -0.62330863284E+03  0.63480774733E+03  0.00000000000E+00 0. -1.
         13    1    5    5    0    0  0.89232778066E+01 -0.99712121181E+01  0.11270855446E+04  0.11271649723E+04  0.00000000000E+00 0. -1.
        -14    1    5    5    0    0  0.10898610750E+02  0.31150072038E+02  0.20263263582E+03  0.20530243983E+03  0.00000000000E+00 0.  1.
          5    1    4    4  501    0  0.91190399200E+02 -0.49260720077E+02  0.10954845500E+02  0.10430622459E+03  0.41800000000E+01 0. -1.
         -5    1    4    4    0  501  0.13301513625E+02  0.57730255236E+02  0.21206661871E+01  0.59427958567E+02  0.41800000000E+01 0. -1.
</event>
<event>
11    1  0.6930157E-009  0.1449114E+03  0.7561462E-02  0.1102195E+00
         22   -1    0    0    0    0  0.00000000000E+00  0.00000000000E+00  0.49576856910E+03  0.49576856910E+03  0.00000000000E+00 0.  1.
         22   -1    0    0    0    0 -0.00000000000E+00 -0.00000000000E+00 -0.37810449217E+04  0.37810449217E+04  0.00000000000E+00 0. -1.
        -24    2    1    2    0    0 -0.21982147660E+02 -0.23013287518E+02 -0.35469099790E+04  0.35479418018E+04  0.79421683755E+02 0.  0.
         25    2    1    2    0    0 -0.50387702649E+02  0.36463141665E+02 -0.20589610749E+03  0.24881854866E+03  0.12509589042E+03 0.  0.
         24    2    1    2    0    0  0.72369850309E+02 -0.13449854147E+02  0.46752973389E+03  0.48005314031E+03  0.80303621579E+02 0.  0.
        -13    1    5    5    0    0  0.68053732884E+02  0.42107181297E+01  0.44880376710E+03  0.45395359022E+03  0.00000000000E+00 0.  1.
         14    1    5    5    0    0  0.43161174253E+01 -0.17660572277E+02  0.18725966785E+02  0.26099550089E+02  0.00000000000E+00 0. -1.
         13    1    3    3    0    0  0.23295464808E+02 -0.27070263213E+02 -0.10246691059E+04  0.10252913022E+04  0.00000000000E+00 0. -1.
        -14    1    3    3    0    0 -0.45277612468E+02  0.40569756951E+01 -0.25222408731E+04  0.25226504996E+04  0.00000000000E+00 0.  1.
          5    1    4    4  501    0  0.75783490438E+01 -0.34753054669E+02 -0.11129077393E+03  0.11691156891E+03  0.41800000000E+01 0.  1.
         -5    1    4    4    0  501 -0.57966051693E+02  0.71216196335E+02 -0.94605333556E+02  0.13190697975E+03  0.41800000000E+01 0.  1.
</event>
<event>
11    1  0.6930157E-009  0.2570373E+03  0.7561462E-02  0.1020216E+00
         22   -1    0    0    0    0  0.00000000000E+00  0.00000000000E+00  0.29956578548E+04  0.29956578548E+04  0.00000000000E+00 0. -1.
         22   -1    0    0    0    0 -0.00000000000E+00 -0.00000000000E+00 -0.16852525834E+03  0.16852525834E+03  0.00000000000E+00 0. -1.
        -24    2    1    2    0    0  0.63207027399E+01 -0.10043730306E+02 -0.82556960119E+02  0.11545973739E+03  0.79840287403E+02 0.  0.
         25    2    1    2    0    0 -0.15912968101E+02  0.23359228922E+03  0.21027447587E+03  0.33864682247E+03  0.12509090707E+03 0.  0.
         24    2    1    2    0    0  0.95922653613E+01 -0.22354855891E+03  0.26994150807E+04  0.27100765533E+04  0.87219131607E+02 0.  0.
        -11    1    5    5    0    0  0.76690849011E+01 -0.10226079600E+03  0.76222994793E+03  0.76909724923E+03  0.00000000000E+00 0.  1.
         12    1    5    5    0    0  0.19231804602E+01 -0.12128776291E+03  0.19371851328E+04  0.19409793040E+04  0.00000000000E+00 0. -1.
         13    1    3    3    0    0 -0.66289017175E+01  0.74927347873E+01 -0.91391970742E+02  0.91937890604E+02  0.00000000000E+00 0. -1.
        -14    1    3    3    0    0  0.12949604457E+02 -0.17536465094E+02  0.88350106225E+01  0.23521846787E+02  0.00000000000E+00 0.  1.
          5    1    4    4  501    0 -0.13902734088E+02  0.17004974976E+03  0.69782431477E+02  0.18438346876E+03  0.41800000000E+01 0.  1.
         -5    1    4    4    0  501 -0.20102340134E+01  0.63542539459E+02  0.14049204439E+03  0.15426335371E+03  0.41800000000E+01 0.  1.
</event>
<event>
11    1  0.6930157E-009  0.1359646E+03  0.7561462E-02  0.1112150E+00
         22   -1    0    0    0    0  0.00000000000E+00  0.00000000000E+00  0.39538073181E+03  0.39538073181E+03  0.00000000000E+00 0. -1.
         22   -1    0    0    0    0 -0.00000000000E+00 -0.00000000000E+00 -0.74963310672E+03  0.74963310672E+03  0.00000000000E+00 0.  1.
        -24    2    1    2    0    0 -0.11832915491E+02  0.51736584267E+02 -0.67577880727E+03  0.68247824354E+03  0.79264522389E+02 0.  0.
         25    2    1    2    0    0  0.45715714655E+01 -0.58203395347E+02  0.77854866602E+01  0.13826365889E+03  0.12509073136E+03 0.  0.
         24    2    1    2    0    0  0.72613440258E+01  0.64668110808E+01  0.31374094570E+03  0.32427193610E+03  0.81390176115E+02 0.  0.
        -13    1    5    5    0    0  0.35301041735E+02  0.17823301870E+02  0.87549141977E+02  0.96066049664E+02  0.00000000000E+00 0.  1.
         14    1    5    5    0    0 -0.28039697709E+02 -0.11356490789E+02  0.22619180372E+03  0.22820588643E+03  0.00000000000E+00 0. -1.
         11    1    3    3    0    0  0.68470807945E+01  0.51382763370E+02 -0.20923765239E+03  0.21556313707E+03  0.00000000000E+00 0. -1.
        -12    1    3    3    0    0 -0.18679996286E+02  0.35382089627E+00 -0.46654115488E+03  0.46691510647E+03  0.00000000000E+00 0.  1.
          5    1    4    4  501    0  0.20902238813E+02  0.19434183890E+02 -0.37115452173E+02  0.47006598270E+02  0.41800000000E+01 0. -1.
         -5    1    4    4    0  501 -0.16330667348E+02 -0.77637579237E+02  0.44900938833E+02  0.91257060625E+02  0.41800000000E+01 0. -1.
</event>
<event>
11    1  0.6930157E-009  0.1344423E+03  0.7561462E-02  0.1113928E+00
         22   -1    0    0    0    0  0.00000000000E+00  0.00000000000E+00  0.77763911517E+02  0.77763911517E+02  0.00000000000E+00 0. -1.
         22   -1    0    0    0    0 -0.00000000000E+00 -0.00000000000E+00 -0.10732458031E+04  0.10732458031E+04  0.00000000000E+00 0.  1.
        -24    2    1    2    0    0  0.22549901133E+02  0.11488577806E+02 -0.81382645806E+03  0.81808146302E+03  0.79393266851E+02 0.  0.
         25    2    1    2    0    0  0.28643459617E+02  0.38352249464E+01 -0.19488537109E+03  0.23337306667E+03  0.12509006215E+03 0.  0.
         24    2    1    2    0    0 -0.51193360750E+02 -0.15323802753E+02  0.13229937573E+02  0.99555184940E+02  0.82949529744E+02 0.  0.
        -13    1    5    5    0    0 -0.27209591824E+02 -0.86127553977E+00 -0.34662477538E+02  0.44074834451E+02  0.00000000000E+00 0.  1.
         14    1    5    5    0    0 -0.23983768925E+02 -0.14462527213E+02  0.47892415111E+02  0.55480350489E+02  0.00000000000E+00 0. -1.
         11    1    3    3    0    0  0.17860062395E+02 -0.51100823924E+01 -0.40439910381E+02  0.44502596806E+02  0.00000000000E+00 0. -1.
        -12    1    3    3    0    0  0.46898387379E+01  0.16598660199E+02 -0.77338654768E+03  0.77357886621E+03  0.00000000000E+00 0.  1.
          5    1    4    4  501    0  0.76533311631E+02  0.15219408281E+02 -0.13209990212E+03  0.15348235963E+03  0.41800000000E+01 0.  1.
         -5    1    4    4    0  501 -0.47889852014E+02 -0.11384183335E+02 -0.62785468976E+02  0.79890707036E+02  0.41800000000E+01 0.  1.
</event>
<event>
11    1  0.6930157E-009  0.1307347E+03  0.7561462E-02  0.1118370E+00
         22   -1    0    0    0    0  0.00000000000E+00  0.00000000000E+00  0.19062294340E+04  0.19062294340E+04  0.00000000000E+00 0.  1.
         22   -1    0    0    0    0 -0.00000000000E+00 -0.00000000000E+00 -0.66760746968E+03  0.66760746968E+03  0.00000000000E+00 0. -1.
         24    2    1    2    0    0 -0.36488830519E+02 -0.10724087425E+02 -0.64627117714E+03  0.65258749423E+03  0.82204394147E+02 0.  0.
         25    2    1    2    0    0  0.23272944402E+02  0.45701255712E+02  0.25113562333E+03  0.28521352030E+03  0.12508963244E+03 0.  0.
        -24    2    1    2    0    0  0.13215886117E+02 -0.34977168288E+02  0.16337575182E+04  0.16360358892E+04  0.77792934157E+02 0.  0.
        -11    1    3    3    0    0 -0.26927619418E+02  0.91544150406E+01 -0.65631496858E+02  0.71528968831E+02  0.00000000000E+00 0.  1.
         12    1    3    3    0    0 -0.95612111004E+01 -0.19878502465E+02 -0.58063968028E+03  0.58105852540E+03  0.00000000000E+00 0. -1.
         11    1    5    5    0    0  0.24530233789E+02 -0.39280126943E+02  0.48307993263E+03  0.48529463427E+03  0.00000000000E+00 0. -1.
        -12    1    5    5    0    0 -0.11314347672E+02  0.43029586557E+01  0.11506775855E+04  0.11507412549E+04  0.00000000000E+00 0.  1.
          5    1    4    4  501    0  0.47413338616E+02  0.19593295784E+02  0.26785672272E+02  0.58024706440E+02  0.41800000000E+01 0.  1.
         -5    1    4    4    0  501 -0.24140394214E+02  0.26107959928E+02  0.22434995105E+03  0.22718881386E+03  0.41800000000E+01 0.  1.
</event>
<event>
11    1  0.6930157E-009  0.1697766E+03  0.7561462E-02  0.1078226E+00
         22   -1    0    0    0    0  0.00000000000E+00  0.00000000000E+00  0.15340731912E+04  0.15340731912E+04  0.00000000000E+00 0.  1.
         22   -1    0    0    0    0 -0.00000000000E+00 -0.00000000000E+00 -0.17416847590E+04  0.17416847590E+04  0.00000000000E+00 0.  1.
         24    2    1    2    0    0 -0.95829084406E+02  0.70204789993E+02 -0.14382901334E+04  0.14457401676E+04  0.85873154503E+02 0.  0.
         25    2    1    2    0    0  0.12134171212E+03  0.26904920895E+02 -0.27068884990E+03  0.32305595583E+03  0.12508001947E+03 0.  0.
        -24    2    1    2    0    0 -0.25512627714E+02 -0.97109710888E+02  0.15013674154E+04  0.15069618268E+04  0.82150113554E+02 0.  0.
        -11    1    3    3    0    0 -0.10168458860E+03  0.76072881657E+02 -0.14199046811E+04  0.14255722157E+04  0.00000000000E+00 0.  1.
         12    1    3    3    0    0  0.58555041950E+01 -0.58680916635E+01 -0.18385452248E+02  0.20167951892E+02  0.00000000000E+00 0. -1.
         13    1    5    5    0    0  0.10797043336E+02  0.41352391033E+00  0.51629000429E+03  0.51640305545E+03  0.00000000000E+00 0. -1.
        -14    1    5    5    0    0 -0.36309671050E+02 -0.97523234799E+02  0.98507741112E+03  0.99055877131E+03  0.00000000000E+00 0.  1.
          5    1    4    4  501    0  0.91419395730E+02  0.46642148988E+02 -0.83367219706E+02  0.13228968856E+03  0.41800000000E+01 0. -1.
         -5    1    4    4    0  501  0.29922316390E+02 -0.19737228094E+02 -0.18732163019E+03  0.19076626727E+03  0.41800000000E+01 0. -1.
</event>
<event>
11    1  0.6930157E-009  0.1415858E+03  0.7561462E-02  0.1105800E+00
         22   -1    0    0    0    0  0.00000000000E+00  0.00000000000E+00  0.13007112764E+04  0.13007112764E+04  0.00000000000E+00 0.  1.
         22   -1    0    0    0    0 -0.00000000000E+00 -0.00000000000E+00 -0.58153630287E+03  0.58153630287E+03  0.00000000000E+00 0.  1.
        -24    2    1    2    0    0  0.38376671961E+02 -0.70718271526E+01 -0.52994893094E+03  0.53726800795E+03  0.79298570440E+02 0.  0.
         25    2    1    2    0    0 -0.74938190403E+02 -0.47353798018E+02  0.83071607119E+02  0.17437454535E+03  0.12508987005E+03 0.  0.
         24    2    1    2    0    0  0.36561518441E+02  0.54425625170E+02  0.11660522974E+04  0.11706050260E+04  0.79619553961E+02 0.  0.
        -11    1    5    5    0    0  0.43716381488E+02  0.57610992605E+02  0.11537947483E+04  0.11560590251E+04  0.00000000000E+00 0.  1.
         12    1    5    5    0    0 -0.71548630470E+01 -0.31853674342E+01  0.12257549126E+02  0.14546000876E+02  0.00000000000E+00 0. -1.
         13    1    3    3    0    0  0.33071312068E+02  0.23612838335E+02 -0.13226036664E+03  0.13836214222E+03  0.00000000000E+00 0. -1.
        -14    1    3    3    0    0  0.53053598934E+01 -0.30684665488E+02 -0.39768856430E+03  0.39890586573E+03  0.00000000000E+00 0.  1.
          5    1    4    4  501    0 -0.46003330998E+02 -0.27319218950E+02  0.11485160574E+03  0.12677148705E+03  0.41800000000E+01 0.  1.
         -5    1    4    4    0  501 -0.28934859405E+02 -0.20034579068E+02 -0.31779998622E+02  0.47603058301E+02  0.41800000000E+01 0.  1.
</event>
<event>
11    1  0.6930157E-009  0.1436979E+03  0.7561462E-02  0.1103498E+00
         22   -1    0    0    0    0  0.00000000000E+00  0.00000000000E+00  0.11531997405E+04  0.11531997405E+04  0.00000000000E+00 0.  1.
         22   -1    0    0    0    0 -0.00000000000E+00 -0.00000000000E+00 -0.11827139527E+03  0.11827139527E+03  0.00000000000E+00 0. -1.
         24    2    1    2    0    0 -0.22789550567E+02 -0.79593792042E+02 -0.84194265421E+01  0.12486310386E+03  0.93087983191E+02 0.  0.
         25    2    1    2    0    0  0.18743419713E+02  0.48260054896E+02  0.42372904083E+02  0.14185826510E+03  0.12509178908E+03 0.  0.
        -24    2    1    2    0    0  0.40461308538E+01  0.31333737146E+02  0.10009748677E+04  0.10047497668E+04  0.81075482792E+02 0.  0.
        -11    1    3    3    0    0  0.10719126947E+02 -0.19693562709E+02  0.36498697537E+02  0.42835627888E+02  0.00000000000E+00 0.  1.
         12    1    3    3    0    0 -0.33508677514E+02 -0.59900229334E+02 -0.44918124079E+02  0.82027475968E+02  0.00000000000E+00 0. -1.
         11    1    5    5    0    0 -0.99165567839E+01 -0.25963598915E+02  0.28634549905E+03  0.28769113889E+03  0.00000000000E+00 0. -1.
        -12    1    5    5    0    0  0.13962687638E+02  0.57297336061E+02  0.71462936861E+03  0.71705862790E+03  0.00000000000E+00 0.  1.
          5    1    4    4  501    0 -0.71469350640E+01  0.12304511433E+02 -0.43052547183E+02  0.45535413706E+02  0.41800000000E+01 0.  1.
         -5    1    4    4    0  501  0.25890354777E+02  0.35955543463E+02  0.85425451266E+02  0.96322851392E+02  0.41800000000E+01 0.  1.
</event>
<event>
11    1  0.6930157E-009  0.1360434E+03  0.7561462E-02  0.1112059E+00
         22   -1    0    0    0    0  0.00000000000E+00  0.00000000000E+00  0.13931075729E+03  0.13931075729E+03  0.00000000000E+00 0.  1.
         22   -1    0    0    0    0 -0.00000000000E+00 -0.00000000000E+00 -0.11220260241E+04  0.11220260241E+04  0.00000000000E+00 0. -1.
         24    2    1    2    0    0  0.12911085864E+02 -0.39602749621E+02 -0.78135739053E+03  0.78660452837E+03  0.80574427776E+02 0.  0.
         25    2    1    2    0    0 -0.27563131485E-01  0.89329637271E+02 -0.29924570883E+03  0.33641491377E+03  0.12508882882E+03 0.  0.
        -24    2    1    2    0    0 -0.12883522733E+02 -0.49726887650E+02  0.97887832536E+02  0.13831733927E+03  0.83131883598E+02 0.  0.
        -11    1    3    3    0    0  0.24115727956E+01  0.12842485815E+02 -0.23715946664E+02  0.27077504527E+02  0.00000000000E+00 0.  1.
         12    1    3    3    0    0  0.10499513068E+02 -0.52445235436E+02 -0.75764144386E+03  0.75952702385E+03  0.00000000000E+00 0. -1.
         11    1    5    5    0    0 -0.13140859405E+02 -0.71608390147E+02  0.59058362628E+02  0.93746114168E+02  0.00000000000E+00 0. -1.
        -12    1    5    5    0    0  0.25733667276E+00  0.21881502497E+02  0.38829469908E+02  0.44571225101E+02  0.00000000000E+00 0.  1.
          5    1    4    4  501    0 -0.15786833189E+02 -0.20179689922E+02 -0.14047082945E+03  0.14284946732E+03  0.41800000000E+01 0. -1.
         -5    1    4    4    0  501  0.15759270058E+02  0.10950932719E+03 -0.15877487939E+03  0.19356544645E+03  0.41800000000E+01 0. -1.
</event>
<event>
11    1  0.6930157E-009  0.1799340E+03  0.7561462E-02  0.1069696E+00
         22   -1    0    0    0    0  0.00000000000E+00  0.00000000000E+00  0.13503227454E+04  0.13503227454E+04  0.00000000000E+00 0. -1.
         22   -1    0    0    0    0 -0.00000000000E+00 -0.00000000000E+00 -0.14620154768E+04  0.14620154768E+04  0.00000000000E+00 0.  1.
        -24    2    1    2    0    0 -0.83133477811E+02  0.42371466551E+02 -0.13943120605E+04  0.13995043522E+04  0.76156375832E+02 0.  0.
         25    2    1    2    0    0  0.37928724169E+02  0.84197214527E+02  0.40283748535E+02  0.16061703206E+03  0.12508913438E+03 0.  0.
         24    2    1    2    0    0  0.45204753642E+02 -0.12656868108E+03  0.12423355805E+04  0.12522168379E+04  0.81155491396E+02 0.  0.
        -11    1    5    5    0    0  0.36915437070E+02 -0.91145125474E+02  0.53607063260E+03  0.54501551035E+03  0.00000000000E+00 0.  1.
         12    1    5    5    0    0  0.82893165717E+01 -0.35423555605E+02  0.70626494790E+03  0.70720132755E+03  0.00000000000E+00 0. -1.
         13    1    3    3    0    0 -0.43200219633E+01  0.40881869166E+02 -0.41894852741E+03  0.42096063763E+03  0.00000000000E+00 0. -1.
        -14    1    3    3    0    0 -0.78813455848E+02  0.14895973856E+01 -0.97536353307E+03  0.97854371459E+03  0.00000000000E+00 0.  1.
          5    1    4    4  501    0  0.51982462546E+02  0.11069348539E+03  0.44159446470E+02  0.13008748299E+03  0.41800000000E+01 0.  1.
         -5    1    4    4    0  501 -0.14053738376E+02 -0.26496270858E+02 -0.38756979343E+01  0.30529549067E+02  0.41800000000E+01 0.  1.
</event>
<event>
11    1  0.6930157E-009  0.1527446E+03  0.7561462E-02  0.1094107E+00
         22   -1    0    0    0    0  0.00000000000E+00  0.00000000000E+00  0.48322319916E+03  0.48322319916E+03  0.00000000000E+00 0. -1.
         22   -1    0    0    0    0 -0.00000000000E+00 -0.00000000000E+00 -0.21875005309E+03  0.21875005309E+03  0.00000000000E+00 0. -1.
        -24    2    1    2    0    0  0.76919296781E+01 -0.12795330597E+02 -0.15650190510E+03  0.17727385945E+03  0.81916351699E+02 0.  0.
         25    2    1    2    0    0 -0.49394120786E+02  0.86444578953E+02  0.11307792062E+03  0.19582288037E+03  0.12509012729E+03 0.  0.
         24    2    1    2    0    0  0.41702191108E+02 -0.73649248357E+02  0.30789713055E+03  0.32887651244E+03  0.78713613228E+02 0.  0.
        -11    1    5    5    0    0 -0.10058163662E+02 -0.60483944910E+00  0.21645227887E+01  0.10306194540E+02  0.00000000000E+00 0.  1.
         12    1    5    5    0    0  0.51760354770E+02 -0.73044408908E+02  0.30573260776E+03  0.31857031790E+03  0.00000000000E+00 0. -1.
         11    1    3    3    0    0  0.32312483321E+02  0.66179504560E+01 -0.13569105091E+03  0.13964223983E+03  0.00000000000E+00 0. -1.
        -12    1    3    3    0    0 -0.24620553643E+02 -0.19413281053E+02 -0.20810854185E+02  0.37631619615E+02  0.00000000000E+00 0.  1.
          5    1    4    4  501    0 -0.18864384132E+02  0.75877690135E+02  0.15942723025E+00  0.78299340137E+02  0.41800000000E+01 0. -1.
         -5    1    4    4    0  501 -0.30529736654E+02  0.10566888819E+02  0.11291849339E+03  0.11752354024E+03  0.41800000000E+01 0. -1.
</event>
<event>
11    1  0.6930157E-009  0.1348524E+03  0.7561462E-02  0.1113447E+00
         22   -1    0    0    0    0  0.00000000000E+00  0.00000000000E+00  0.26825982861E+03  0.26825982861E+03  0.00000000000E+00 0. -1.
         22   -1    0    0    0    0 -0.00000000000E+00 -0.00000000000E+00 -0.58379224874E+03  0.58379224874E+03  0.00000000000E+00 0.  1.
         24    2    1    2    0    0  0.28398465508E+01 -0.82340891845E+01 -0.50633779054E+03  0.51302911203E+03  0.82128233325E+02 0.  0.
         25    2    1    2    0    0  0.44038336048E+02 -0.12645292081E+02  0.90939293359E+01  0.13352741774E+03  0.12509034049E+03 0.  0.
        -24    2    1    2    0    0 -0.46878182599E+02  0.20879381266E+02  0.18171144107E+03  0.20549554758E+03  0.81091674619E+02 0.  0.
        -13    1    3    3    0    0  0.13252599673E+02 -0.34448576473E+02 -0.43110854466E+03  0.43268569782E+03  0.00000000000E+00 0.  1.
         14    1    3    3    0    0 -0.10412753122E+02  0.26214487289E+02 -0.75229245881E+02  0.80343414212E+02  0.00000000000E+00 0. -1.
         11    1    5    5    0    0 -0.37781223739E+02  0.51533087589E+02  0.12527977724E+03  0.14063464214E+03  0.00000000000E+00 0. -1.
        -12    1    5    5    0    0 -0.90969588603E+01 -0.30653706324E+02  0.56431663836E+02  0.64860905445E+02  0.00000000000E+00 0.  1.
          5    1    4    4  501    0  0.18548901843E+01  0.51283697496E+02  0.21552456452E+02  0.55816117973E+02  0.41800000000E+01 0.  1.
         -5    1    4    4    0  501  0.42183445864E+02 -0.63928989577E+02 -0.12458527116E+02  0.77711299765E+02  0.41800000000E+01 0.  1.
</event>
<event>
11    1  0.6930157E-009  0.1336402E+03  0.7561462E-02  0.1114875E+00
         22   -1    0    0    0    0  0.00000000000E+00  0.00000000000E+00  0.19844489312E+03  0.19844489312E+03  0.00000000000E+00 0.  1.
         22   -1    0    0    0    0 -0.00000000000E+00 -0.00000000000E+00 -0.20162249824E+04  0.20162249824E+04  0.00000000000E+00 0.  1.
        -24    2    1    2    0    0 -0.39662070987E+01  0.19420923816E+02 -0.11020063701E+04  0.11046191529E+04  0.73297544193E+02 0.  0.
         25    2    1    2    0    0  0.49812116507E+02 -0.88797700769E+01 -0.89671173188E+03  0.90680718751E+03  0.12508896020E+03 0.  0.
         24    2    1    2    0    0 -0.45845909409E+02 -0.10541153739E+02  0.18093801273E+03  0.20324353514E+03  0.79727076931E+02 0.  0.
        -13    1    5    5    0    0 -0.63202544130E+02  0.10374382563E+02  0.11015603058E+03  0.12742268429E+03  0.00000000000E+00 0.  1.
         14    1    5    5    0    0  0.17356634721E+02 -0.20915536302E+02  0.70781982142E+02  0.75820850850E+02  0.00000000000E+00 0. -1.
         11    1    3    3    0    0  0.27288479357E+02 -0.54761976352E+00 -0.20038783832E+03  0.20223809418E+03  0.00000000000E+00 0. -1.
        -12    1    3    3    0    0 -0.31254686456E+02  0.19968543579E+02 -0.90161853180E+03  0.90238105867E+03  0.00000000000E+00 0.  1.
          5    1    4    4  501    0 -0.75647437465E+01  0.50996639667E+02 -0.32193062109E+03  0.32605931945E+03  0.41800000000E+01 0.  1.
         -5    1    4    4    0  501  0.57376860254E+02 -0.59876409744E+02 -0.57478111078E+03  0.58074786805E+03  0.41800000000E+01 0.  1.
</event>
<event>
11    1  0.6930157E-009  0.1427615E+03  0.7561462E-02  0.1104513E+00
         22   -1    0    0    0    0  0.00000000000E+00  0.00000000000E+00  0.55312506105E+02  0.55312506105E+02  0.00000000000E+00 0.  1.
         22   -1    0    0    0    0 -0.00000000000E+00 -0.00000000000E+00 -0.16907373940E+04  0.16907373940E+04  0.00000000000E+00 0. -1.
         24    2    1    2    0    0  0.45486650850E+02  0.15674141438E+01 -0.13343349539E+04  0.13375885524E+04  0.81374897892E+02 0.  0.
         25    2    1    2    0    0 -0.81787050336E+02 -0.51525991106E+02 -0.24908674015E+03  0.29501929687E+03  0.12509249397E+03 0.  0.
        -24    2    1    2    0    0  0.36300399486E+02  0.49958576962E+02 -0.52003193807E+02  0.11344205084E+03  0.79694343065E+02 0.  0.
        -11    1    3    3    0    0 -0.18621873596E+02 -0.17956228839E+02 -0.32162502828E+03  0.32266369357E+03  0.00000000000E+00 0.  1.
         12    1    3    3    0    0  0.64108524446E+02  0.19523642983E+02 -0.10127099256E+04  0.10149248588E+04  0.00000000000E+00 0. -1.
         13    1    5    5    0    0 -0.23546755305E+01  0.26615968930E+02  0.16493190384E+02  0.31400312546E+02  0.00000000000E+00 0. -1.
        -14    1    5    5    0    0  0.38655075017E+02  0.23342608032E+02 -0.68496384191E+02  0.82041738289E+02  0.00000000000E+00 0.  1.
          5    1    4    4  501    0 -0.85878808871E+02 -0.17166970913E+02 -0.24464781297E+03  0.25988439640E+03  0.41800000000E+01 0.  1.
         -5    1    4    4    0  501  0.40917585352E+01 -0.34359020193E+02 -0.44389271819E+01  0.35134900471E+02  0.41800000000E+01 0.  1.
</event>
<event>
11    1  0.6930157E-009  0.2052082E+03  0.7561462E-02  0.1050901E+00
         22   -1    0    0    0    0  0.00000000000E+00  0.00000000000E+00  0.79103319242E+03  0.79103319242E+03  0.00000000000E+00 0.  1.
         22   -1    0    0    0    0 -0.00000000000E+00 -0.00000000000E+00 -0.10539343356E+03  0.10539343356E+03  0.00000000000E+00 0. -1.
        -24    2    1    2    0    0 -0.55370739229E+02  0.30760579868E+02  0.10472021039E+02  0.10235925495E+03  0.79722153843E+02 0.  0.
         25    2    1    2    0    0  0.19847158775E+03 -0.60008814267E+02  0.29629037815E+03  0.38266027331E+03  0.12509543417E+03 0.  0.
         24    2    1    2    0    0 -0.14310084852E+03  0.29248234399E+02  0.37887735967E+03  0.41140709772E+03  0.66139506483E+02 0.  0.
        -11    1    5    5    0    0 -0.12924718628E+03  0.40311171679E+02  0.28073230996E+03  0.31167363633E+03  0.00000000000E+00 0.  1.
         12    1    5    5    0    0 -0.13853662239E+02 -0.11062937281E+02  0.98145049709E+02  0.99733461391E+02  0.00000000000E+00 0. -1.
         11    1    3    3    0    0 -0.50838723791E+02  0.52396454308E+02 -0.81438388508E+01  0.73459419899E+02  0.00000000000E+00 0. -1.
        -12    1    3    3    0    0 -0.45320154379E+01 -0.21635874440E+02  0.18615859890E+02  0.28899835054E+02  0.00000000000E+00 0.  1.
          5    1    4    4  501    0  0.84589520252E+02  0.20848008542E+02  0.18318700946E+03  0.20289154549E+03  0.41800000000E+01 0.  1.
         -5    1    4    4    0  501  0.11388206750E+03 -0.80856822809E+02  0.11310336870E+03  0.17976872782E+03  0.41800000000E+01 0.  1.
</event>
<event>
11    1  0.6930157E-009  0.1804596E+03  0.7561462E-02  0.1069272E+00
         22   -1    0    0    0    0  0.00000000000E+00  0.00000000000E+00  0.14445543453E+04  0.14445543453E+04  0.00000000000E+00 0. -1.
         22   -1    0    0    0    0 -0.00000000000E+00 -0.00000000000E+00 -0.46472687786E+02  0.46472687786E+02  0.00000000000E+00 0. -1.
        -24    2    1    2    0    0  0.10556787232E+03 -0.12365829476E+03  0.38999666736E+03  0.42815450301E+03  0.69158718628E+02 0.  0.
         25    2    1    2    0    0 -0.12199215272E+03  0.30138989667E+01  0.38434608460E+03  0.42221130893E+03  0.12509719312E+03 0.  0.
         24    2    1    2    0    0  0.16424280399E+02  0.12064439580E+03  0.62373890555E+03  0.64066122115E+03  0.81066335584E+02 0.  0.
        -13    1    5    5    0    0  0.46172548163E+01 -0.11973314722E+02  0.44212498742E+02  0.46037206175E+02  0.00000000000E+00 0.  1.
         14    1    5    5    0    0  0.11807025582E+02  0.13261771052E+03  0.57952640681E+03  0.59462401498E+03  0.00000000000E+00 0. -1.
         13    1    3    3    0    0  0.78402523099E+02 -0.11772416022E+03  0.36219911937E+03  0.38883690103E+03  0.00000000000E+00 0. -1.
        -14    1    3    3    0    0  0.27165349224E+02 -0.59341345420E+01  0.27797547995E+02  0.39317601984E+02  0.00000000000E+00 0.  1.
          5    1    4    4  501    0 -0.37988421233E+02  0.48629084659E+02  0.68969476498E+02  0.92639997360E+02  0.41800000000E+01 0. -1.
         -5    1    4    4    0  501 -0.84003731488E+02 -0.45615185692E+02  0.31537660811E+03  0.32957131157E+03  0.41800000000E+01 0. -1.
</event>
<event>
11    1  0.6930157E-009  0.1649889E+03  0.7561462E-02  0.1082477E+00
         22   -1    0    0    0    0  0.00000000000E+00  0.00000000000E+00  0.49357198472E+03  0.49357198472E+03  0.00000000000E+00 0.  1.
         22   -1    0    0    0    0 -0.00000000000E+00 -0.00000000000E+00 -0.34198862071E+03  0.34198862071E+03  0.00000000000E+00 0.  1.
        -24    2    1    2    0    0  0.51070662422E+02 -0.99540485782E+02 -0.29403354771E+03  0.32477574467E+03  0.80666202811E+02 0.  0.
         25    2    1    2    0    0  0.98978968235E+01  0.52040550946E+02  0.21419105212E+03  0.25363983352E+03  0.12509664678E+03 0.  0.
         24    2    1    2    0    0 -0.60968559245E+02  0.47499934836E+02  0.23142585961E+03  0.25714502724E+03  0.81192533623E+02 0.  0.
        -13    1    5    5    0    0 -0.34614781576E+00  0.28283829944E+02  0.15574132808E+03  0.15828915353E+03  0.00000000000E+00 0.  1.
         14    1    5    5    0    0 -0.60622411430E+02  0.19216104892E+02  0.75684531531E+02  0.98855873715E+02  0.00000000000E+00 0. -1.
         13    1    3    3    0    0  0.12591530834E+02 -0.35682628809E+02 -0.24398544702E+02  0.45023167715E+02  0.00000000000E+00 0. -1.
        -14    1    3    3    0    0  0.38479131588E+02 -0.63857856973E+02 -0.26963500301E+03  0.27975257696E+03  0.00000000000E+00 0.  1.
          5    1    4    4  501    0 -0.49172602021E+02  0.12269780373E+02  0.37774923887E+02  0.63347530138E+02  0.41800000000E+01 0. -1.
         -5    1    4    4    0  501  0.59070498845E+02  0.39770770573E+02  0.17641612823E+03  0.19029230338E+03  0.41800000000E+01 0. -1.
</event>
<event>
11    1  0.6930157E-009  0.1275919E+03  0.7561462E-02  0.1122264E+00
         22   -1    0    0    0    0  0.00000000000E+00  0.00000000000E+00  0.69340148458E+02  0.69340148458E+02  0.00000000000E+00 0. -1.
         22   -1    0    0    0    0 -0.00000000000E+00 -0.00000000000E+00 -0.71950824492E+03  0.71950824492E+03  0.00000000000E+00 0.  1.
        -24    2    1    2    0    0 -0.17407061480E+02  0.14568606933E+02 -0.48023530867E+03  0.48610921221E+03  0.71839852493E+02 0.  0.
         25    2    1    2    0    0 -0.88925703787E+01 -0.29604587224E+01 -0.17681263554E+03  0.21679287240E+03  0.12509436164E+03 0.  0.
         24    2    1    2    0    0  0.26299631858E+02 -0.11608148210E+02  0.68798477494E+01  0.85946308762E+02  0.80703258571E+02 0.  0.
        -11    1    5    5    0    0  0.84603125441E+01 -0.37775263780E+02 -0.20746899232E+02  0.43920169282E+02  0.00000000000E+00 0.  1.
         12    1    5    5    0    0  0.17839319314E+02  0.26167115570E+02  0.27626746982E+02  0.42026139480E+02  0.00000000000E+00 0. -1.
         11    1    3    3    0    0 -0.19461953168E+02 -0.85999312744E+01 -0.40410818030E+02  0.45670128671E+02  0.00000000000E+00 0. -1.
        -12    1    3    3    0    0  0.20548916883E+01  0.23168538207E+02 -0.43982449064E+03  0.44043908354E+03  0.00000000000E+00 0.  1.
          5    1    4    4  501    0  0.52235459033E+02  0.23481231231E+02 -0.66454373523E+02  0.87826918202E+02  0.41800000000E+01 0. -1.
         -5    1    4    4    0  501 -0.61128029412E+02 -0.26441689953E+02 -0.11035826202E+03  0.12896595420E+03  0.41800000000E+01 0. -1.
</event>
<event>
11    1  0.6930157E-009  0.1330027E+03  0.7561462E-02  0.1115634E+00
         22   -1    0    0    0    0  0.00000000000E+00  0.00000000000E+00  0.13633423190E+03  0.13633423190E+03  0.00000000000E+00 0.  1.
         22   -1    0    0    0    0 -0.00000000000E+00 -0.00000000000E+00 -0.59836102303E+03  0.59836102303E+03  0.00000000000E+00 0. -1.
        -24    2    1    2    0    0  0.33208382290E+02  0.44813790444E+02 -0.32653294642E+03  0.34105347430E+03  0.81133438062E+02 0.  0.
         25    2    1    2    0    0  0.13681813237E+02 -0.31695647572E+02 -0.22743928736E+03  0.26184625283E+03  0.12507207761E+03 0.  0.
         24    2    1    2    0    0 -0.46890195527E+02 -0.13118142872E+02  0.91945442648E+02  0.13179552780E+03  0.80903155788E+02 0.  0.
        -13    1    5    5    0    0 -0.37594109054E+02  0.28642329281E+02  0.67868341922E+02  0.82703155305E+02  0.00000000000E+00 0.  1.
         14    1    5    5    0    0 -0.92960864733E+01 -0.41760472153E+02  0.24077100726E+02  0.49092372499E+02  0.00000000000E+00 0. -1.
         11    1    3    3    0    0 -0.37527745028E+01 -0.13072007081E+02 -0.16456363730E+03  0.16512465414E+03  0.00000000000E+00 0. -1.
        -12    1    3    3    0    0  0.36961156793E+02  0.57885797526E+02 -0.16196930912E+03  0.17592882016E+03  0.00000000000E+00 0.  1.
          5    1    4    4  501    0 -0.30254397689E+02 -0.45760236326E+02 -0.20124868946E+03  0.20863325530E+03  0.41800000000E+01 0. -1.
         -5    1    4    4    0  501  0.43936210925E+02  0.14064588753E+02 -0.26190597897E+02  0.53212997524E+02  0.41800000000E+01 0. -1.
</event>
<event>
11    1  0.6930157E-009  0.1337298E+03  0.7561462E-02  0.1114769E+00
         22   -1    0    0    0    0  0.00000000000E+00  0.00000000000E+00  0.11190099774E+04  0.11190099774E+04  0.00000000000E+00 0.  1.
         22   -1    0    0    0    0 -0.00000000000E+00 -0.00000000000E+00 -0.38078583393E+03  0.38078583393E+03  0.00000000000E+00 0. -1.
         24    2    1    2    0    0 -0.19775187746E+02 -0.41610049989E+02 -0.33158218178E+03  0.34406997679E+03  0.79466668164E+02 0.  0.
         25    2    1    2    0    0  0.19324346817E+01  0.79834898179E+02  0.93879846465E+02  0.17560997592E+03  0.12509233710E+03 0.  0.
        -24    2    1    2    0    0  0.17842753064E+02 -0.38224848190E+02  0.97592647883E+03  0.98011585866E+03  0.80094328406E+02 0.  0.
        -11    1    3    3    0    0 -0.29203477915E+02  0.77821315516E+01 -0.53221547805E+02  0.61204067222E+02  0.00000000000E+00 0.  1.
         12    1    3    3    0    0  0.94282901689E+01 -0.49392181541E+02 -0.27836063397E+03  0.28286590957E+03  0.00000000000E+00 0. -1.
         11    1    5    5    0    0  0.36479719930E+02 -0.44338357765E+02  0.42747082426E+03  0.43130959360E+03  0.00000000000E+00 0. -1.
        -12    1    5    5    0    0 -0.18636966865E+02  0.61135095748E+01  0.54845565457E+03  0.54880626506E+03  0.00000000000E+00 0.  1.
          5    1    4    4  501    0 -0.31647497686E+02  0.72497359008E+02  0.40272365204E+01  0.79316594776E+02  0.41800000000E+01 0. -1.
         -5    1    4    4    0  501  0.33579932368E+02  0.73375391712E+01  0.89852609944E+02  0.96293381147E+02  0.41800000000E+01 0. -1.
</event>
<event>
11    1  0.6930157E-009  0.1476294E+03  0.7561462E-02  0.1099326E+00
         22   -1    0    0    0    0  0.00000000000E+00  0.00000000000E+00  0.46316116352E+03  0.46316116352E+03  0.00000000000E+00 0. -1.
         22   -1    0    0    0    0 -0.00000000000E+00 -0.00000000000E+00 -0.42553072445E+03  0.42553072445E+03  0.00000000000E+00 0. -1.
         24    2    1    2    0    0  0.38013265399E+02 -0.96066362264E+01 -0.31421241431E+03  0.32683215685E+03  0.80947647533E+02 0.  0.
         25    2    1    2    0    0 -0.90734133388E+02  0.64306799683E+02 -0.25462218438E+02  0.16930366774E+03  0.12508940760E+03 0.  0.
        -24    2    1    2    0    0  0.52720867988E+02 -0.54700163456E+02  0.37730507181E+03  0.39255606338E+03  0.77262849284E+02 0.  0.
        -13    1    3    3    0    0  0.49576993483E+02 -0.10873845914E+02 -0.98513706200E+02  0.11081998519E+03  0.00000000000E+00 0.  1.
         14    1    3    3    0    0 -0.11563728083E+02  0.12672096880E+01 -0.21569870811E+03  0.21601217166E+03  0.00000000000E+00 0. -1.
         11    1    5    5    0    0  0.22398719897E+02  0.15006485568E+02  0.16194436246E+03  0.16417330415E+03  0.00000000000E+00 0. -1.
        -12    1    5    5    0    0  0.30322148091E+02 -0.69706649024E+02  0.21536070935E+03  0.22838275924E+03  0.00000000000E+00 0.  1.
          5    1    4    4  501    0 -0.36620344170E+02  0.42499605954E+02 -0.74236696140E+02  0.93144111822E+02  0.41800000000E+01 0.  1.
         -5    1    4    4    0  501 -0.54113789218E+02  0.21807193729E+02  0.48774477702E+02  0.76159555913E+02  0.41800000000E+01 0.  1.
</event>
<event>
11    1  0.6930157E-009  0.1387180E+03  0.7561462E-02  0.1108998E+00
         22   -1    0    0    0    0  0.00000000000E+00  0.00000000000E+00  0.27021999486E+03  0.27021999486E+03  0.00000000000E+00 0. -1.
         22   -1    0    0    0    0 -0.00000000000E+00 -0.00000000000E+00 -0.10954615003E+04  0.10954615003E+04  0.00000000000E+00 0. -1.
         24    2    1    2    0    0 -0.54822160496E+02 -0.25160138743E+02 -0.92052044231E+03  0.92608031248E+03  0.81414732013E+02 0.  0.
         25    2    1    2    0    0  0.70912787427E+02 -0.25174972191E+02 -0.12955172118E+03  0.19517485179E+03  0.12508865521E+03 0.  0.
        -24    2    1    2    0    0 -0.16090626931E+02  0.50335110935E+02  0.22483065803E+03  0.24442633092E+03  0.80017965405E+02 0.  0.
        -11    1    3    3    0    0 -0.40126885492E+02 -0.50468266262E+02 -0.44341963945E+03  0.44808279312E+03  0.00000000000E+00 0.  1.
         12    1    3    3    0    0 -0.14695275004E+02  0.25308127518E+02 -0.47710080286E+03  0.47799751937E+03  0.00000000000E+00 0. -1.
         11    1    5    5    0    0 -0.32665417701E+02  0.62127078747E+02  0.13317199825E+03  0.15053765159E+03  0.00000000000E+00 0. -1.
        -12    1    5    5    0    0  0.16574790770E+02 -0.11791967812E+02  0.91658659773E+02  0.93888679325E+02  0.00000000000E+00 0.  1.
          5    1    4    4  501    0 -0.14529656479E+02 -0.52342716876E+02 -0.63889875986E+02  0.83965823886E+02  0.41800000000E+01 0.  1.
         -5    1    4    4    0  501  0.85442443906E+02  0.27167744685E+02 -0.65661845199E+02  0.11120902790E+03  0.41800000000E+01 0.  1.
</event>
<event>
11    1  0.6930157E-009  0.2565616E+03  0.7561462E-02  0.1020461E+00
         22   -1    0    0    0    0  0.00000000000E+00  0.00000000000E+00  0.11824844021E+04  0.11824844021E+04  0.00000000000E+00 0. -1.
         22   -1    0    0    0    0 -0.00000000000E+00 -0.00000000000E+00 -0.17498947836E+04  0.17498947836E+04  0.00000000000E+00 0. -1.
        -24    2    1    2    0    0  0.10624966390E+02 -0.56093171513E+02 -0.12448961907E+04  0.12487612575E+04  0.79867507029E+02 0.  0.
         25    2    1    2    0    0 -0.16058547420E+03  0.22086928265E+03 -0.44473239521E+03  0.53666338194E+03  0.12509895131E+03 0.  0.
         24    2    1    2    0    0  0.14996050781E+03 -0.16477611114E+03  0.11222182044E+04  0.11469545462E+04  0.80571161504E+02 0.  0.
        -13    1    5    5    0    0  0.51417140530E+02 -0.99163698238E+01  0.20787736836E+03  0.21437130639E+03  0.00000000000E+00 0.  1.
         14    1    5    5    0    0  0.98543367282E+02 -0.15485974131E+03  0.91434083609E+03  0.93258323985E+03  0.00000000000E+00 0. -1.
         11    1    3    3    0    0 -0.10054600546E+02 -0.35465089448E+02 -0.11155167487E+04  0.11161256579E+04  0.00000000000E+00 0. -1.
        -12    1    3    3    0    0  0.20679566936E+02 -0.20628082066E+02 -0.12937944198E+03  0.13263559954E+03  0.00000000000E+00 0.  1.
          5    1    4    4  501    0 -0.72074074697E+02  0.55775768588E+02 -0.61340406671E+02  0.10993510129E+03  0.41800000000E+01 0. -1.
         -5    1    4    4    0  501 -0.88511399505E+02  0.16509351406E+03 -0.38339198854E+03  0.42672828065E+03  0.41800000000E+01 0. -1.
</event>
<event>
11    1  0.6930157E-009  0.1332357E+03  0.7561462E-02  0.1115356E+00
         22   -1    0    0    0    0  0.00000000000E+00  0.00000000000E+00  0.13303586417E+04  0.13303586417E+04  0.00000000000E+00 0. -1.
         22   -1    0    0    0    0 -0.00000000000E+00 -0.00000000000E+00 -0.11213009487E+03  0.11213009487E+03  0.00000000000E+00 0. -1.
         24    2    1    2    0    0  0.16685204602E+02  0.24701106400E+02 -0.69548187350E+02  0.10864826636E+03  0.77967651681E+02 0.  0.
         25    2    1    2    0    0 -0.58231690366E+02 -0.38200827714E+02  0.22400634907E+03  0.26585139652E+03  0.12509151692E+03 0.  0.
        -24    2    1    2    0    0  0.41546485764E+02  0.13499721314E+02  0.10637703851E+04  0.10679890737E+04  0.84171707429E+02 0.  0.
        -11    1    3    3    0    0 -0.17607880816E+01 -0.17818026542E+02 -0.58254789260E+02  0.60944260733E+02  0.00000000000E+00 0.  1.
         12    1    3    3    0    0  0.18445992684E+02  0.42519132941E+02 -0.11293398090E+02  0.47704005624E+02  0.00000000000E+00 0. -1.
         11    1    5    5    0    0  0.49878601422E+02 -0.21360748373E+02  0.46665934292E+03  0.46980325540E+03  0.00000000000E+00 0. -1.
        -12    1    5    5    0    0 -0.83321156582E+01  0.34860469687E+02  0.59711104217E+03  0.59818581827E+03  0.00000000000E+00 0.  1.
          5    1    4    4  501    0 -0.60899426909E+02  0.34359585326E+02  0.10006494583E+03  0.12214658033E+03  0.41800000000E+01 0.  1.
         -5    1    4    4    0  501  0.26677365437E+01 -0.72560413040E+02  0.12394140324E+03  0.14370481619E+03  0.41800000000E+01 0.  1.
</event>
<event>
11    1  0.6930157E-009  0.1462925E+03  0.7561462E-02  0.1100728E+00
         22   -1    0    0    0    0  0.00000000000E+00  0.00000000000E+00  0.34382675413E+03  0.34382675413E+03  0.00000000000E+00 0.  1.
         22   -1    0    0    0    0 -0.00000000000E+00 -0.00000000000E+00 -0.52303650557E+03  0.52303650557E+03  0.00000000000E+00 0.  1.
         24    2    1    2    0    0 -0.42266539110E+02  0.40287746943E+02 -0.13110305285E+03  0.16597697700E+03  0.83371359257E+02 0.  0.
         25    2    1    2    0    0  0.11517273796E+03 -0.55825770149E+02 -0.34263231271E+03  0.38655461128E+03  0.12508512943E+03 0.  0.
        -24    2    1    2    0    0 -0.72906198852E+02  0.15538023205E+02  0.29452561412E+03  0.31433167142E+03  0.80636953620E+02 0.  0.
        -13    1    3    3    0    0 -0.63678048264E+02  0.96610125316E+01 -0.84080631571E+02  0.10591402928E+03  0.00000000000E+00 0.  1.
         14    1    3    3    0    0  0.21411509154E+02  0.30626734412E+02 -0.47022421280E+02  0.60062947713E+02  0.00000000000E+00 0. -1.
         11    1    5    5    0    0  0.13395406486E+02  0.18275539142E+02  0.78007768032E+02  0.81232038748E+02  0.00000000000E+00 0. -1.
        -12    1    5    5    0    0 -0.86301605338E+02 -0.27375159362E+01  0.21651784609E+03  0.23309963267E+03  0.00000000000E+00 0.  1.
          5    1    4    4  501    0  0.14186611803E+03 -0.52552319736E+02 -0.29919588188E+03  0.33529597357E+03  0.41800000000E+01 0.  1.
         -5    1    4    4    0  501 -0.26693380068E+02 -0.32734504127E+01 -0.43436430824E+02  0.51258637709E+02  0.41800000000E+01 0.  1.
</event>
<event>
11    1  0.6930157E-009  0.2115608E+03  0.7561462E-02  0.1046637E+00
         22   -1    0    0    0    0  0.00000000000E+00  0.00000000000E+00  0.61881504255E+03  0.61881504255E+03  0.00000000000E+00 0. -1.
         22   -1    0    0    0    0 -0.00000000000E+00 -0.00000000000E+00 -0.37592303140E+03  0.37592303140E+03  0.00000000000E+00 0.  1.
        -24    2    1    2    0    0 -0.17091417070E+03 -0.37711449178E+02 -0.25539790321E+03  0.31865565320E+03  0.75362651297E+02 0.  0.
         25    2    1    2    0    0  0.16321243967E+03 -0.72562456039E+02  0.73828706762E+02  0.23022119074E+03  0.12509000054E+03 0.  0.
         24    2    1    2    0    0  0.77017310301E+01  0.11027390522E+03  0.42446120760E+03  0.44586123000E+03  0.80032923400E+02 0.  0.
        -13    1    5    5    0    0  0.28680483462E+02  0.98514103716E+02  0.25770442581E+03  0.27737910852E+03  0.00000000000E+00 0.  1.
         14    1    5    5    0    0 -0.20978752432E+02  0.11759801501E+02  0.16675678179E+03  0.16848212148E+03  0.00000000000E+00 0. -1.
         11    1    3    3    0    0 -0.78980166464E+02 -0.55900004711E+02 -0.12501800971E+03  0.15808915198E+03  0.00000000000E+00 0. -1.
        -12    1    3    3    0    0 -0.91934004234E+02  0.18188555533E+02 -0.13037989350E+03  0.16056650123E+03  0.00000000000E+00 0.  1.
          5    1    4    4  501    0 -0.75847444077E+01  0.68935038053E+01 -0.17598586929E+02  0.20790175669E+02  0.41800000000E+01 0.  1.
         -5    1    4    4    0  501  0.17079718408E+03 -0.79455959845E+02  0.91427293691E+02  0.20943101507E+03  0.41800000000E+01 0.  1.
</event>
<event>
11    1  0.6930157E-009  0.1325252E+03  0.7561462E-02  0.1116205E+00
         22   -1    0    0    0    0  0.00000000000E+00  0.00000000000E+00  0.27434205084E+03  0.27434205084E+03  0.00000000000E+00 0.  1.
         22   -1    0    0    0    0 -0.00000000000E+00 -0.00000000000E+00 -0.23759405116E+04  0.23759405116E+04  0.00000000000E+00 0.  1.
        -24    2    1    2    0    0  0.25502652571E+02 -0.72677370213E+01 -0.21298634792E+04  0.21316129366E+04  0.82170955394E+02 0.  0.
         25    2    1    2    0    0  0.64430099736E+01 -0.23817691050E+02 -0.21974203570E+03  0.25404950384E+03  0.12508314581E+03 0.  0.
         24    2    1    2    0    0 -0.31945662545E+02  0.31085428071E+02  0.24800705415E+03  0.26462012205E+03  0.80805203372E+02 0.  0.
        -11    1    5    5    0    0 -0.45214473888E+02  0.51123134133E+02  0.18421225014E+03  0.19644866147E+03  0.00000000000E+00 0.  1.
         12    1    5    5    0    0  0.13268811344E+02 -0.20037706062E+02  0.63794804010E+02  0.68171460578E+02  0.00000000000E+00 0. -1.
         11    1    3    3    0    0  0.14857547214E+02 -0.44769137891E+02 -0.12361784775E+04  0.12370781102E+04  0.00000000000E+00 0. -1.
        -12    1    3    3    0    0  0.10645105357E+02  0.37501400870E+02 -0.89368500169E+03  0.89453482637E+03  0.00000000000E+00 0.  1.
          5    1    4    4  501    0 -0.50771118325E+02  0.17197105964E+02 -0.67736230275E+02  0.86481883660E+02  0.41800000000E+01 0.  1.
         -5    1    4    4    0  501  0.57214128299E+02 -0.41014797014E+02 -0.15200580543E+03  0.16756762018E+03  0.41800000000E+01 0.  1.
</event>
<event>
11    1  0.6930157E-009  0.1968054E+03  0.7561462E-02  0.1056806E+00
         22   -1    0    0    0    0  0.00000000000E+00  0.00000000000E+00  0.48500407776E+03  0.48500407776E+03  0.00000000000E+00 0.  1.
         22   -1    0    0    0    0 -0.00000000000E+00 -0.00000000000E+00 -0.88834631624E+03  0.88834631624E+03  0.00000000000E+00 0. -1.
         24    2    1    2    0    0  0.91028361600E+01 -0.81090832919E+01 -0.75717115162E+03  0.76152763079E+03  0.80421146160E+02 0.  0.
         25    2    1    2    0    0 -0.74397846279E+02 -0.12962185119E+03 -0.24259659128E+02  0.19639917157E+03  0.12508892716E+03 0.  0.
        -24    2    1    2    0    0  0.65295010119E+02  0.13773093448E+03  0.37808857226E+03  0.41542359164E+03  0.79953382424E+02 0.  0.
        -11    1    3    3    0    0 -0.17416636318E+02 -0.34437438091E+02 -0.24774027882E+03  0.25072798430E+03  0.00000000000E+00 0.  1.
         12    1    3    3    0    0  0.26519472478E+02  0.26328354799E+02 -0.50943087280E+03  0.51079964649E+03  0.00000000000E+00 0. -1.
         13    1    5    5    0    0  0.87818344821E+01  0.43813766022E+02  0.39866540631E+02  0.59884119529E+02  0.00000000000E+00 0. -1.
        -14    1    5    5    0    0  0.56513175637E+02  0.93917168456E+02  0.33822203163E+03  0.35553947211E+03  0.00000000000E+00 0.  1.
          5    1    4    4  501    0 -0.59301596307E+02 -0.10476145800E+03 -0.72006283227E+02  0.14033538267E+03  0.41800000000E+01 0. -1.
         -5    1    4    4    0  501 -0.15096249972E+02 -0.24860393189E+02  0.47746624099E+02  0.56063788898E+02  0.41800000000E+01 0. -1.
</event>
<event>
11    1  0.6930157E-009  0.1293016E+03  0.7561462E-02  0.1120130E+00
         22   -1    0    0    0    0  0.00000000000E+00  0.00000000000E+00  0.21144812998E+03  0.21144812998E+03  0.00000000000E+00 0. -1.
         22   -1    0    0    0    0 -0.00000000000E+00 -0.00000000000E+00 -0.55801377998E+03  0.55801377998E+03  0.00000000000E+00 0.  1.
         24    2    1    2    0    0  0.23784432643E+02 -0.16327603974E+02 -0.40611101745E+03  0.41394910839E+03  0.74802513002E+02 0.  0.
         25    2    1    2    0    0 -0.59972461522E+02  0.33105262166E+02 -0.10600936509E+03  0.17770240975E+03  0.12508999329E+03 0.  0.
        -24    2    1    2    0    0  0.36188028878E+02 -0.16777658192E+02  0.16555473254E+03  0.17781039182E+03  0.51157626257E+02 0.  0.
        -13    1    3    3    0    0  0.13659989470E+02 -0.12679177055E+02 -0.40199543328E+03  0.40242724215E+03  0.00000000000E+00 0.  1.
         14    1    3    3    0    0  0.10124443173E+02 -0.36484269188E+01 -0.41155841671E+01  0.11521866237E+02  0.00000000000E+00 0. -1.
         13    1    5    5    0    0  0.16461851833E+02 -0.26762790729E+02  0.14228134908E+03  0.14570937454E+03  0.00000000000E+00 0. -1.
        -14    1    5    5    0    0  0.19726177046E+02  0.99851325368E+01  0.23273383460E+02  0.32101017278E+02  0.00000000000E+00 0.  1.
          5    1    4    4  501    0 -0.21444938661E+01 -0.43034485540E+02 -0.15503529986E+02  0.45982579763E+02  0.41800000000E+01 0. -1.
         -5    1    4    4    0  501 -0.57827967656E+02  0.76139747706E+02 -0.90505835103E+02  0.13171982999E+03  0.41800000000E+01 0. -1.
</event>
<event>
11    1  0.6930157E-009  0.2811681E+03  0.7561462E-02  0.1008492E+00
         22   -1    0    0    0    0  0.00000000000E+00  0.00000000000E+00  0.46084430087E+03  0.46084430087E+03  0.00000000000E+00 0. -1.
         22   -1    0    0    0    0 -0.00000000000E+00 -0.00000000000E+00 -0.60373708892E+03  0.60373708892E+03  0.00000000000E+00 0. -1.
        -24    2    1    2    0    0 -0.29904379086E+02 -0.84965014579E+02 -0.22563955834E+03  0.25935342871E+03  0.90761583845E+02 0.  0.
         25    2    1    2    0    0  0.23305781492E+02 -0.17776799701E+03 -0.27677160866E+03  0.35269619419E+03  0.12508981503E+03 0.  0.
         24    2    1    2    0    0  0.65985975940E+01  0.26273301159E+03  0.35951837896E+03  0.45253176690E+03  0.80370133581E+02 0.  0.
        -13    1    5    5    0    0 -0.41445889418E+01  0.16400852205E+03  0.28318857405E+03  0.32727930182E+03  0.00000000000E+00 0.  1.
         14    1    5    5    0    0  0.10743186536E+02  0.98724489539E+02  0.76329804906E+02  0.12525246508E+03  0.00000000000E+00 0. -1.
         13    1    3    3    0    0  0.19243948730E+02 -0.11450800532E+02 -0.11772003875E+03  0.11983095560E+03  0.00000000000E+00 0. -1.
        -14    1    3    3    0    0 -0.49148327816E+02 -0.73514214048E+02 -0.10791951959E+03  0.13952247311E+03  0.00000000000E+00 0.  1.
          5    1    4    4  501    0  0.59173055304E+02 -0.51329570740E+02 -0.58423068520E+02  0.97810544635E+02  0.41800000000E+01 0. -1.
         -5    1    4    4    0  501 -0.35867273812E+02 -0.12643842627E+03 -0.21834854014E+03  0.25488564955E+03  0.41800000000E+01 0. -1.
</event>
<event>
11    1  0.6930157E-009  0.2965876E+03  0.7561462E-02  0.1001646E+00
         22   -1    0    0    0    0  0.00000000000E+00  0.00000000000E+00  0.44529007745E+03  0.44529007745E+03  0.00000000000E+00 0.  1.
         22   -1    0    0    0    0 -0.00000000000E+00 -0.00000000000E+00 -0.10953039472E+04  0.10953039472E+04  0.00000000000E+00 0. -1.
        -24    2    1    2    0    0 -0.24287648209E+03 -0.13018853039E+03 -0.86181232002E+03  0.90809125142E+03  0.77273585089E+02 0.  0.
         25    2    1    2    0    0  0.28102581264E+03 -0.62581348967E+02 -0.24138291886E+02  0.31483447479E+03  0.12508459847E+03 0.  0.
         24    2    1    2    0    0 -0.38149330548E+02  0.19276987936E+03  0.23593674212E+03  0.31766829849E+03  0.81433431541E+02 0.  0.
        -11    1    5    5    0    0 -0.53200523228E+02  0.70194668779E+02  0.82234939322E+02  0.12049967818E+03  0.00000000000E+00 0.  1.
         12    1    5    5    0    0  0.15051192680E+02  0.12257521058E+03  0.15370180280E+03  0.19716862031E+03  0.00000000000E+00 0. -1.
         13    1    3    3    0    0 -0.46109097723E+02 -0.25197868940E+02 -0.28221768887E+03  0.28706759727E+03  0.00000000000E+00 0. -1.
        -14    1    3    3    0    0 -0.19676738437E+03 -0.10499066145E+03 -0.57959463116E+03  0.62102365415E+03  0.00000000000E+00 0.  1.
          5    1    4    4  501    0  0.11549717445E+01  0.11691908937E+02  0.18307904908E+02  0.22151444117E+02  0.41800000000E+01 0. -1.
         -5    1    4    4    0  501  0.27987084090E+03 -0.74273257904E+02 -0.42446196794E+02  0.29268303068E+03  0.41800000000E+01 0. -1.
</event>
<event>
11    1  0.6930157E-009  0.1269414E+03  0.7561462E-02  0.1123085E+00
         22   -1    0    0    0    0  0.00000000000E+00  0.00000000000E+00  0.16872026208E+03  0.16872026208E+03  0.00000000000E+00 0. -1.
         22   -1    0    0    0    0 -0.00000000000E+00 -0.00000000000E+00 -0.84058318829E+03  0.84058318829E+03  0.00000000000E+00 0.  1.
         24    2    1    2    0    0  0.42867745798E+02  0.36244400277E+01 -0.69606193776E+03  0.70199671893E+03  0.80289426485E+02 0.  0.
         25    2    1    2    0    0 -0.35804614842E+02 -0.24666935877E+02 -0.82623986263E+02  0.15609007962E+03  0.12508781588E+03 0.  0.
        -24    2    1    2    0    0 -0.70631309556E+01  0.21042495849E+02  0.10682299781E+03  0.15121665182E+03  0.10470266700E+03 0.  0.
        -13    1    3    3    0    0  0.14451702552E+02 -0.21954480900E+02 -0.56133261690E+03  0.56194764679E+03  0.00000000000E+00 0.  1.
         14    1    3    3    0    0  0.28416043246E+02  0.25578920928E+02 -0.13472932086E+03  0.14004907214E+03  0.00000000000E+00 0. -1.
         13    1    5    5    0    0  0.14000308966E+02 -0.27096339710E+02  0.91549825252E+02  0.96496584295E+02  0.00000000000E+00 0. -1.
        -14    1    5    5    0    0 -0.21063439922E+02  0.48138835559E+02  0.15273172556E+02  0.54720067528E+02  0.00000000000E+00 0.  1.
          5    1    4    4  501    0 -0.41231659376E+02 -0.70743887281E+02 -0.34019144137E+02  0.88766671055E+02  0.41800000000E+01 0. -1.
         -5    1    4    4    0  501  0.54270445333E+01  0.46076951404E+02 -0.48604842126E+02  0.67323408567E+02  0.41800000000E+01 0. -1.
</event>
<event>
11    1  0.6930157E-009  0.1923477E+03  0.7561462E-02  0.1060071E+00
         22   -1    0    0    0    0  0.00000000000E+00  0.00000000000E+00  0.17667829992E+04  0.17667829992E+04  0.00000000000E+00 0. -1.
         22   -1    0    0    0    0 -0.00000000000E+00 -0.00000000000E+00 -0.12957880411E+03  0.12957880411E+03  0.00000000000E+00 0. -1.
        -24    2    1    2    0    0  0.95170816561E+02  0.29299848930E+02 -0.48482606641E+02  0.13786702657E+03  0.82102304446E+02 0.  0.
         25    2    1    2    0    0 -0.29680122883E+02  0.11149720696E+03  0.20093048273E+03  0.26331267266E+03  0.12509183762E+03 0.  0.
         24    2    1    2    0    0 -0.65490693677E+02 -0.14079705589E+03  0.14847563190E+04  0.14951821041E+04  0.83398774744E+02 0.  0.
        -13    1    5    5    0    0  0.10038963439E+01  0.86699445211E+01  0.29623926767E+02  0.30882888190E+02  0.00000000000E+00 0.  1.
         14    1    5    5    0    0 -0.66494590021E+02 -0.14946700041E+03  0.14551323923E+04  0.14642992159E+04  0.00000000000E+00 0. -1.
         13    1    3    3    0    0 -0.55213848792E+01 -0.14816875816E+02 -0.17640215879E+02  0.23689717520E+02  0.00000000000E+00 0. -1.
        -14    1    3    3    0    0  0.10069220144E+03  0.44116724746E+02 -0.30842390763E+02  0.11417730905E+03  0.00000000000E+00 0.  1.
          5    1    4    4  501    0  0.42001279267E+02  0.36073198726E+02  0.29871947636E+02  0.63049098185E+02  0.41800000000E+01 0. -1.
         -5    1    4    4    0  501 -0.71681402151E+02  0.75424008233E+02  0.17105853509E+03  0.20026357447E+03  0.41800000000E+01 0. -1.
</event>
<event>
11    1  0.6930157E-009  0.1368659E+03  0.7561462E-02  0.1111109E+00
         22   -1    0    0    0    0  0.00000000000E+00  0.00000000000E+00  0.27170661686E+04  0.27170661686E+04  0.00000000000E+00 0.  1.
         22   -1    0    0    0    0 -0.00000000000E+00 -0.00000000000E+00 -0.20307234404E+03  0.20307234404E+03  0.00000000000E+00 0.  1.
        -24    2    1    2    0    0 -0.51615689013E+02  0.17688761520E+02 -0.16118205645E+03  0.18789319695E+03  0.79668855290E+02 0.  0.
         25    2    1    2    0    0  0.53198101217E+02 -0.58591821570E+02  0.16997466665E+03  0.22539078324E+03  0.12508628358E+03 0.  0.
         24    2    1    2    0    0 -0.15824122032E+01  0.40903060050E+02  0.25052012143E+04  0.25068545324E+04  0.81307798598E+02 0.  0.
        -11    1    5    5    0    0 -0.81349956104E+01  0.44692871080E+02  0.24826735766E+04  0.24830891484E+04  0.00000000000E+00 0.  1.
         12    1    5    5    0    0  0.65525834072E+01 -0.37898110303E+01  0.22527637747E+02  0.23765384058E+02  0.00000000000E+00 0. -1.
         11    1    3    3    0    0 -0.40591165747E+02 -0.37080789336E+01 -0.21366471711E+02  0.46020850703E+02  0.00000000000E+00 0. -1.
        -12    1    3    3    0    0 -0.11024523267E+02  0.21396840453E+02 -0.13981558473E+03  0.14187234625E+03  0.00000000000E+00 0.  1.
          5    1    4    4  501    0 -0.11704183684E+02  0.29711268104E+02  0.14975852552E+02  0.35517543943E+02  0.41800000000E+01 0. -1.
         -5    1    4    4    0  501  0.64902284900E+02 -0.88303089674E+02  0.15499881409E+03  0.18987323930E+03  0.41800000000E+01 0. -1.
</event>
<event>
11    1  0.6930157E-009  0.1264861E+03  0.7561462E-02  0.1123663E+00
         22   -1    0    0    0    0  0.00000000000E+00  0.00000000000E+00  0.14534271034E+03  0.14534271034E+03  0.00000000000E+00 0. -1.
         22   -1    0    0    0    0 -0.00000000000E+00 -0.00000000000E+00 -0.11844567498E+04  0.11844567498E+04  0.00000000000E+00 0.  1.
        -24    2    1    2    0    0 -0.21468921545E+02  0.42746303911E+01 -0.86610749663E+03  0.87044901616E+03  0.84024442682E+02 0.  0.
         25    2    1    2    0    0 -0.32390849964E+01 -0.12336243559E+02 -0.28919175224E+03  0.31534366899E+03  0.12508831054E+03 0.  0.
         24    2    1    2    0    0  0.24708006542E+02  0.80616131681E+01  0.11618520939E+03  0.14400677501E+03  0.81015265063E+02 0.  0.
        -13    1    5    5    0    0 -0.15312104938E+02  0.31064014085E+02  0.72984763935E+02  0.80784957111E+02  0.00000000000E+00 0.  1.
         14    1    5    5    0    0  0.40020111480E+02 -0.23002400917E+02  0.43200445455E+02  0.63221817898E+02  0.00000000000E+00 0. -1.
         13    1    3    3    0    0 -0.35917212410E+02 -0.47164720509E+01 -0.15651658573E+03  0.16065407827E+03  0.00000000000E+00 0. -1.
        -14    1    3    3    0    0  0.14448290865E+02  0.89911024419E+01 -0.70959091089E+03  0.70979493789E+03  0.00000000000E+00 0.  1.
          5    1    4    4  501    0  0.68849722328E+01  0.51912144450E+02 -0.75829463697E+02  0.92248867465E+02  0.41800000000E+01 0.  1.
         -5    1    4    4    0  501 -0.10124057229E+02 -0.64248388009E+02 -0.21336228854E+03  0.22309480152E+03  0.41800000000E+01 0.  1.
</event>
<event>
11    1  0.6930157E-009  0.1446207E+03  0.7561462E-02  0.1102506E+00
         22   -1    0    0    0    0  0.00000000000E+00  0.00000000000E+00  0.54617096569E+03  0.54617096569E+03  0.00000000000E+00 0. -1.
         22   -1    0    0    0    0 -0.00000000000E+00 -0.00000000000E+00 -0.71049002223E+03  0.71049002223E+03  0.00000000000E+00 0. -1.
         24    2    1    2    0    0  0.63675548662E+02  0.32669081559E+02 -0.66094522441E+03  0.66962414894E+03  0.80162751882E+02 0.  0.
         25    2    1    2    0    0 -0.12223241554E+03 -0.22091698762E+02  0.16161569604E+03  0.23915838927E+03  0.12509314684E+03 0.  0.
        -24    2    1    2    0    0  0.58556866880E+02 -0.10577382797E+02  0.33501047183E+03  0.34787844972E+03  0.72433499545E+02 0.  0.
        -13    1    3    3    0    0  0.34407505378E+01  0.80906632121E+01 -0.43415308155E+01  0.98054314182E+01  0.00000000000E+00 0.  1.
         14    1    3    3    0    0  0.60234798125E+02  0.24578418347E+02 -0.65660369359E+03  0.65981871752E+03  0.00000000000E+00 0. -1.
         11    1    5    5    0    0  0.16292330643E+02 -0.13019618142E+02  0.26669316418E+03  0.26750737244E+03  0.00000000000E+00 0. -1.
        -12    1    5    5    0    0  0.42264536237E+02  0.24422353446E+01  0.68317307654E+02  0.80371077272E+02  0.00000000000E+00 0.  1.
          5    1    4    4  501    0 -0.86398184870E+02 -0.65999499523E+02  0.64068193958E+02  0.12626474632E+03  0.41800000000E+01 0.  1.
         -5    1    4    4    0  501 -0.35834230672E+02  0.43907800761E+02  0.97547502084E+02  0.11289364295E+03  0.41800000000E+01 0.  1.
</event>
<event>
11    1  0.6930157E-009  0.1695222E+03  0.7561462E-02  0.1078448E+00
         22   -1    0    0    0    0  0.00000000000E+00  0.00000000000E+00  0.60806303630E+03  0.60806303630E+03  0.00000000000E+00 0. -1.
         22   -1    0    0    0    0 -0.00000000000E+00 -0.00000000000E+00 -0.41982192311E+03  0.41982192311E+03  0.00000000000E+00 0. -1.
         24    2    1    2    0    0  0.52379418274E+02 -0.10540658173E+03 -0.37570201102E+03  0.40191861354E+03  0.80823387017E+02 0.  0.
         25    2    1    2    0    0  0.21079996466E+02  0.69394737335E+02  0.22163537491E+03  0.26463251281E+03  0.12509249221E+03 0.  0.
        -24    2    1    2    0    0 -0.73459414740E+02  0.36011844398E+02  0.34230774931E+03  0.36133383305E+03  0.81819344415E+02 0.  0.
        -11    1    3    3    0    0  0.52503008302E+02 -0.72000283425E+02 -0.15571452534E+03  0.17940908588E+03  0.00000000000E+00 0.  1.
         12    1    3    3    0    0 -0.12359002764E+00 -0.33406298308E+02 -0.21998748569E+03  0.22250952766E+03  0.00000000000E+00 0. -1.
         13    1    5    5    0    0 -0.88172320624E+02  0.23906619816E+02  0.31539621799E+03  0.32836056237E+03  0.00000000000E+00 0. -1.
        -14    1    5    5    0    0  0.14712905884E+02  0.12105224582E+02  0.26911531313E+02  0.32973270680E+02  0.00000000000E+00 0.  1.
          5    1    4    4  501    0  0.62538877837E+02  0.52426042557E+02  0.19714202934E+03  0.21340584179E+03  0.41800000000E+01 0.  1.
         -5    1    4    4    0  501 -0.41458881371E+02  0.16968694778E+02  0.24493345569E+02  0.51226671024E+02  0.41800000000E+01 0.  1.
</event>
<event>
11    1  0.6930157E-009  0.1519418E+03  0.7561462E-02  0.1094911E+00
         22   -1    0    0    0    0  0.00000000000E+00  0.00000000000E+00  0.11211977181E+04  0.11211977181E+04  0.00000000000E+00 0. -1.
         22   -1    0    0    0    0 -0.00000000000E+00 -0.00000000000E+00 -0.38952936019E+03  0.38952936019E+03  0.00000000000E+00 0. -1.
         24    2    1    2    0    0  0.34834188946E+02 -0.39036666189E+02 -0.31757413727E+03  0.33324020198E+03  0.86362130161E+02 0.  0.
         25    2    1    2    0    0 -0.25845624172E+02 -0.49014452527E+02  0.16449244848E+02  0.13779984615E+03  0.12509119513E+03 0.  0.
        -24    2    1    2    0    0 -0.89885647738E+01  0.88051118716E+02  0.10327932503E+04  0.10396870301E+04  0.80333236708E+02 0.  0.
        -11    1    3    3    0    0 -0.29012633824E+02 -0.12618695639E+02 -0.11066599920E+03  0.11509964283E+03  0.00000000000E+00 0.  1.
         12    1    3    3    0    0  0.63846822770E+02 -0.26417970550E+02 -0.20690813807E+03  0.21814055915E+03  0.00000000000E+00 0. -1.
         11    1    5    5    0    0 -0.18208360489E+02  0.98527971660E+02  0.97896048191E+03  0.98407465710E+03  0.00000000000E+00 0. -1.
        -12    1    5    5    0    0  0.92197957153E+01 -0.10476852944E+02  0.53832768406E+02  0.55612373038E+02  0.00000000000E+00 0.  1.
          5    1    4    4  501    0 -0.46541746500E+02 -0.25037685067E+02  0.62371352718E+02  0.81857668430E+02  0.41800000000E+01 0. -1.
         -5    1    4    4    0  501  0.20696122328E+02 -0.23976767460E+02 -0.45922107871E+02  0.55942177724E+02  0.41800000000E+01 0. -1.
</event>
<event>
11    1  0.6930157E-009  0.1338156E+03  0.7561462E-02  0.1114668E+00
         22   -1    0    0    0    0  0.00000000000E+00  0.00000000000E+00  0.28437454626E+03  0.28437454626E+03  0.00000000000E+00 0.  1.
         22   -1    0    0    0    0 -0.00000000000E+00 -0.00000000000E+00 -0.15953215346E+04  0.15953215346E+04  0.00000000000E+00 0. -1.
        -24    2    1    2    0    0 -0.34613387522E+02 -0.32333780793E+02 -0.15109961655E+04  0.15138464162E+04  0.79862380151E+02 0.  0.
         25    2    1    2    0    0  0.23329797513E+02  0.55393821788E+02 -0.97843418301E+01  0.13912554526E+03  0.12508968405E+03 0.  0.
         24    2    1    2    0    0  0.11283590009E+02 -0.23060040995E+02  0.20983351893E+03  0.22672411944E+03  0.81942881154E+02 0.  0.
        -13    1    5    5    0    0  0.45320917685E+02 -0.97359336600E+01  0.14581034058E+03  0.15300140328E+03  0.00000000000E+00 0.  1.
         14    1    5    5    0    0 -0.34037327676E+02 -0.13324107335E+02  0.64023178351E+02  0.73722716159E+02  0.00000000000E+00 0. -1.
         13    1    3    3    0    0 -0.17951134079E+02  0.19394682129E+02 -0.91393904682E+03  0.91432104767E+03  0.00000000000E+00 0. -1.
        -14    1    3    3    0    0 -0.16662253443E+02 -0.51728462922E+02 -0.59705711867E+03  0.59952536853E+03  0.00000000000E+00 0.  1.
          5    1    4    4  501    0  0.65712084817E+02 -0.17913479300E+01  0.58558353608E+01  0.66129042230E+02  0.41800000000E+01 0.  1.
         -5    1    4    4    0  501 -0.42382287304E+02  0.57185169718E+02 -0.15640177191E+02  0.72996503035E+02  0.41800000000E+01 0.  1.
</event>
<event>
11    1  0.6930157E-009  0.1666609E+03  0.7561462E-02  0.1080975E+00
         22   -1    0    0    0    0  0.00000000000E+00  0.00000000000E+00  0.17137647257E+04  0.17137647257E+04  0.00000000000E+00 0.  1.
         22   -1    0    0    0    0 -0.00000000000E+00 -0.00000000000E+00 -0.77536721360E+03  0.77536721360E+03  0.00000000000E+00 0.  1.
        -24    2    1    2    0    0 -0.60459369600E+02  0.46527700334E+02 -0.74600561022E+03  0.75433887116E+03  0.81747169969E+02 0.  0.
         25    2    1    2    0    0 -0.47351477216E+02 -0.87442578891E+02  0.27248364279E+03  0.31588378811E+03  0.12508742945E+03 0.  0.
         24    2    1    2    0    0  0.10781084682E+03  0.40914878556E+02  0.14119194795E+04  0.14189092800E+04  0.80558812558E+02 0.  0.
        -13    1    5    5    0    0  0.11899462638E+03  0.25680225932E+02  0.12114654288E+04  0.12175662940E+04  0.00000000000E+00 0.  1.
         14    1    5    5    0    0 -0.11183779565E+02  0.15234652625E+02  0.20045405068E+03  0.20134298597E+03  0.00000000000E+00 0. -1.
         13    1    3    3    0    0  0.13921110277E+02  0.28663215594E+02 -0.14341833340E+03  0.14691560705E+03  0.00000000000E+00 0. -1.
        -14    1    3    3    0    0 -0.74380479877E+02  0.17864484741E+02 -0.60258727682E+03  0.60742326411E+03  0.00000000000E+00 0.  1.
          5    1    4    4  501    0 -0.84831488750E+02 -0.87360170273E+02  0.20047048032E+03  0.23459340722E+03  0.41800000000E+01 0.  1.
         -5    1    4    4    0  501  0.37480011533E+02 -0.82408617502E-01  0.72013162475E+02  0.81290380891E+02  0.41800000000E+01 0.  1.
</event>
<event>
11    1  0.6930157E-009  0.1367766E+03  0.7561462E-02  0.1111212E+00
         22   -1    0    0    0    0  0.00000000000E+00  0.00000000000E+00  0.11793089039E+03  0.11793089039E+03  0.00000000000E+00 0. -1.
         22   -1    0    0    0    0 -0.00000000000E+00 -0.00000000000E+00 -0.73935992088E+03  0.73935992088E+03  0.00000000000E+00 0. -1.
         24    2    1    2    0    0  0.45260844949E+02  0.26978154475E+02 -0.46337504030E+03  0.47306153201E+03  0.79337382045E+02 0.  0.
         25    2    1    2    0    0 -0.44361105264E+02 -0.53335032119E+02 -0.23273320249E+03  0.27317339491E+03  0.12508567797E+03 0.  0.
        -24    2    1    2    0    0 -0.89973968464E+00  0.26356877645E+02  0.74679212301E+02  0.11105588436E+03  0.77851976017E+02 0.  0.
        -13    1    3    3    0    0  0.21632783771E+02  0.52686384300E+02 -0.34406318801E+03  0.34874533655E+03  0.00000000000E+00 0.  1.
         14    1    3    3    0    0  0.23628061177E+02 -0.25708229825E+02 -0.11931185229E+03  0.12431619546E+03  0.00000000000E+00 0. -1.
         13    1    5    5    0    0  0.14928701463E+02  0.42590732989E+02  0.75949733104E+02  0.88347035165E+02  0.00000000000E+00 0. -1.
        -14    1    5    5    0    0 -0.15828441148E+02 -0.16233855344E+02 -0.12705208026E+01  0.22708849192E+02  0.00000000000E+00 0.  1.
          5    1    4    4  501    0  0.10131322417E+02  0.32442366983E+02 -0.10162709162E+03  0.10724126548E+03  0.41800000000E+01 0.  1.
         -5    1    4    4    0  501 -0.54492427681E+02 -0.85777399103E+02 -0.13110611086E+03  0.16593212943E+03  0.41800000000E+01 0.  1.
</event>
<event>
11    1  0.6930157E-009  0.1649514E+03  0.7561462E-02  0.1082511E+00
         22   -1    0    0    0    0  0.00000000000E+00  0.00000000000E+00  0.17776741479E+04  0.17776741479E+04  0.00000000000E+00 0. -1.
         22   -1    0    0    0    0 -0.00000000000E+00 -0.00000000000E+00 -0.61400869577E+03  0.61400869577E+03  0.00000000000E+00 0. -1.
        -24    2    1    2    0    0  0.85378851030E+02  0.67176493549E+02 -0.59334350936E+03  0.60631922986E+03  0.61353556699E+02 0.  0.
         25    2    1    2    0    0 -0.55817239633E+02  0.76735228366E+01  0.38497498296E+03  0.40869085439E+03  0.12509208516E+03 0.  0.
         24    2    1    2    0    0 -0.29561611397E+02 -0.74850016386E+02  0.13720339785E+04  0.13766727594E+04  0.79210065305E+02 0.  0.
        -11    1    5    5    0    0  0.12651057031E+02  0.77580669495E+01  0.38580047243E+03  0.38608579535E+03  0.00000000000E+00 0.  1.
         12    1    5    5    0    0 -0.42212668428E+02 -0.82608083335E+02  0.98623350608E+03  0.99058696404E+03  0.00000000000E+00 0. -1.
         13    1    3    3    0    0  0.88371950738E+02  0.39655005684E+02 -0.44587661886E+03  0.45627632022E+03  0.00000000000E+00 0. -1.
        -14    1    3    3    0    0 -0.29930997078E+01  0.27521487865E+02 -0.14746689050E+03  0.15004290964E+03  0.00000000000E+00 0.  1.
          5    1    4    4  501    0 -0.20702332482E+02 -0.28267011811E+02  0.33781340033E+03  0.33965125698E+03  0.41800000000E+01 0.  1.
         -5    1    4    4    0  501 -0.35114907152E+02  0.35940534648E+02  0.47161582630E+02  0.69039597415E+02  0.41800000000E+01 0.  1.
</event>
<event>
11    1  0.6930157E-009  0.2830897E+03  0.7561462E-02  0.1007613E+00
         22   -1    0    0    0    0  0.00000000000E+00  0.00000000000E+00  0.11943984609E+04  0.11943984609E+04  0.00000000000E+00 0.  1.
         22   -1    0    0    0    0 -0.00000000000E+00 -0.00000000000E+00 -0.13950315497E+03  0.13950315497E+03  0.00000000000E+00 0. -1.
        -24    2    1    2    0    0  0.21614526200E+03  0.12916413335E+03  0.86163989563E+02  0.27831290842E+03  0.81435215162E+02 0.  0.
         25    2    1    2    0    0 -0.21402972705E+03 -0.14863595332E+03  0.48284775925E+03  0.56275354000E+03  0.12509283549E+03 0.  0.
         24    2    1    2    0    0 -0.21155349451E+01  0.19471819968E+02  0.48588355716E+03  0.49283516749E+03  0.80125176621E+02 0.  0.
        -13    1    5    5    0    0  0.53502509423E+00 -0.21037249564E+01  0.45534439950E+03  0.45534957348E+03  0.00000000000E+00 0.  1.
         14    1    5    5    0    0 -0.26505600393E+01  0.21575544925E+02  0.30539157659E+02  0.37485594004E+02  0.00000000000E+00 0. -1.
         13    1    3    3    0    0  0.17194352701E+03  0.11897081161E+03  0.98751667524E+02  0.23123693981E+03  0.00000000000E+00 0. -1.
        -14    1    3    3    0    0  0.44201734984E+02  0.10193321743E+02 -0.12587677961E+02  0.47075968606E+02  0.00000000000E+00 0.  1.
          5    1    4    4  501    0 -0.22879708085E+03 -0.12945900054E+03  0.45599414169E+03  0.52636096614E+03  0.41800000000E+01 0.  1.
         -5    1    4    4    0  501  0.14767353795E+02 -0.19176952778E+02  0.26853617562E+02  0.36392573859E+02  0.41800000000E+01 0.  1.
</event>
<event>
11    1  0.6930157E-009  0.1445954E+03  0.7561462E-02  0.1102533E+00
         22   -1    0    0    0    0  0.00000000000E+00  0.00000000000E+00  0.11447464685E+04  0.11447464685E+04  0.00000000000E+00 0.  1.
         22   -1    0    0    0    0 -0.00000000000E+00 -0.00000000000E+00 -0.15215983496E+03  0.15215983496E+03  0.00000000000E+00 0. -1.
         24    2    1    2    0    0  0.57737066938E+02  0.42541767799E+02 -0.92965411080E+02  0.14275583780E+03  0.81199080429E+02 0.  0.
         25    2    1    2    0    0 -0.38800049997E+02  0.32866281987E+02  0.11618045748E+03  0.17813340689E+03  0.12509186856E+03 0.  0.
        -24    2    1    2    0    0 -0.18937016940E+02 -0.75408049787E+02  0.96937158713E+03  0.97601705876E+03  0.82964091476E+02 0.  0.
        -11    1    3    3    0    0  0.27709109379E+02  0.57100675901E+02 -0.88764644274E+02  0.10912123535E+03  0.00000000000E+00 0.  1.
         12    1    3    3    0    0  0.30027957559E+02 -0.14558908102E+02 -0.42007668063E+01  0.33634602451E+02  0.00000000000E+00 0. -1.
         13    1    5    5    0    0 -0.40683178621E+02 -0.49770598748E+02  0.35825433257E+03  0.36397582382E+03  0.00000000000E+00 0. -1.
        -14    1    5    5    0    0  0.21746161681E+02 -0.25637451039E+02  0.61111725456E+03  0.61204123493E+03  0.00000000000E+00 0.  1.
          5    1    4    4  501    0  0.41750709704E+02 -0.30540539012E+01  0.60699146705E+02  0.73853285755E+02  0.41800000000E+01 0.  1.
         -5    1    4    4    0  501 -0.80550759702E+02  0.35920335889E+02  0.55481310779E+02  0.10428012114E+03  0.41800000000E+01 0.  1.
</event>
<event>
11    1  0.6930157E-009  0.1457038E+03  0.7561462E-02  0.1101351E+00
         22   -1    0    0    0    0  0.00000000000E+00  0.00000000000E+00  0.41813622690E+03  0.41813622690E+03  0.00000000000E+00 0. -1.
         22   -1    0    0    0    0 -0.00000000000E+00 -0.00000000000E+00 -0.21220971485E+04  0.21220971485E+04  0.00000000000E+00 0. -1.
        -24    2    1    2    0    0  0.60400694703E+02 -0.39633415009E+02 -0.18580786667E+04  0.18612429742E+04  0.80932230519E+02 0.  0.
         25    2    1    2    0    0 -0.10408089277E+03  0.62043818128E+02 -0.22701085471E+03  0.28611557091E+03  0.12508366861E+03 0.  0.
         24    2    1    2    0    0  0.43680198072E+02 -0.22410403120E+02  0.38112859983E+03  0.39287483025E+03  0.81740056058E+02 0.  0.
        -11    1    5    5    0    0  0.60061105821E+02 -0.23275033011E+02  0.18182596462E+03  0.19289827632E+03  0.00000000000E+00 0.  1.
         12    1    5    5    0    0 -0.16380907749E+02  0.86462989174E+00  0.19930263521E+03  0.19997655394E+03  0.00000000000E+00 0. -1.
         13    1    3    3    0    0  0.48563322571E+02 -0.94919145928E+01 -0.16425518292E+04  0.16432969921E+04  0.00000000000E+00 0. -1.
        -14    1    3    3    0    0  0.11837372133E+02 -0.30141500416E+02 -0.21552683754E+03  0.21794598213E+03  0.00000000000E+00 0.  1.
          5    1    4    4  501    0 -0.67364679135E+02 -0.18743803326E+02 -0.16055828507E+03  0.17517352958E+03  0.41800000000E+01 0. -1.
         -5    1    4    4    0  501 -0.36716213640E+02  0.80787621454E+02 -0.66452569634E+02  0.11094204133E+03  0.41800000000E+01 0. -1.
</event>
<event>
11    1  0.6930157E-009  0.1356606E+03  0.7561462E-02  0.1112503E+00
         22   -1    0    0    0    0  0.00000000000E+00  0.00000000000E+00  0.40466018331E+03  0.40466018331E+03  0.00000000000E+00 0.  1.
         22   -1    0    0    0    0 -0.00000000000E+00 -0.00000000000E+00 -0.22582703004E+04  0.22582703004E+04  0.00000000000E+00 0.  1.
         24    2    1    2    0    0 -0.34621320480E+01  0.48649796879E+02 -0.21945374880E+04  0.21965551636E+04  0.80504728936E+02 0.  0.
         25    2    1    2    0    0  0.49589998225E+02 -0.18628264287E+02  0.27937650422E+02  0.13868529850E+03  0.12508764749E+03 0.  0.
        -24    2    1    2    0    0 -0.46127866177E+02 -0.30021532592E+02  0.31298972053E+03  0.32769002156E+03  0.79931924901E+02 0.  0.
        -11    1    3    3    0    0 -0.21885992588E+02  0.43930800977E+02 -0.20692857307E+04  0.20698677125E+04  0.00000000000E+00 0.  1.
         12    1    3    3    0    0  0.18423860540E+02  0.47189959021E+01 -0.12525175727E+03  0.12668745107E+03  0.00000000000E+00 0. -1.
         11    1    5    5    0    0 -0.30917393454E+02  0.24522508310E+02  0.10646200859E+03  0.11354029199E+03  0.00000000000E+00 0. -1.
        -12    1    5    5    0    0 -0.15210472723E+02 -0.54544040902E+02  0.20652771194E+03  0.21414972957E+03  0.00000000000E+00 0.  1.
          5    1    4    4  501    0  0.85240769945E+02 -0.39749346898E+02  0.17661022580E+02  0.95788222440E+02  0.41800000000E+01 0.  1.
         -5    1    4    4    0  501 -0.35650771720E+02  0.21121082611E+02  0.10276627842E+02  0.42897076062E+02  0.41800000000E+01 0.  1.
</event>
<event>
11    1  0.6930157E-009  0.1408740E+03  0.7561462E-02  0.1106586E+00
         22   -1    0    0    0    0  0.00000000000E+00  0.00000000000E+00  0.57499847017E+03  0.57499847017E+03  0.00000000000E+00 0.  1.
         22   -1    0    0    0    0 -0.00000000000E+00 -0.00000000000E+00 -0.71317989998E+03  0.71317989998E+03  0.00000000000E+00 0. -1.
         24    2    1    2    0    0 -0.85851008837E+01  0.67133768506E+02 -0.62388972416E+03  0.63295845866E+03  0.82567400620E+02 0.  0.
         25    2    1    2    0    0  0.46926231493E+02 -0.21542027673E+02 -0.22402602501E+02  0.13716382096E+03  0.12508360014E+03 0.  0.
        -24    2    1    2    0    0 -0.38341130609E+02 -0.45591740833E+02  0.50811089685E+03  0.51805609052E+03  0.81589094274E+02 0.  0.
        -13    1    3    3    0    0 -0.42479398211E+00  0.37983267079E+02 -0.83643428290E+02  0.91864749083E+02  0.00000000000E+00 0.  1.
         14    1    3    3    0    0 -0.81603069016E+01  0.29150501427E+02 -0.54024629587E+03  0.54109370957E+03  0.00000000000E+00 0. -1.
         11    1    5    5    0    0 -0.52166137836E+02 -0.10261473843E+02  0.17794523402E+03  0.18571782384E+03  0.00000000000E+00 0. -1.
        -12    1    5    5    0    0  0.13825007227E+02 -0.35330266990E+02  0.33016566283E+03  0.33233826668E+03  0.00000000000E+00 0.  1.
          5    1    4    4  501    0 -0.29822161634E+02  0.28877019259E+02 -0.17092668517E+02  0.45087418232E+02  0.41800000000E+01 0. -1.
         -5    1    4    4    0  501  0.76748393127E+02 -0.50419046932E+02 -0.53099339835E+01  0.92076402732E+02  0.41800000000E+01 0. -1.
</event>
<event>
11    1  0.6930157E-009  0.1906751E+03  0.7561462E-02  0.1061321E+00
         22   -1    0    0    0    0  0.00000000000E+00  0.00000000000E+00  0.10201362556E+04  0.10201362556E+04  0.00000000000E+00 0. -1.
         22   -1    0    0    0    0 -0.00000000000E+00 -0.00000000000E+00 -0.14574164970E+03  0.14574164970E+03  0.00000000000E+00 0. -1.
        -24    2    1    2    0    0  0.86122903709E+02  0.93293554379E+02 -0.91268643018E+01  0.15155508498E+03  0.82248418216E+02 0.  0.
         25    2    1    2    0    0 -0.17621738800E+03 -0.10830881315E+03  0.18225024739E+03  0.30273078394E+03  0.12508960000E+03 0.  0.
         24    2    1    2    0    0  0.90094484293E+02  0.15015258771E+02  0.70127122279E+03  0.71159203638E+03  0.78990026084E+02 0.  0.
        -13    1    5    5    0    0  0.72567135223E+02 -0.20311822850E+02  0.34435789231E+03  0.35250662016E+03  0.00000000000E+00 0.  1.
         14    1    5    5    0    0  0.17527349070E+02  0.35327081621E+02  0.35691333049E+03  0.35908541622E+03  0.00000000000E+00 0. -1.
         11    1    3    3    0    0  0.97842532165E+02  0.76283653674E+02  0.85603260788E+01  0.12436091066E+03  0.00000000000E+00 0. -1.
        -12    1    3    3    0    0 -0.11719628456E+02  0.17009900705E+02 -0.17687190381E+02  0.27194174316E+02  0.00000000000E+00 0.  1.
          5    1    4    4  501    0 -0.15039204544E+03 -0.70889037473E+02  0.67970497101E+02  0.17966770394E+03  0.41800000000E+01 0. -1.
         -5    1    4    4    0  501 -0.25825342564E+02 -0.37419775677E+02  0.11427975029E+03  0.12306307999E+03  0.41800000000E+01 0. -1.
</event>
<event>
11    1  0.6930157E-009  0.1336898E+03  0.7561462E-02  0.1114817E+00
         22   -1    0    0    0    0  0.00000000000E+00  0.00000000000E+00  0.81644878704E+03  0.81644878704E+03  0.00000000000E+00 0.  1.
         22   -1    0    0    0    0 -0.00000000000E+00 -0.00000000000E+00 -0.89074854526E+03  0.89074854526E+03  0.00000000000E+00 0.  1.
        -24    2    1    2    0    0 -0.45215689820E+02  0.13799087370E+02 -0.83643538763E+03  0.84160420487E+03  0.80240928211E+02 0.  0.
         25    2    1    2    0    0  0.20967810396E+02 -0.76298247663E+02  0.63306124129E+02  0.16098160218E+03  0.12508532775E+03 0.  0.
         24    2    1    2    0    0  0.24247879424E+02  0.62499160293E+02  0.69882950529E+03  0.70461152525E+03  0.60171582715E+02 0.  0.
        -11    1    5    5    0    0  0.85729043044E+01  0.12544515762E+02  0.45364199838E+03  0.45389637833E+03  0.00000000000E+00 0.  1.
         12    1    5    5    0    0  0.15674975120E+02  0.49954644531E+02  0.24518750690E+03  0.25071514692E+03  0.00000000000E+00 0. -1.
         13    1    3    3    0    0 -0.58160864603E+02 -0.13601492912E+02 -0.44386313834E+03  0.44786401101E+03  0.00000000000E+00 0. -1.
        -14    1    3    3    0    0  0.12945174783E+02  0.27400580282E+02 -0.39257224929E+03  0.39374019386E+03  0.00000000000E+00 0.  1.
          5    1    4    4  501    0  0.13522760553E+02  0.30615701632E+02  0.37946389070E+02  0.50769942711E+02  0.41800000000E+01 0.  1.
         -5    1    4    4    0  501  0.74450498432E+01 -0.10691394929E+03  0.25359735059E+02  0.11021165947E+03  0.41800000000E+01 0.  1.
</event>
<event>
11    1  0.6930157E-009  0.1561608E+03  0.7561462E-02  0.1090745E+00
         22   -1    0    0    0    0  0.00000000000E+00  0.00000000000E+00  0.17056924588E+04  0.17056924588E+04  0.00000000000E+00 0.  1.
         22   -1    0    0    0    0 -0.00000000000E+00 -0.00000000000E+00 -0.34747496156E+03  0.34747496156E+03  0.00000000000E+00 0.  1.
         24    2    1    2    0    0 -0.45664783818E+02 -0.38791868790E+02 -0.30745846447E+03  0.32346952952E+03  0.80695400056E+02 0.  0.
         25    2    1    2    0    0 -0.14704343374E+02 -0.38589024948E+02  0.11776813385E+03  0.17669750154E+03  0.12508934064E+03 0.  0.
        -24    2    1    2    0    0  0.60369127192E+02  0.77380893738E+02  0.15479078279E+04  0.15530003893E+04  0.78481407508E+02 0.  0.
        -13    1    3    3    0    0  0.22660425332E+00 -0.50049217245E+02 -0.19838102409E+03  0.20459718037E+03  0.00000000000E+00 0.  1.
         14    1    3    3    0    0 -0.45891388071E+02  0.11257348455E+02 -0.10907744038E+03  0.11887234915E+03  0.00000000000E+00 0. -1.
         11    1    5    5    0    0 -0.13242160782E+02 -0.46075249224E+01  0.26450629637E+03  0.26487764143E+03  0.00000000000E+00 0. -1.
        -12    1    5    5    0    0  0.73611287974E+02  0.81988418661E+02  0.12834015315E+04  0.12881227479E+04  0.00000000000E+00 0.  1.
          5    1    4    4  501    0  0.12276680090E+01  0.32316846582E+02 -0.59549012984E+01  0.33148438745E+02  0.41800000000E+01 0.  1.
         -5    1    4    4    0  501 -0.15932011383E+02 -0.70905871530E+02  0.12372303514E+03  0.14354906280E+03  0.41800000000E+01 0.  1.
</event>
<event>
11    1  0.6930157E-009  0.1809314E+03  0.7561462E-02  0.1068892E+00
         22   -1    0    0    0    0  0.00000000000E+00  0.00000000000E+00  0.64856976816E+03  0.64856976816E+03  0.00000000000E+00 0.  1.
         22   -1    0    0    0    0 -0.00000000000E+00 -0.00000000000E+00 -0.49195086911E+03  0.49195086911E+03  0.00000000000E+00 0. -1.
        -24    2    1    2    0    0  0.77726605518E+01  0.12706044557E+03 -0.40916273175E+03  0.43831376848E+03  0.92195702203E+02 0.  0.
         25    2    1    2    0    0  0.43668980617E+02 -0.23623227634E+03  0.39367522396E+03  0.47784617885E+03  0.12507645833E+03 0.  0.
         24    2    1    2    0    0 -0.51441641169E+02  0.10917183077E+03  0.17210640684E+03  0.22436068994E+03  0.78437062879E+02 0.  0.
        -11    1    5    5    0    0  0.26999613908E+01  0.74212605112E+02  0.12159029638E+03  0.14247456167E+03  0.00000000000E+00 0.  1.
         12    1    5    5    0    0 -0.54141602559E+02  0.34959225655E+02  0.50516110458E+02  0.81886128263E+02  0.00000000000E+00 0. -1.
         11    1    3    3    0    0  0.41469441539E+02  0.11214075794E+03 -0.33005319549E+03  0.35104184369E+03  0.00000000000E+00 0. -1.
        -12    1    3    3    0    0 -0.33696780987E+02  0.14919687627E+02 -0.79109536265E+02  0.87271924786E+02  0.00000000000E+00 0.  1.
          5    1    4    4  501    0 -0.36668487146E+02 -0.81762896240E+02  0.18823189835E+03  0.20851491339E+03  0.41800000000E+01 0. -1.
         -5    1    4    4    0  501  0.80337467763E+02 -0.15446938010E+03  0.20544332561E+03  0.26933126546E+03  0.41800000000E+01 0. -1.
</event>
<event>
11    1  0.6930157E-009  0.1604422E+03  0.7561462E-02  0.1086662E+00
         22   -1    0    0    0    0  0.00000000000E+00  0.00000000000E+00  0.16932775036E+03  0.16932775036E+03  0.00000000000E+00 0. -1.
         22   -1    0    0    0    0 -0.00000000000E+00 -0.00000000000E+00 -0.18722130846E+04  0.18722130846E+04  0.00000000000E+00 0.  1.
        -24    2    1    2    0    0  0.34747649588E+02  0.10958630676E+03 -0.15943139010E+04  0.16005320174E+04  0.81543644977E+02 0.  0.
         25    2    1    2    0    0  0.29454389393E+01 -0.26386788722E+02 -0.23374188019E+03  0.26643054775E+03  0.12508010229E+03 0.  0.
         24    2    1    2    0    0 -0.37693088527E+02 -0.83199518039E+02  0.12517044689E+03  0.17457826987E+03  0.80417677234E+02 0.  0.
        -13    1    5    5    0    0 -0.24026567482E+02 -0.71547881539E+02  0.36005732138E+02  0.83622891869E+02  0.00000000000E+00 0.  1.
         14    1    5    5    0    0 -0.13666521046E+02 -0.11651636500E+02  0.89164714753E+02  0.90955378002E+02  0.00000000000E+00 0. -1.
         11    1    3    3    0    0  0.54298800933E+02  0.55492059110E+02 -0.68160062637E+03  0.68600812115E+03  0.00000000000E+00 0. -1.
        -12    1    3    3    0    0 -0.19551151345E+02  0.54094247651E+02 -0.91271327462E+03  0.91452389625E+03  0.00000000000E+00 0.  1.
          5    1    4    4  501    0 -0.29437690393E+02 -0.57600468395E+02 -0.65197033929E+02  0.91937572342E+02  0.41800000000E+01 0. -1.
         -5    1    4    4    0  501  0.32383129332E+02  0.31213679673E+02 -0.16854484626E+03  0.17449297540E+03  0.41800000000E+01 0. -1.
</event>
<event>
11    1  0.6930157E-009  0.1262338E+03  0.7561462E-02  0.1123985E+00
         22   -1    0    0    0    0  0.00000000000E+00  0.00000000000E+00  0.14256224199E+04  0.14256224199E+04  0.00000000000E+00 0.  1.
         22   -1    0    0    0    0 -0.00000000000E+00 -0.00000000000E+00 -0.18526073735E+03  0.18526073735E+03  0.00000000000E+00 0. -1.
        -24    2    1    2    0    0  0.16820420500E+02 -0.78039722253E-02 -0.16687169649E+03  0.18712529008E+03  0.82986652487E+02 0.  0.
         25    2    1    2    0    0 -0.26347530057E+02  0.95416743113E+01  0.67571411422E+03  0.68776602597E+03  0.12508919391E+03 0.  0.
         24    2    1    2    0    0  0.95271095575E+01 -0.95338703391E+01  0.73151926486E+03  0.73599184124E+03  0.79886763666E+02 0.  0.
        -13    1    5    5    0    0  0.10414495547E+02 -0.83856930349E+01  0.73345261730E+03  0.73357448387E+03  0.00000000000E+00 0.  1.
         14    1    5    5    0    0 -0.88738598937E+00 -0.11481773041E+01 -0.19333524357E+01  0.24173573705E+01  0.00000000000E+00 0. -1.
         11    1    3    3    0    0 -0.24093407372E+02 -0.20034059703E+02 -0.10935215837E+03  0.11375302356E+03  0.00000000000E+00 0. -1.
        -12    1    3    3    0    0  0.40913827872E+02  0.20026255731E+02 -0.57519538118E+02  0.73372266525E+02  0.00000000000E+00 0.  1.
          5    1    4    4  501    0  0.96099109175E+01  0.58678428367E+02  0.45059949709E+03  0.45452490308E+03  0.41800000000E+01 0.  1.
         -5    1    4    4    0  501 -0.35957440975E+02 -0.49136754056E+02  0.22511461713E+03  0.23324112289E+03  0.41800000000E+01 0.  1.
</event>
<event>
11    1  0.6930157E-009  0.1885163E+03  0.7561462E-02  0.1062955E+00
         22   -1    0    0    0    0  0.00000000000E+00  0.00000000000E+00  0.20265027576E+03  0.20265027576E+03  0.00000000000E+00 0. -1.
         22   -1    0    0    0    0 -0.00000000000E+00 -0.00000000000E+00 -0.28583450960E+03  0.28583450960E+03  0.00000000000E+00 0.  1.
         24    2    1    2    0    0 -0.68590349692E+01 -0.12396770322E+03 -0.55226878467E+02  0.15381332979E+03  0.72065903964E+02 0.  0.
         25    2    1    2    0    0 -0.48660509651E+02  0.16677949542E+03 -0.63657419905E+02  0.22334201076E+03  0.12508453690E+03 0.  0.
        -24    2    1    2    0    0  0.55519544620E+02 -0.42811792199E+02  0.35700064531E+02  0.11132944481E+03  0.78768529812E+02 0.  0.
        -13    1    3    3    0    0 -0.36263251968E+02 -0.96259521310E+02 -0.44008614832E+02  0.11188242519E+03  0.00000000000E+00 0.  1.
         14    1    3    3    0    0  0.29404216999E+02 -0.27708181908E+02 -0.11218263636E+02  0.41930904605E+02  0.00000000000E+00 0. -1.
         11    1    5    5    0    0  0.13878278650E+02 -0.19326957522E+02  0.54881760281E+02  0.59817602066E+02  0.00000000000E+00 0. -1.
        -12    1    5    5    0    0  0.41641265970E+02 -0.23484834676E+02 -0.19181695750E+02  0.51511842747E+02  0.00000000000E+00 0.  1.
          5    1    4    4  501    0 -0.45871817848E+00  0.15496984514E+03 -0.18522385021E+02  0.15612947983E+03  0.41800000000E+01 0. -1.
         -5    1    4    4    0  501 -0.48201791473E+02  0.11809650280E+02 -0.45135034884E+02  0.67212530937E+02  0.41800000000E+01 0. -1.
</event>
<event>
11    1  0.6930157E-009  0.1298997E+03  0.7561462E-02  0.1119392E+00
         22   -1    0    0    0    0  0.00000000000E+00  0.00000000000E+00  0.21858538904E+04  0.21858538904E+04  0.00000000000E+00 0. -1.
         22   -1    0    0    0    0 -0.00000000000E+00 -0.00000000000E+00 -0.37926579649E+03  0.37926579649E+03  0.00000000000E+00 0.  1.
        -24    2    1    2    0    0 -0.10802464685E+02  0.33335596872E+02 -0.36774158653E+03  0.37828134097E+03  0.81455160692E+02 0.  0.
         25    2    1    2    0    0  0.34589811115E+02 -0.25383361287E+02  0.89219572662E+03  0.90194237338E+03  0.12508421261E+03 0.  0.
         24    2    1    2    0    0 -0.23787346431E+02 -0.79522355852E+01  0.12821339538E+04  0.12848959726E+04  0.80381022735E+02 0.  0.
        -13    1    5    5    0    0 -0.53616667775E+01  0.16701717953E+01  0.47849767965E+01  0.73778687574E+01  0.00000000000E+00 0.  1.
         14    1    5    5    0    0 -0.18425679653E+02 -0.96224073805E+01  0.12773489770E+04  0.12775181038E+04  0.00000000000E+00 0. -1.
         11    1    3    3    0    0 -0.62747274940E+00 -0.20260108679E+02 -0.30276586664E+02  0.36435386999E+02  0.00000000000E+00 0. -1.
        -12    1    3    3    0    0 -0.10174991935E+02  0.53595705552E+02 -0.33746499986E+03  0.34184595397E+03  0.00000000000E+00 0.  1.
          5    1    4    4  501    0 -0.86969275478E+01  0.33042017379E+02  0.88584718110E+02  0.95037551231E+02  0.41800000000E+01 0. -1.
         -5    1    4    4    0  501  0.43286738663E+02 -0.58425378666E+02  0.80361100851E+03  0.80690482215E+03  0.41800000000E+01 0. -1.
</event>
<event>
11    1  0.6930157E-009  0.1576577E+03  0.7561462E-02  0.1089301E+00
         22   -1    0    0    0    0  0.00000000000E+00  0.00000000000E+00  0.89684784590E+03  0.89684784590E+03  0.00000000000E+00 0.  1.
         22   -1    0    0    0    0 -0.00000000000E+00 -0.00000000000E+00 -0.68747726963E+03  0.68747726963E+03  0.00000000000E+00 0.  1.
        -24    2    1    2    0    0  0.85288829208E+00 -0.85538546911E+02 -0.44863381714E+03  0.46381413638E+03  0.80831187073E+02 0.  0.
         25    2    1    2    0    0 -0.46473257520E+01  0.15611533259E+03 -0.18425417886E+03  0.27201368118E+03  0.12509294791E+03 0.  0.
         24    2    1    2    0    0  0.37944374599E+01 -0.70576785676E+02  0.84225857226E+03  0.84849729796E+03  0.74516318147E+02 0.  0.
        -13    1    5    5    0    0  0.35513161375E+02 -0.37256879091E+02  0.57587625462E+03  0.57817187783E+03  0.00000000000E+00 0.  1.
         14    1    5    5    0    0 -0.31718723915E+02 -0.33319906584E+02  0.26638231764E+03  0.27032542014E+03  0.00000000000E+00 0. -1.
         13    1    3    3    0    0 -0.11001859648E+02  0.23511742056E+01 -0.19123343436E+03  0.19156407637E+03  0.00000000000E+00 0. -1.
        -14    1    3    3    0    0  0.11854747940E+02 -0.87889721116E+02 -0.25740038277E+03  0.27225006001E+03  0.00000000000E+00 0.  1.
          5    1    4    4  501    0 -0.32646324596E+02  0.13674671906E+03 -0.19085488951E+03  0.23708333753E+03  0.41800000000E+01 0.  1.
         -5    1    4    4    0  501  0.27998998844E+02  0.19368613522E+02  0.66007106560E+01  0.34930343645E+02  0.41800000000E+01 0.  1.
</event>
<event>
11    1  0.6930157E-009  0.1370526E+03  0.7561462E-02  0.1110895E+00
         22   -1    0    0    0    0  0.00000000000E+00  0.00000000000E+00  0.40220922012E+03  0.40220922012E+03  0.00000000000E+00 0. -1.
         22   -1    0    0    0    0 -0.00000000000E+00 -0.00000000000E+00 -0.14464536024E+04  0.14464536024E+04  0.00000000000E+00 0.  1.
         24    2    1    2    0    0  0.48123183647E+02 -0.24161199463E+02 -0.12775782700E+04  0.12812055845E+04  0.79886852660E+02 0.  0.
         25    2    1    2    0    0 -0.98013809160E+02  0.38547485971E+02 -0.12007534329E+03  0.20287694906E+03  0.12509337687E+03 0.  0.
        -24    2    1    2    0    0  0.49890625513E+02 -0.14386286508E+02  0.35340923103E+03  0.36458028900E+03  0.72970287096E+02 0.  0.
        -13    1    3    3    0    0  0.27998660829E+02 -0.14124832361E+02 -0.12006053865E+04  0.12010148750E+04  0.00000000000E+00 0.  1.
         14    1    3    3    0    0  0.20124522819E+02 -0.10036367102E+02 -0.76972883562E+02  0.80190709481E+02  0.00000000000E+00 0. -1.
         13    1    5    5    0    0  0.31159023856E+01 -0.35911656771E+02  0.10898340939E+03  0.11478997979E+03  0.00000000000E+00 0. -1.
        -14    1    5    5    0    0  0.46774723127E+02  0.21525370263E+02  0.24442582164E+03  0.24979030921E+03  0.00000000000E+00 0.  1.
          5    1    4    4  501    0 -0.11608276847E+03  0.32065757030E+02 -0.13291424398E+03  0.17940761010E+03  0.41800000000E+01 0.  1.
         -5    1    4    4    0  501  0.18068959307E+02  0.64817289403E+01  0.12838900692E+02  0.23469338966E+02  0.41800000000E+01 0.  1.
</event>
<event>
11    1  0.6930157E-009  0.2113023E+03  0.7561462E-02  0.1046807E+00
         22   -1    0    0    0    0  0.00000000000E+00  0.00000000000E+00  0.24722366843E+04  0.24722366843E+04  0.00000000000E+00 0.  1.
         22   -1    0    0    0    0 -0.00000000000E+00 -0.00000000000E+00 -0.94638057053E+03  0.94638057053E+03  0.00000000000E+00 0. -1.
         24    2    1    2    0    0  0.34821908945E+02 -0.13631845611E+03 -0.25150658516E+03  0.29905257806E+03  0.79884887461E+02 0.  0.
         25    2    1    2    0    0  0.12389097123E+03  0.73411116362E+02 -0.65381645571E+03  0.68107900248E+03  0.12511788484E+03 0.  0.
        -24    2    1    2    0    0 -0.15871288018E+03  0.62907339747E+02  0.24311791546E+04  0.24384856743E+04  0.80207168965E+02 0.  0.
        -13    1    3    3    0    0  0.43294605072E+02 -0.44601713624E+02 -0.59262427257E+02  0.85882308835E+02  0.00000000000E+00 0.  1.
         14    1    3    3    0    0 -0.84726961269E+01 -0.91716742485E+02 -0.19224415791E+03  0.21317026922E+03  0.00000000000E+00 0. -1.
         11    1    5    5    0    0 -0.29877892738E+02 -0.13231465963E+02  0.24180980856E+03  0.24400767136E+03  0.00000000000E+00 0. -1.
        -12    1    5    5    0    0 -0.12883498744E+03  0.76138805710E+02  0.21893693461E+04  0.21944780029E+04  0.00000000000E+00 0.  1.
          5    1    4    4  501    0  0.45607720488E+02  0.29734354884E+02 -0.50019164576E+03  0.50316334417E+03  0.41800000000E+01 0. -1.
         -5    1    4    4    0  501  0.78283250747E+02  0.43676761478E+02 -0.15362480995E+03  0.17791565831E+03  0.41800000000E+01 0. -1.
</event>
<event>
11    1  0.6930157E-009  0.1324915E+03  0.7561462E-02  0.1116245E+00
         22   -1    0    0    0    0  0.00000000000E+00  0.00000000000E+00  0.57406487194E+02  0.57406487194E+02  0.00000000000E+00 0.  1.
         22   -1    0    0    0    0 -0.00000000000E+00 -0.00000000000E+00 -0.33119143588E+04  0.33119143588E+04  0.00000000000E+00 0. -1.
         24    2    1    2    0    0  0.32108254124E+02 -0.31069527801E+02 -0.29610747314E+04  0.29624719875E+04  0.79249333334E+02 0.  0.
         25    2    1    2    0    0 -0.33186030387E+02  0.18280383624E+00 -0.29281495262E+03  0.32013660444E+03  0.12508198509E+03 0.  0.
        -24    2    1    2    0    0  0.10777762631E+01  0.30886723965E+02 -0.61818758738E+00  0.86712253960E+02  0.81015316526E+02 0.  0.
        -13    1    3    3    0    0  0.14387943261E+02 -0.11823609429E+02 -0.13524256800E+03  0.13651872711E+03  0.00000000000E+00 0.  1.
         14    1    3    3    0    0  0.17720310863E+02 -0.19245918373E+02 -0.28258321633E+04  0.28259532604E+04  0.00000000000E+00 0. -1.
         13    1    5    5    0    0  0.47732253600E+01 -0.14637398551E+02 -0.29074307075E+02  0.32899125346E+02  0.00000000000E+00 0. -1.
        -14    1    5    5    0    0 -0.36954490970E+01  0.45524122516E+02  0.28456119487E+02  0.53813128613E+02  0.00000000000E+00 0.  1.
          5    1    4    4  501    0  0.24173114885E+02 -0.35188139188E+02 -0.20460228618E+03  0.20905050235E+03  0.41800000000E+01 0.  1.
         -5    1    4    4    0  501 -0.57359145272E+02  0.35370943024E+02 -0.88212666445E+02  0.11108610209E+03  0.41800000000E+01 0.  1.
</event>
<event>
11    1  0.6930157E-009  0.1380277E+03  0.7561462E-02  0.1109781E+00
         22   -1    0    0    0    0  0.00000000000E+00  0.00000000000E+00  0.26241724674E+04  0.26241724674E+04  0.00000000000E+00 0.  1.
         22   -1    0    0    0    0 -0.00000000000E+00 -0.00000000000E+00 -0.20789545210E+03  0.20789545210E+03  0.00000000000E+00 0.  1.
         24    2    1    2    0    0 -0.47869458913E+02  0.31163560804E+02 -0.17499106182E+03  0.20098198296E+03  0.80679818671E+02 0.  0.
         25    2    1    2    0    0  0.92741287659E+02 -0.19659325285E+02  0.30445065759E+03  0.34252768498E+03  0.12509027364E+03 0.  0.
        -24    2    1    2    0    0 -0.44871828746E+02 -0.11504235518E+02  0.22868174195E+04  0.22885582515E+04  0.76283235994E+02 0.  0.
        -11    1    3    3    0    0 -0.33694118950E+02  0.50244672917E+02 -0.16398329897E+03  0.17478656456E+03  0.00000000000E+00 0.  1.
         12    1    3    3    0    0 -0.14175339963E+02 -0.19081112113E+02 -0.11007762848E+02  0.26195418406E+02  0.00000000000E+00 0. -1.
         13    1    5    5    0    0  0.44045460991E+01  0.26382270006E+02  0.78331408915E+03  0.78377062107E+03  0.00000000000E+00 0. -1.
        -14    1    5    5    0    0 -0.49276374845E+02 -0.37886505524E+02  0.15035033304E+04  0.15047876305E+04  0.00000000000E+00 0.  1.
          5    1    4    4  501    0  0.58645639165E+02  0.51357826821E+02  0.15125534604E+03  0.17021336456E+03  0.41800000000E+01 0.  1.
         -5    1    4    4    0  501  0.34095648494E+02 -0.71017152106E+02  0.15319531156E+03  0.17231432042E+03  0.41800000000E+01 0.  1.
</event>
<event>
11    1  0.6930157E-009  0.1502911E+03  0.7561462E-02  0.1096582E+00
         22   -1    0    0    0    0  0.00000000000E+00  0.00000000000E+00  0.77758467494E+03  0.77758467494E+03  0.00000000000E+00 0.  1.
         22   -1    0    0    0    0 -0.00000000000E+00 -0.00000000000E+00 -0.11169922011E+03  0.11169922011E+03  0.00000000000E+00 0.  1.
        -24    2    1    2    0    0 -0.35073659107E+01 -0.28977011518E+02 -0.39722770346E+02  0.95087909505E+02  0.81313241468E+02 0.  0.
         25    2    1    2    0    0  0.69425488312E+02 -0.25189978277E+02  0.98836226541E+02  0.17570007031E+03  0.12508989406E+03 0.  0.
         24    2    1    2    0    0 -0.65918122402E+02  0.54166989795E+02  0.60677199864E+03  0.61849591524E+03  0.84176464594E+02 0.  0.
        -11    1    5    5    0    0 -0.29238654931E+02  0.10331676502E+02  0.45913490020E+03  0.46018094165E+03  0.00000000000E+00 0.  1.
         12    1    5    5    0    0 -0.36679467471E+02  0.43835313293E+02  0.14763709844E+03  0.15831497358E+03  0.00000000000E+00 0. -1.
         13    1    3    3    0    0  0.23710601612E+02 -0.44240513313E+02 -0.84335949788E+01  0.50897359178E+02  0.00000000000E+00 0. -1.
        -14    1    3    3    0    0 -0.27217967523E+02  0.15263501795E+02 -0.31289175367E+02  0.44190550328E+02  0.00000000000E+00 0.  1.
          5    1    4    4  501    0  0.29113961867E+02  0.14871315748E+02  0.11239133638E+03  0.11712413800E+03  0.41800000000E+01 0. -1.
         -5    1    4    4    0  501  0.40311526446E+02 -0.40061294025E+02 -0.13555109841E+02  0.58575932311E+02  0.41800000000E+01 0. -1.
</event>
<event>
11    1  0.6930157E-009  0.1852969E+03  0.7561462E-02  0.1065437E+00
         22   -1    0    0    0    0  0.00000000000E+00  0.00000000000E+00  0.12198541868E+04  0.12198541868E+04  0.00000000000E+00 0. -1.
         22   -1    0    0    0    0 -0.00000000000E+00 -0.00000000000E+00 -0.15101617437E+04  0.15101617437E+04  0.00000000000E+00 0. -1.
        -24    2    1    2    0    0  0.62485596689E+01  0.12291868374E+02 -0.14838421943E+04  0.14861501210E+04  0.81635715027E+02 0.  0.
         25    2    1    2    0    0 -0.66091429206E+02  0.11397618544E+03  0.50186426356E+03  0.53373692032E+03  0.12509481691E+03 0.  0.
         24    2    1    2    0    0  0.59842869537E+02 -0.12626805382E+03  0.69167037385E+03  0.71012888918E+03  0.79689037745E+02 0.  0.
        -13    1    5    5    0    0  0.91002753570E+01 -0.83600830099E+01  0.84872998292E+01  0.14991339430E+02  0.00000000000E+00 0.  1.
         14    1    5    5    0    0  0.50742594180E+02 -0.11790797081E+03  0.68318307402E+03  0.69513754975E+03  0.00000000000E+00 0. -1.
         13    1    3    3    0    0  0.59154522545E+01 -0.70208349459E+01 -0.14030871031E+04  0.14031171382E+04  0.00000000000E+00 0. -1.
        -14    1    3    3    0    0  0.33310741439E+00  0.19312703320E+02 -0.80755091282E+02  0.83032982833E+02  0.00000000000E+00 0.  1.
          5    1    4    4  501    0 -0.96617813021E+02  0.92890782948E+02  0.30223810931E+03  0.33064943138E+03  0.41800000000E+01 0.  1.
         -5    1    4    4    0  501  0.30526383815E+02  0.21085402494E+02  0.19962615425E+03  0.20308748895E+03  0.41800000000E+01 0.  1.
</event>
<event>
11    1  0.6930157E-009  0.1360436E+03  0.7561462E-02  0.1112059E+00
         22   -1    0    0    0    0  0.00000000000E+00  0.00000000000E+00  0.10539987443E+04  0.10539987443E+04  0.00000000000E+00 0.  1.
         22   -1    0    0    0    0 -0.00000000000E+00 -0.00000000000E+00 -0.29697519698E+03  0.29697519698E+03  0.00000000000E+00 0.  1.
        -24    2    1    2    0    0 -0.80427244356E+02 -0.35582611753E+01 -0.14731154073E+03  0.18570556917E+03  0.79401923989E+02 0.  0.
         25    2    1    2    0    0  0.94364468194E+01  0.73474220049E+01 -0.96689533690E+02  0.15855588880E+03  0.12509225719E+03 0.  0.
         24    2    1    2    0    0  0.70990797536E+02 -0.37891608296E+01  0.10010246217E+04  0.10067124833E+04  0.79785209398E+02 0.  0.
        -13    1    5    5    0    0  0.75012655301E+02 -0.24167768704E+02  0.90716654109E+03  0.91058339144E+03  0.00000000000E+00 0.  1.
         14    1    5    5    0    0 -0.40218577647E+01  0.20378607874E+02  0.93858080607E+02  0.96129091819E+02  0.00000000000E+00 0. -1.
         13    1    3    3    0    0 -0.34803583041E+02  0.65594068278E+01 -0.48154699363E+01  0.35742187414E+02  0.00000000000E+00 0. -1.
        -14    1    3    3    0    0 -0.45623661314E+02 -0.10117668003E+02 -0.14249607079E+03  0.14996338176E+03  0.00000000000E+00 0.  1.
          5    1    4    4  501    0 -0.33188027406E+02  0.40512561456E+02 -0.59443045340E+01  0.52872676830E+02  0.41800000000E+01 0.  1.
         -5    1    4    4    0  501  0.42624474226E+02 -0.33165139451E+02 -0.90745229156E+02  0.10568321197E+03  0.41800000000E+01 0.  1.
</event>
<event>
11    1  0.6930157E-009  0.1442010E+03  0.7561462E-02  0.1102956E+00
         22   -1    0    0    0    0  0.00000000000E+00  0.00000000000E+00  0.32775009588E+03  0.32775009588E+03  0.00000000000E+00 0.  1.
         22   -1    0    0    0    0 -0.00000000000E+00 -0.00000000000E+00 -0.48118837144E+03  0.48118837144E+03  0.00000000000E+00 0.  1.
        -24    2    1    2    0    0 -0.59740505923E+02  0.34418855709E+02 -0.38125761428E+03  0.39554293416E+03  0.79644576997E+02 0.  0.
         25    2    1    2    0    0  0.10749104494E+03 -0.20668491915E+02  0.20780538261E+00  0.16622361188E+03  0.12509490262E+03 0.  0.
         24    2    1    2    0    0 -0.47750539014E+02 -0.13750363795E+02  0.22761153334E+03  0.24717192128E+03  0.82569740701E+02 0.  0.
        -11    1    5    5    0    0 -0.25096199313E+00  0.26825288367E+02  0.11797388404E+03  0.12098552142E+03  0.00000000000E+00 0.  1.
         12    1    5    5    0    0 -0.47499577021E+02 -0.40575652162E+02  0.10963764930E+03  0.12618639986E+03  0.00000000000E+00 0. -1.
         13    1    3    3    0    0 -0.24518620316E+02  0.57170449800E+02 -0.19763940229E+03  0.20719786777E+03  0.00000000000E+00 0. -1.
        -14    1    3    3    0    0 -0.35221885607E+02 -0.22751594091E+02 -0.18361821199E+03  0.18834506639E+03  0.00000000000E+00 0.  1.
          5    1    4    4  501    0  0.98779406415E+02  0.81257250573E+01 -0.47249861367E+02  0.10987911694E+03  0.41800000000E+01 0. -1.
         -5    1    4    4    0  501  0.87116385219E+01 -0.28794216972E+02  0.47457666749E+02  0.56344494940E+02  0.41800000000E+01 0. -1.
</event>
<event>
11    1  0.6930157E-009  0.1874743E+03  0.7561462E-02  0.1063752E+00
         22   -1    0    0    0    0  0.00000000000E+00  0.00000000000E+00  0.12839941110E+03  0.12839941110E+03  0.00000000000E+00 0.  1.
         22   -1    0    0    0    0 -0.00000000000E+00 -0.00000000000E+00 -0.10724738054E+04  0.10724738054E+04  0.00000000000E+00 0. -1.
        -24    2    1    2    0    0  0.29895884518E+02 -0.14511138882E+02 -0.60614934853E+03  0.61238431512E+03  0.80580268114E+02 0.  0.
         25    2    1    2    0    0 -0.11452099789E+03 -0.95308845566E+02 -0.37611968313E+03  0.42345308551E+03  0.12509062548E+03 0.  0.
         24    2    1    2    0    0  0.84625113371E+02  0.10981998445E+03  0.38194637413E+02  0.16503581584E+03  0.80970064746E+02 0.  0.
        -11    1    5    5    0    0  0.88309072138E+02  0.11673234927E+03  0.46537184877E+02  0.15359245803E+03  0.00000000000E+00 0.  1.
         12    1    5    5    0    0 -0.36839587664E+01 -0.69123648248E+01 -0.83425474632E+01  0.11443357804E+02  0.00000000000E+00 0. -1.
         13    1    3    3    0    0  0.26039280926E+02 -0.28818080884E+01 -0.59571598240E+03  0.59629177477E+03  0.00000000000E+00 0. -1.
        -14    1    3    3    0    0  0.38566035916E+01 -0.11629330793E+02 -0.10433366133E+02  0.16092540347E+02  0.00000000000E+00 0.  1.
          5    1    4    4  501    0 -0.13655608987E+01 -0.34947726662E+02 -0.11720974804E+02  0.37122257552E+02  0.41800000000E+01 0. -1.
         -5    1    4    4    0  501 -0.11315543699E+03 -0.60361118905E+02 -0.36439870833E+03  0.38633082796E+03  0.41800000000E+01 0. -1.
</event>
<event>
11    1  0.6930157E-009  0.1369258E+03  0.7561462E-02  0.1111041E+00
         22   -1    0    0    0    0  0.00000000000E+00  0.00000000000E+00  0.13441830518E+03  0.13441830518E+03  0.00000000000E+00 0. -1.
         22   -1    0    0    0    0 -0.00000000000E+00 -0.00000000000E+00 -0.95486237103E+03  0.95486237103E+03  0.00000000000E+00 0. -1.
        -24    2    1    2    0    0 -0.23350060709E+02 -0.34541533773E+01 -0.47392512860E+03  0.48132731560E+03  0.80708120487E+02 0.  0.
         25    2    1    2    0    0 -0.93384840225E+01 -0.42460414996E+02 -0.44773943191E+03  0.46691393872E+03  0.12509169897E+03 0.  0.
         24    2    1    2    0    0  0.32688544732E+02  0.45914568373E+02  0.10122049466E+03  0.14103942190E+03  0.80435324607E+02 0.  0.
        -13    1    5    5    0    0 -0.19692275595E+02 -0.87233283570E+01  0.31311918747E+02  0.38004189655E+02  0.00000000000E+00 0.  1.
         14    1    5    5    0    0  0.52380820327E+02  0.54637896730E+02  0.69908575909E+02  0.10303523224E+03  0.00000000000E+00 0. -1.
         13    1    3    3    0    0  0.57877932911E+01  0.32860478292E+02 -0.27548813813E+03  0.27750139430E+03  0.00000000000E+00 0. -1.
        -14    1    3    3    0    0 -0.29137854000E+02 -0.36314631669E+02 -0.19843699046E+03  0.20382592130E+03  0.00000000000E+00 0.  1.
          5    1    4    4  501    0 -0.16663274241E+02 -0.24970453601E+02 -0.44642465195E+03  0.44745237794E+03  0.41800000000E+01 0.  1.
         -5    1    4    4    0  501  0.73247902188E+01 -0.17489961395E+02 -0.13147799664E+01  0.19461560773E+02  0.41800000000E+01 0.  1.
</event>
<event>
11    1  0.6930157E-009  0.2221647E+03  0.7561462E-02  0.1039870E+00
         22   -1    0    0    0    0  0.00000000000E+00  0.00000000000E+00  0.52315946707E+03  0.52315946707E+03  0.00000000000E+00 0. -1.
         22   -1    0    0    0    0 -0.00000000000E+00 -0.00000000000E+00 -0.10902300178E+04  0.10902300178E+04  0.00000000000E+00 0.  1.
         24    2    1    2    0    0  0.79041311173E+02  0.17881531428E+03 -0.94574009819E+03  0.96967920915E+03  0.87355536944E+02 0.  0.
         25    2    1    2    0    0 -0.39105208518E+02 -0.11681432215E+03 -0.64723714937E+02  0.18711844446E+03  0.12509736124E+03 0.  0.
        -24    2    1    2    0    0 -0.39936102655E+02 -0.62000992134E+02  0.44339326237E+03  0.45659183129E+03  0.80246495021E+02 0.  0.
        -13    1    3    3    0    0  0.49860610344E+02  0.29297092886E+02 -0.18470522377E+03  0.19354694470E+03  0.00000000000E+00 0.  1.
         14    1    3    3    0    0  0.29180700830E+02  0.14951822140E+03 -0.76103487442E+03  0.77613226445E+03  0.00000000000E+00 0. -1.
         11    1    5    5    0    0 -0.30157030640E+02 -0.57123678109E+02  0.15408262072E+03  0.16707487874E+03  0.00000000000E+00 0. -1.
        -12    1    5    5    0    0 -0.97790720157E+01 -0.48773140246E+01  0.28931064165E+03  0.28951695255E+03  0.00000000000E+00 0.  1.
          5    1    4    4  501    0  0.45663233757E+01 -0.11761236575E+03 -0.78015916974E+02  0.14127092973E+03  0.41800000000E+01 0.  1.
         -5    1    4    4    0  501 -0.43671531894E+02  0.79804359957E+00  0.13292202037E+02  0.45847514726E+02  0.41800000000E+01 0.  1.
</event>
<event>
11    1  0.6930157E-009  0.1471809E+03  0.7561462E-02  0.1099795E+00
         22   -1    0    0    0    0  0.00000000000E+00  0.00000000000E+00  0.36157949139E+03  0.36157949139E+03  0.00000000000E+00 0. -1.
         22   -1    0    0    0    0 -0.00000000000E+00 -0.00000000000E+00 -0.46886376449E+03  0.46886376449E+03  0.00000000000E+00 0.  1.
        -24    2    1    2    0    0 -0.32480966538E+02 -0.40450908868E+02 -0.33610379766E+03  0.34889063149E+03  0.77894933872E+02 0.  0.
         25    2    1    2    0    0  0.28067822344E+02  0.11473212571E+03 -0.52534146565E+02  0.17988543513E+03  0.12509064672E+03 0.  0.
         24    2    1    2    0    0  0.44131441938E+01 -0.74281216837E+02  0.28135367112E+03  0.30166718927E+03  0.79410514483E+02 0.  0.
        -13    1    5    5    0    0 -0.33502844505E+02 -0.52108201741E+02  0.12892398977E+03  0.14303531178E+03  0.00000000000E+00 0.  1.
         14    1    5    5    0    0  0.37915988699E+02 -0.22173015096E+02  0.15242968135E+03  0.15863187748E+03  0.00000000000E+00 0. -1.
         13    1    3    3    0    0  0.13356668204E+02 -0.21083773155E+02 -0.31207841527E+02  0.39960673777E+02  0.00000000000E+00 0. -1.
        -14    1    3    3    0    0 -0.45837634743E+02 -0.19367135713E+02 -0.30489595613E+03  0.30892995771E+03  0.00000000000E+00 0.  1.
          5    1    4    4  501    0 -0.47880582890E+02  0.66031989925E+02 -0.27194905756E+02  0.86080248666E+02  0.41800000000E+01 0. -1.
         -5    1    4    4    0  501  0.75948405234E+02  0.48700135780E+02 -0.25339240809E+02  0.93805186463E+02  0.41800000000E+01 0. -1.
</event>
<event>
11    1  0.6930157E-009  0.1335219E+03  0.7561462E-02  0.1115016E+00
         22   -1    0    0    0    0  0.00000000000E+00  0.00000000000E+00  0.35680321806E+03  0.35680321806E+03  0.00000000000E+00 0. -1.
         22   -1    0    0    0    0 -0.00000000000E+00 -0.00000000000E+00 -0.19019660265E+03  0.19019660265E+03  0.00000000000E+00 0.  1.
         24    2    1    2    0    0  0.35373406569E+02  0.20552320743E+02 -0.35010140315E+02  0.97985069288E+02  0.81863838771E+02 0.  0.
         25    2    1    2    0    0 -0.51306933334E+02 -0.18169435194E+02 -0.77601876711E+02  0.15694822097E+03  0.12509261774E+03 0.  0.
        -24    2    1    2    0    0  0.15933526766E+02 -0.23828855493E+01  0.27921863244E+03  0.29206653045E+03  0.84144269478E+02 0.  0.
        -11    1    3    3    0    0  0.25872722375E+02  0.24903338387E+02 -0.60545619181E+02  0.70394218711E+02  0.00000000000E+00 0.  1.
         12    1    3    3    0    0  0.95006841935E+01 -0.43510176439E+01  0.25535478866E+02  0.27590850577E+02  0.00000000000E+00 0. -1.
         13    1    5    5    0    0  0.39255126481E+02  0.11414953141E+02  0.24515113430E+03  0.24853640530E+03  0.00000000000E+00 0. -1.
        -14    1    5    5    0    0 -0.23321599715E+02 -0.13797838690E+02  0.34067498142E+02  0.43530125148E+02  0.00000000000E+00 0.  1.
          5    1    4    4  501    0 -0.54225977940E+02  0.21204706469E+01  0.19349542326E+02  0.57765303319E+02  0.41800000000E+01 0.  1.
         -5    1    4    4    0  501  0.29190446062E+01 -0.20289905841E+02 -0.96951419037E+02  0.99182917651E+02  0.41800000000E+01 0.  1.
</event>
<event>
11    1  0.1158223E-008  0.1815285E+03  0.7561462E-02  0.1068413E+00
         22   -1    0    0    0    0  0.00000000000E+00  0.00000000000E+00  0.15426316765E+04  0.15426316765E+04  0.00000000000E+00 0. -1.
         22   -1    0    0    0    0 -0.00000000000E+00 -0.00000000000E+00 -0.36858619657E+03  0.36858619657E+03  0.00000000000E+00 0. -1.
        -24    2    1    2    0    0  0.42467101905E+02 -0.16491361462E+02 -0.18737632444E+03  0.20874101216E+03  0.79921858377E+02 0.  0.
         25    2    1    2    0    0 -0.15696040602E+03 -0.46867420652E+02 -0.10268083389E+03  0.23026807467E+03  0.12508760285E+03 0.  0.
         24    2    1    2    0    0  0.11449330411E+03  0.63358782114E+02  0.14641026383E+04  0.14722087862E+04  0.81725901569E+02 0.  0.
        -11    1    5    5    0    0  0.16217488515E+02 -0.14253379265E+02  0.43161671628E+03  0.43215640169E+03  0.00000000000E+00 0.  1.
         12    1    5    5    0    0  0.98275815598E+02  0.77612161379E+02  0.10324859220E+04  0.10400523845E+04  0.00000000000E+00 0. -1.
         11    1    3    3    0    0  0.35062526048E+02  0.27384244558E+02 -0.12015694783E+03  0.12812872314E+03  0.00000000000E+00 0. -1.
        -12    1    3    3    0    0  0.74045758563E+01 -0.43875606020E+02 -0.67219376619E+02  0.80612289015E+02  0.00000000000E+00 0.  1.
          5    1    4    4  501    0 -0.13409223773E+03 -0.35348238780E+02 -0.15843453515E+02  0.13963779439E+03  0.41800000000E+01 0. -1.
         -5    1    4    4    0  501 -0.22868168289E+02 -0.11519181872E+02 -0.86837380377E+02  0.90630280274E+02  0.41800000000E+01 0. -1.
</event>
<event>
11    1  0.6930157E-009  0.1366639E+03  0.7561462E-02  0.1111342E+00
         22   -1    0    0    0    0  0.00000000000E+00  0.00000000000E+00  0.61875957370E+03  0.61875957370E+03  0.00000000000E+00 0. -1.
         22   -1    0    0    0    0 -0.00000000000E+00 -0.00000000000E+00 -0.82141057955E+03  0.82141057955E+03  0.00000000000E+00 0. -1.
        -24    2    1    2    0    0 -0.46494113615E+02  0.29715698802E+02 -0.78555317660E+03  0.79147529184E+03  0.79338634824E+02 0.  0.
         25    2    1    2    0    0  0.27599960109E+02 -0.45306305123E+02  0.12970100268E+03  0.18784050432E+03  0.12508911177E+03 0.  0.
         24    2    1    2    0    0  0.18894153505E+02  0.15590606321E+02  0.45320116806E+03  0.46085435709E+03  0.79971142798E+02 0.  0.
        -13    1    5    5    0    0  0.29602127404E+02  0.21960051399E+02  0.87566594138E+02  0.95007569241E+02  0.00000000000E+00 0.  1.
         14    1    5    5    0    0 -0.10707973898E+02 -0.63694450776E+01  0.36563457392E+03  0.36584678785E+03  0.00000000000E+00 0. -1.
         11    1    3    3    0    0 -0.34980666094E+02  0.29708500831E+02 -0.77330354315E+03  0.77466419297E+03  0.00000000000E+00 0. -1.
        -12    1    3    3    0    0 -0.11513447521E+02  0.71979713958E-02 -0.12249633446E+02  0.16811098869E+02  0.00000000000E+00 0.  1.
          5    1    4    4  501    0  0.26908114941E+02 -0.88411968088E+02  0.85949023228E+02  0.12627521429E+03  0.41800000000E+01 0. -1.
         -5    1    4    4    0  501  0.69184516787E+00  0.43105662965E+02  0.43751979454E+02  0.61565290022E+02  0.41800000000E+01 0. -1.
</event>
<event>
11    1  0.6930157E-009  0.1873363E+03  0.7561462E-02  0.1063858E+00
         22   -1    0    0    0    0  0.00000000000E+00  0.00000000000E+00  0.10768759624E+04  0.10768759624E+04  0.00000000000E+00 0. -1.
         22   -1    0    0    0    0 -0.00000000000E+00 -0.00000000000E+00 -0.24665754974E+04  0.24665754974E+04  0.00000000000E+00 0. -1.
         24    2    1    2    0    0 -0.15722779003E+02 -0.19830987563E+01 -0.21405649959E+04  0.21422579783E+04  0.83663645010E+02 0.  0.
         25    2    1    2    0    0 -0.31847603120E+01  0.14015316619E+03 -0.29141504932E+03  0.34673189308E+03  0.12508885647E+03 0.  0.
        -24    2    1    2    0    0  0.18907539315E+02 -0.13817006744E+03  0.10422805102E+04  0.10544615884E+04  0.78052013822E+02 0.  0.
        -11    1    3    3    0    0  0.23093721452E+02 -0.25851595153E+02 -0.12969861222E+04  0.12974492769E+04  0.00000000000E+00 0.  1.
         12    1    3    3    0    0 -0.38816500456E+02  0.23868496396E+02 -0.84357887372E+03  0.84480870143E+03  0.00000000000E+00 0. -1.
         11    1    5    5    0    0  0.42468342357E+02 -0.12440327895E+03  0.90480287070E+03  0.91430190350E+03  0.00000000000E+00 0. -1.
        -12    1    5    5    0    0 -0.23560803041E+02 -0.13766788487E+02  0.13747763952E+03  0.14015968491E+03  0.00000000000E+00 0.  1.
          5    1    4    4  501    0  0.64617906269E+01  0.86781508045E+02 -0.52533575523E+02  0.10173511603E+03  0.41800000000E+01 0.  1.
         -5    1    4    4    0  501 -0.96465509389E+01  0.53371658146E+02 -0.23888147380E+03  0.24499677705E+03  0.41800000000E+01 0.  1.
</event>
<event>
11    1  0.6930157E-009  0.1410885E+03  0.7561462E-02  0.1106349E+00
         22   -1    0    0    0    0  0.00000000000E+00  0.00000000000E+00  0.45127714874E+03  0.45127714874E+03  0.00000000000E+00 0. -1.
         22   -1    0    0    0    0 -0.00000000000E+00 -0.00000000000E+00 -0.70677600020E+03  0.70677600020E+03  0.00000000000E+00 0.  1.
         24    2    1    2    0    0  0.32615449443E+02  0.20196207215E+02 -0.52322280332E+03  0.53059740006E+03  0.79371561046E+02 0.  0.
         25    2    1    2    0    0 -0.16226612896E+02 -0.82933415151E+02 -0.14044515637E+03  0.20618490113E+03  0.12508444026E+03 0.  0.
        -24    2    1    2    0    0 -0.16388836547E+02  0.62737207935E+02  0.40816910822E+03  0.42127084775E+03  0.81624475678E+02 0.  0.
        -11    1    3    3    0    0  0.40905405784E+02 -0.10400434415E+02 -0.43133942554E+03  0.43339949387E+03  0.00000000000E+00 0.  1.
         12    1    3    3    0    0 -0.82899563413E+01  0.30596641631E+02 -0.91883377781E+02  0.97197906190E+02  0.00000000000E+00 0. -1.
         13    1    5    5    0    0 -0.20685187316E+02  0.22029677138E+02  0.34289261620E+03  0.34422162903E+03  0.00000000000E+00 0. -1.
        -14    1    5    5    0    0  0.42963507683E+01  0.40707530797E+02  0.65276492025E+02  0.77049218715E+02  0.00000000000E+00 0.  1.
          5    1    4    4  501    0  0.28652347786E+02  0.22251102570E+02 -0.33505050459E+02  0.49559352351E+02  0.41800000000E+01 0. -1.
         -5    1    4    4    0  501 -0.44878960682E+02 -0.10518451772E+03 -0.10694010591E+03  0.15662554878E+03  0.41800000000E+01 0. -1.
</event>
<event>
11    1  0.6930157E-009  0.1340380E+03  0.7561462E-02  0.1114405E+00
         22   -1    0    0    0    0  0.00000000000E+00  0.00000000000E+00  0.28763303942E+03  0.28763303942E+03  0.00000000000E+00 0. -1.
         22   -1    0    0    0    0 -0.00000000000E+00 -0.00000000000E+00 -0.32762800367E+04  0.32762800367E+04  0.00000000000E+00 0.  1.
         24    2    1    2    0    0  0.85428467100E+01  0.30464651796E+01 -0.30531636773E+04  0.30542777332E+04  0.81986399240E+02 0.  0.
         25    2    1    2    0    0  0.15700791560E+02  0.38850634324E+02 -0.19397391294E+03  0.23458392778E+03  0.12509138112E+03 0.  0.
        -24    2    1    2    0    0 -0.24243638270E+02 -0.41897099503E+02  0.25849059303E+03  0.27505141512E+03  0.80577747127E+02 0.  0.
        -13    1    3    3    0    0 -0.50510650378E+01  0.35405596678E+02 -0.23187880741E+04  0.23190638634E+04  0.00000000000E+00 0.  1.
         14    1    3    3    0    0  0.13593911748E+02 -0.32359131498E+02 -0.73437560319E+03  0.73521386983E+03  0.00000000000E+00 0. -1.
         13    1    5    5    0    0 -0.72197212089E+01 -0.44278433351E+02  0.25308683995E+03  0.25703239599E+03  0.00000000000E+00 0. -1.
        -14    1    5    5    0    0 -0.17023917061E+02  0.23813338478E+01  0.54037530808E+01  0.18019019129E+02  0.00000000000E+00 0.  1.
          5    1    4    4  501    0 -0.24183784778E+02  0.32812703391E+02 -0.49676011333E+01  0.41275639439E+02  0.41800000000E+01 0.  1.
         -5    1    4    4    0  501  0.39884576339E+02  0.60379309325E+01 -0.18900631180E+03  0.19330828834E+03  0.41800000000E+01 0.  1.
</event>
<event>
11    1  0.6930157E-009  0.1292673E+03  0.7561462E-02  0.1120173E+00
         22   -1    0    0    0    0  0.00000000000E+00  0.00000000000E+00  0.73281324998E+03  0.73281324998E+03  0.00000000000E+00 0. -1.
         22   -1    0    0    0    0 -0.00000000000E+00 -0.00000000000E+00 -0.67066174236E+03  0.67066174236E+03  0.00000000000E+00 0. -1.
         24    2    1    2    0    0  0.23930928550E+02 -0.22280269009E+02 -0.61452081567E+03  0.62048370802E+03  0.79341661869E+02 0.  0.
         25    2    1    2    0    0 -0.85306688999E+00  0.41521708775E+02  0.35681613699E+02  0.13655087515E+03  0.12509270132E+03 0.  0.
        -24    2    1    2    0    0 -0.23077861660E+02 -0.19241439766E+02  0.64099070959E+03  0.64644040917E+03  0.78187544537E+02 0.  0.
        -11    1    3    3    0    0 -0.49982719152E+01  0.23147471919E+02 -0.85192067146E+02  0.88422149278E+02  0.00000000000E+00 0.  1.
         12    1    3    3    0    0  0.28929200465E+02 -0.45427740928E+02 -0.52932874852E+03  0.53206155875E+03  0.00000000000E+00 0. -1.
         13    1    5    5    0    0  0.17974099104E+01 -0.35310329169E+01  0.56408844573E+03  0.56410236081E+03  0.00000000000E+00 0. -1.
        -14    1    5    5    0    0 -0.24875271570E+02 -0.15710406849E+02  0.76902263868E+02  0.82338048356E+02  0.00000000000E+00 0.  1.
          5    1    4    4  501    0 -0.43545798333E+01 -0.34528510452E+02  0.47876407949E+02  0.59336356795E+02  0.41800000000E+01 0. -1.
         -5    1    4    4    0  501  0.35015129434E+01  0.76050219227E+02 -0.12194794250E+02  0.77214518351E+02  0.41800000000E+01 0. -1.
</event>
<event>
11    1  0.6930157E-009  0.1426590E+03  0.7561462E-02  0.1104625E+00
         22   -1    0    0    0    0  0.00000000000E+00  0.00000000000E+00  0.16951571026E+03  0.16951571026E+03  0.00000000000E+00 0. -1.
         22   -1    0    0    0    0 -0.00000000000E+00 -0.00000000000E+00 -0.14881505576E+04  0.14881505576E+04  0.00000000000E+00 0. -1.
         24    2    1    2    0    0 -0.57382751369E+02  0.27929426397E+02 -0.93376611297E+03  0.93973707328E+03  0.84343228328E+02 0.  0.
         25    2    1    2    0    0  0.79759967234E+02 -0.31686247037E+02 -0.52960740591E+03  0.55090420727E+03  0.12508305469E+03 0.  0.
        -24    2    1    2    0    0 -0.22377215865E+02  0.37568206400E+01  0.14473867149E+03  0.16702498735E+03  0.80207293198E+02 0.  0.
        -11    1    3    3    0    0  0.16142231782E+02  0.25433122905E+02 -0.19440945470E+03  0.19672938638E+03  0.00000000000E+00 0.  1.
         12    1    3    3    0    0 -0.73524983151E+02  0.24963034914E+01 -0.73935665826E+03  0.74300768690E+03  0.00000000000E+00 0. -1.
         13    1    5    5    0    0 -0.78854735897E+01  0.28220299544E+02  0.13312410400E+03  0.13631064913E+03  0.00000000000E+00 0. -1.
        -14    1    5    5    0    0 -0.14491742275E+02 -0.24463478904E+02  0.11614567493E+02  0.30714338220E+02  0.00000000000E+00 0.  1.
          5    1    4    4  501    0 -0.30918683231E+02  0.92381733745E+01 -0.14364502837E+03  0.14728433520E+03  0.41800000000E+01 0.  1.
         -5    1    4    4    0  501  0.11067865047E+03 -0.40924420411E+02 -0.38596237754E+03  0.40361987207E+03  0.41800000000E+01 0.  1.
</event>
<event>
11    1  0.6930157E-009  0.1968914E+03  0.7561462E-02  0.1056744E+00
         22   -1    0    0    0    0  0.00000000000E+00  0.00000000000E+00  0.57101824229E+03  0.57101824229E+03  0.00000000000E+00 0.  1.
         22   -1    0    0    0    0 -0.00000000000E+00 -0.00000000000E+00 -0.75222388012E+03  0.75222388012E+03  0.00000000000E+00 0. -1.
         24    2    1    2    0    0 -0.13631012390E+02  0.20591196775E+02 -0.65890400037E+03  0.66448843132E+03  0.82344348734E+02 0.  0.
         25    2    1    2    0    0 -0.85664496822E+02  0.10075238253E+03  0.40373118929E+02  0.18645928280E+03  0.12509047449E+03 0.  0.
        -24    2    1    2    0    0  0.99295509212E+02 -0.12134357931E+03  0.43732524361E+03  0.47229440830E+03  0.84998688370E+02 0.  0.
        -13    1    3    3    0    0  0.24273834615E+02  0.34266560723E+02 -0.23955188624E+03  0.24320469245E+03  0.00000000000E+00 0.  1.
         14    1    3    3    0    0 -0.37904847005E+02 -0.13675363948E+02 -0.41935211413E+03  0.42128373887E+03  0.00000000000E+00 0. -1.
         11    1    5    5    0    0  0.52623238699E+01  0.10139690430E+02  0.70669263815E+02  0.71586662323E+02  0.00000000000E+00 0. -1.
        -12    1    5    5    0    0  0.94033185342E+02 -0.13148326974E+03  0.36665597979E+03  0.40070774597E+03  0.00000000000E+00 0.  1.
          5    1    4    4  501    0 -0.41248253960E+02  0.12239403531E+03  0.44574364949E+02  0.13669698147E+03  0.41800000000E+01 0.  1.
         -5    1    4    4    0  501 -0.44416242862E+02 -0.21641652776E+02 -0.42012460209E+01  0.49762301323E+02  0.41800000000E+01 0.  1.
</event>
<event>
11    1  0.6930157E-009  0.1497898E+03  0.7561462E-02  0.1097094E+00
         22   -1    0    0    0    0  0.00000000000E+00  0.00000000000E+00  0.26371197865E+03  0.26371197865E+03  0.00000000000E+00 0. -1.
         22   -1    0    0    0    0 -0.00000000000E+00 -0.00000000000E+00 -0.13948425491E+04  0.13948425491E+04  0.00000000000E+00 0. -1.
        -24    2    1    2    0    0 -0.69986483253E+02  0.43447293451E+02 -0.13202008936E+04  0.13254628314E+04  0.84472141983E+02 0.  0.
         25    2    1    2    0    0  0.75538966657E+02 -0.35977872115E+02  0.27065546160E+02  0.15290709684E+03  0.12508994248E+03 0.  0.
         24    2    1    2    0    0 -0.55524834039E+01 -0.74694213352E+01  0.16200477700E+03  0.18018459951E+03  0.78321898612E+02 0.  0.
        -13    1    5    5    0    0 -0.70366735662E+01 -0.21047769285E+02  0.52103029399E+01  0.22796285300E+02  0.00000000000E+00 0.  1.
         14    1    5    5    0    0  0.14841901623E+01  0.13578347950E+02  0.15679447406E+03  0.15738831421E+03  0.00000000000E+00 0. -1.
         13    1    3    3    0    0 -0.84515658341E+02  0.53759881251E+02 -0.11157444373E+04  0.11202315254E+04  0.00000000000E+00 0. -1.
        -14    1    3    3    0    0  0.14529175088E+02 -0.10312587801E+02 -0.20445645631E+03  0.20523130590E+03  0.00000000000E+00 0.  1.
          5    1    4    4  501    0  0.26486501763E+02 -0.72621855088E+02 -0.14533023052E+02  0.78766425405E+02  0.41800000000E+01 0.  1.
         -5    1    4    4    0  501  0.49052464894E+02  0.36643982973E+02  0.41598569212E+02  0.74140671435E+02  0.41800000000E+01 0.  1.
</event>
<event>
11    1  0.6930157E-009  0.1886335E+03  0.7561462E-02  0.1062866E+00
         22   -1    0    0    0    0  0.00000000000E+00  0.00000000000E+00  0.54354151684E+03  0.54354151684E+03  0.00000000000E+00 0. -1.
         22   -1    0    0    0    0 -0.00000000000E+00 -0.00000000000E+00 -0.23150834334E+04  0.23150834334E+04  0.00000000000E+00 0.  1.
         24    2    1    2    0    0 -0.12846971691E+03 -0.49315596527E+02 -0.20828601481E+04  0.20886381517E+04  0.71877924487E+02 0.  0.
         25    2    1    2    0    0  0.23910975736E+03  0.10759233896E+03 -0.11962447094E+03  0.31417668330E+03  0.12508951520E+03 0.  0.
        -24    2    1    2    0    0 -0.11064004045E+03 -0.58276742433E+02  0.43094270244E+03  0.45581011526E+03  0.80086522753E+02 0.  0.
        -11    1    3    3    0    0 -0.66547405974E+02 -0.55358669956E+02 -0.14926263727E+04  0.14951343178E+04  0.00000000000E+00 0.  1.
         12    1    3    3    0    0 -0.61922310931E+02  0.60430734291E+01 -0.59023377534E+03  0.59350383393E+03  0.00000000000E+00 0. -1.
         13    1    5    5    0    0 -0.65609581755E+02 -0.26771030898E+02  0.35537656599E+03  0.36237247269E+03  0.00000000000E+00 0. -1.
        -14    1    5    5    0    0 -0.45030458697E+02 -0.31505711536E+02  0.75566136453E+02  0.93437642566E+02  0.00000000000E+00 0.  1.
          5    1    4    4  501    0  0.15857785545E+03  0.12626890718E+03 -0.11047960181E+03  0.23089821995E+03  0.41800000000E+01 0.  1.
         -5    1    4    4    0  501  0.80531901912E+02 -0.18676568222E+02 -0.91448691221E+01  0.83278463347E+02  0.41800000000E+01 0.  1.
</event>
<event>
11    1  0.6930157E-009  0.1341478E+03  0.7561462E-02  0.1114275E+00
         22   -1    0    0    0    0  0.00000000000E+00  0.00000000000E+00  0.64502608265E+03  0.64502608265E+03  0.00000000000E+00 0. -1.
         22   -1    0    0    0    0 -0.00000000000E+00 -0.00000000000E+00 -0.13831761374E+03  0.13831761374E+03  0.00000000000E+00 0.  1.
        -24    2    1    2    0    0 -0.21777503512E+02  0.34336370667E+02 -0.43959664377E+02  0.10120993861E+03  0.81595058494E+02 0.  0.
         25    2    1    2    0    0  0.50694012454E+02 -0.51548915087E+02  0.21602257074E+02  0.14608719740E+03  0.12509051998E+03 0.  0.
         24    2    1    2    0    0 -0.28916508942E+02  0.17212544420E+02  0.52906587621E+03  0.53604656039E+03  0.79390033112E+02 0.  0.
        -11    1    5    5    0    0 -0.30014432216E+02  0.35154347705E+02  0.16000452745E+03  0.16654772021E+03  0.00000000000E+00 0.  1.
         12    1    5    5    0    0  0.10979232748E+01 -0.17941803285E+02  0.36906134876E+03  0.36949884017E+03  0.00000000000E+00 0. -1.
         13    1    3    3    0    0  0.17880713412E+01 -0.89677333071E+01  0.19093757394E+02  0.21170474988E+02  0.00000000000E+00 0. -1.
        -14    1    3    3    0    0 -0.23565574853E+02  0.43304103974E+02 -0.63053421771E+02  0.80039463618E+02  0.00000000000E+00 0.  1.
          5    1    4    4  501    0  0.16494672475E+02 -0.90473308251E+02  0.19255503044E+02  0.94051797023E+02  0.41800000000E+01 0.  1.
         -5    1    4    4    0  501  0.34199339978E+02  0.38924393164E+02  0.23467540301E+01  0.52035400379E+02  0.41800000000E+01 0.  1.
</event>
<event>
11    1  0.6930157E-009  0.1460750E+03  0.7561462E-02  0.1100958E+00
         22   -1    0    0    0    0  0.00000000000E+00  0.00000000000E+00  0.99986723666E+03  0.99986723666E+03  0.00000000000E+00 0.  1.
         22   -1    0    0    0    0 -0.00000000000E+00 -0.00000000000E+00 -0.80420678557E+02  0.80420678557E+02  0.00000000000E+00 0. -1.
        -24    2    1    2    0    0 -0.58006300053E+02  0.53491994784E+02 -0.16348893091E+02  0.11231628252E+03  0.78240249634E+02 0.  0.
         25    2    1    2    0    0  0.27614368507E+02 -0.43085055041E+02  0.34282835322E+03  0.36850895274E+03  0.12509473675E+03 0.  0.
         24    2    1    2    0    0  0.30391931546E+02 -0.10406939744E+02  0.59296709798E+03  0.59946267996E+03  0.81936264733E+02 0.  0.
        -11    1    5    5    0    0  0.35857307675E+02 -0.82730054156E+01  0.59242905087E+03  0.59357086303E+03  0.00000000000E+00 0.  1.
         12    1    5    5    0    0 -0.54653761291E+01 -0.21339343281E+01  0.53804711091E+00  0.58918169220E+01  0.00000000000E+00 0. -1.
         11    1    3    3    0    0 -0.75684061681E+02  0.54177390088E+02 -0.10419703762E+02  0.93658085693E+02  0.00000000000E+00 0. -1.
        -12    1    3    3    0    0  0.17677761627E+02 -0.68539530357E+00 -0.59291893289E+01  0.18658196831E+02  0.00000000000E+00 0.  1.
          5    1    4    4  501    0  0.19813253333E+02  0.34100919153E+02  0.41817193274E+02  0.57633217401E+02  0.41800000000E+01 0. -1.
         -5    1    4    4    0  501  0.78011151738E+01 -0.77185974194E+02  0.30101115994E+03  0.31087573533E+03  0.41800000000E+01 0. -1.
</event>
<event>
11    1  0.6930157E-009  0.1438725E+03  0.7561462E-02  0.1103310E+00
         22   -1    0    0    0    0  0.00000000000E+00  0.00000000000E+00  0.51756470788E+03  0.51756470788E+03  0.00000000000E+00 0.  1.
         22   -1    0    0    0    0 -0.00000000000E+00 -0.00000000000E+00 -0.15651360459E+04  0.15651360459E+04  0.00000000000E+00 0.  1.
        -24    2    1    2    0    0  0.17390789678E+02 -0.67005240120E+02 -0.14699645067E+04  0.14737834945E+04  0.80311866268E+02 0.  0.
         25    2    1    2    0    0  0.58775110995E+01 -0.52860134065E+01 -0.41412545795E+02  0.13199861395E+03  0.12508456364E+03 0.  0.
         24    2    1    2    0    0 -0.23268300778E+02  0.72291253526E+02  0.46380571445E+03  0.47691864539E+03  0.81044521171E+02 0.  0.
        -13    1    5    5    0    0 -0.41100075845E+02  0.63948149641E+01  0.21082138060E+03  0.21488546813E+03  0.00000000000E+00 0.  1.
         14    1    5    5    0    0  0.17831775068E+02  0.65896438562E+02  0.25298433384E+03  0.26203317726E+03  0.00000000000E+00 0. -1.
         13    1    3    3    0    0 -0.17366467228E+02 -0.57061338498E+02 -0.57415286167E+03  0.57724266916E+03  0.00000000000E+00 0. -1.
        -14    1    3    3    0    0  0.34757256907E+02 -0.99439016214E+01 -0.89581164501E+03  0.89654082529E+03  0.00000000000E+00 0.  1.
          5    1    4    4  501    0  0.45180498413E+02  0.42665988247E+02 -0.28666702708E+02  0.68563228002E+02  0.41800000000E+01 0. -1.
         -5    1    4    4    0  501 -0.39302987314E+02 -0.47952001653E+02 -0.12745843086E+02  0.63435385948E+02  0.41800000000E+01 0. -1.
</event>
<event>
11    1  0.6930157E-009  0.1454668E+03  0.7561462E-02  0.1101603E+00
         22   -1    0    0    0    0  0.00000000000E+00  0.00000000000E+00  0.46822484947E+03  0.46822484947E+03  0.00000000000E+00 0.  1.
         22   -1    0    0    0    0 -0.00000000000E+00 -0.00000000000E+00 -0.17201980045E+03  0.17201980045E+03  0.00000000000E+00 0.  1.
        -24    2    1    2    0    0  0.46748855561E+01  0.72068100865E+02 -0.62959627619E+02  0.12423191049E+03  0.79082154478E+02 0.  0.
         25    2    1    2    0    0  0.11067830555E+01 -0.79327170035E+02  0.16307346696E+00  0.14812661689E+03  0.12508974044E+03 0.  0.
         24    2    1    2    0    0 -0.57816686116E+01  0.72590691706E+01  0.35900160318E+03  0.36788612254E+03  0.79824346524E+02 0.  0.
        -13    1    5    5    0    0  0.22835892006E+02 -0.21001399738E+02  0.24583428748E+03  0.24778424820E+03  0.00000000000E+00 0.  1.
         14    1    5    5    0    0 -0.28617560617E+02  0.28260468909E+02  0.11316731570E+03  0.12010187434E+03  0.00000000000E+00 0. -1.
         13    1    3    3    0    0 -0.20712219195E+00  0.38828589456E+02  0.13183728104E+02  0.41006254956E+02  0.00000000000E+00 0. -1.
        -14    1    3    3    0    0  0.48820077480E+01  0.33239511408E+02 -0.76143355724E+02  0.83225655535E+02  0.00000000000E+00 0.  1.
          5    1    4    4  501    0 -0.51996924186E+02 -0.78598015015E+02  0.60621853863E+01  0.94528041240E+02  0.41800000000E+01 0. -1.
         -5    1    4    4    0  501  0.53103707241E+02 -0.72915502068E+00 -0.58991119193E+01  0.53598575646E+02  0.41800000000E+01 0. -1.
</event>
<event>
11    1  0.6930157E-009  0.1419158E+03  0.7561462E-02  0.1105438E+00
         22   -1    0    0    0    0  0.00000000000E+00  0.00000000000E+00  0.69839660415E+03  0.69839660415E+03  0.00000000000E+00 0.  1.
         22   -1    0    0    0    0 -0.00000000000E+00 -0.00000000000E+00 -0.58875919142E+03  0.58875919142E+03  0.00000000000E+00 0.  1.
         24    2    1    2    0    0  0.72368038959E+01  0.20751561515E+02 -0.55123497570E+03  0.55710824654E+03  0.77631187608E+02 0.  0.
         25    2    1    2    0    0  0.51213458512E+02 -0.52253514030E+02  0.15112344911E+03  0.20937505807E+03  0.12508545083E+03 0.  0.
        -24    2    1    2    0    0 -0.58450262408E+02  0.31501952515E+02  0.50974893932E+03  0.52067249097E+03  0.82746936644E+02 0.  0.
        -13    1    3    3    0    0 -0.18666721808E+02  0.33801709342E+02 -0.45400586557E+03  0.45564495830E+03  0.00000000000E+00 0.  1.
         14    1    3    3    0    0  0.25903525704E+02 -0.13050147828E+02 -0.97229110133E+02  0.10146328824E+03  0.00000000000E+00 0. -1.
         11    1    5    5    0    0 -0.59796111340E+02  0.49818362948E+02  0.29346532677E+03  0.30361051074E+03  0.00000000000E+00 0. -1.
        -12    1    5    5    0    0  0.13458489318E+01 -0.18316410432E+02  0.21628361255E+03  0.21706198022E+03  0.00000000000E+00 0.  1.
          5    1    4    4  501    0  0.73239651490E+02  0.12911709972E+02  0.63364639922E+02  0.97792171452E+02  0.41800000000E+01 0. -1.
         -5    1    4    4    0  501 -0.22026192978E+02 -0.65165224001E+02  0.87758809184E+02  0.11158288662E+03  0.41800000000E+01 0. -1.
</event>
<event>
11    1  0.6930157E-009  0.1429416E+03  0.7561462E-02  0.1104317E+00
         22   -1    0    0    0    0  0.00000000000E+00  0.00000000000E+00  0.37583218456E+03  0.37583218456E+03  0.00000000000E+00 0.  1.
         22   -1    0    0    0    0 -0.00000000000E+00 -0.00000000000E+00 -0.71578297740E+03  0.71578297740E+03  0.00000000000E+00 0. -1.
        -24    2    1    2    0    0  0.42996632404E+02 -0.41635635028E+02 -0.22216227334E+03  0.24437943993E+03  0.82358961044E+02 0.  0.
         25    2    1    2    0    0 -0.31949702287E+02  0.75370281384E+02 -0.46616402712E+03  0.48954620185E+03  0.12508045720E+03 0.  0.
         24    2    1    2    0    0 -0.11046930117E+02 -0.33734646356E+02  0.34837550762E+03  0.35768952019E+03  0.72912533317E+02 0.  0.
        -11    1    5    5    0    0  0.84691435685E+01  0.79665730433E+01  0.23547239805E+03  0.23575929021E+03  0.00000000000E+00 0.  1.
         12    1    5    5    0    0 -0.19516073686E+02 -0.41701219399E+02  0.11290310957E+03  0.12193022998E+03  0.00000000000E+00 0. -1.
         11    1    3    3    0    0 -0.24903488736E+02 -0.13060386174E+02 -0.63637136823E+02  0.69573289568E+02  0.00000000000E+00 0. -1.
        -12    1    3    3    0    0  0.67900121140E+02 -0.28575248854E+02 -0.15852513651E+03  0.17480615036E+03  0.00000000000E+00 0.  1.
          5    1    4    4  501    0 -0.14549743047E+00 -0.32632289249E+02 -0.64859964027E+02  0.72726713144E+02  0.41800000000E+01 0. -1.
         -5    1    4    4    0  501 -0.31804204857E+02  0.10800257063E+03 -0.40130406309E+03  0.41681948870E+03  0.41800000000E+01 0. -1.
</event>
<event>
11    1  0.6930157E-009  0.1433747E+03  0.7561462E-02  0.1103847E+00
         22   -1    0    0    0    0  0.00000000000E+00  0.00000000000E+00  0.80973772216E+03  0.80973772216E+03  0.00000000000E+00 0. -1.
         22   -1    0    0    0    0 -0.00000000000E+00 -0.00000000000E+00 -0.10739588578E+04  0.10739588578E+04  0.00000000000E+00 0. -1.
         24    2    1    2    0    0  0.51251307935E+02  0.10211183509E+02 -0.10353933078E+04  0.10396344323E+04  0.77906907577E+02 0.  0.
         25    2    1    2    0    0 -0.99467932159E+02 -0.53578283472E+02  0.18777775067E+03  0.25233702422E+03  0.12509591582E+03 0.  0.
        -24    2    1    2    0    0  0.48216624224E+02  0.43367099962E+02  0.58339442147E+03  0.59172512343E+03  0.74726317214E+02 0.  0.
        -11    1    3    3    0    0 -0.19207343804E+02  0.12656658693E+02 -0.22018647925E+03  0.22138473007E+03  0.00000000000E+00 0.  1.
         12    1    3    3    0    0  0.70458651739E+02 -0.24454751837E+01 -0.81520682854E+03  0.81824970227E+03  0.00000000000E+00 0. -1.
         11    1    5    5    0    0  0.34446132711E+02  0.60058364438E+02  0.31798580968E+03  0.32543588978E+03  0.00000000000E+00 0. -1.
        -12    1    5    5    0    0  0.13770491513E+02 -0.16691264476E+02  0.26540861179E+03  0.26628923365E+03  0.00000000000E+00 0.  1.
          5    1    4    4  501    0 -0.96122996129E+02  0.16484597407E+02  0.97888338377E+02  0.13824243750E+03  0.41800000000E+01 0.  1.
         -5    1    4    4    0  501 -0.33449360292E+01 -0.70062880879E+02  0.89889412297E+02  0.11409458671E+03  0.41800000000E+01 0.  1.
</event>
<event>
11    1  0.6930157E-009  0.2298722E+03  0.7561462E-02  0.1035204E+00
         22   -1    0    0    0    0  0.00000000000E+00  0.00000000000E+00  0.54246709140E+03  0.54246709140E+03  0.00000000000E+00 0. -1.
         22   -1    0    0    0    0 -0.00000000000E+00 -0.00000000000E+00 -0.16033964930E+04  0.16033964930E+04  0.00000000000E+00 0.  1.
        -24    2    1    2    0    0  0.39881159722E+02 -0.26624436214E+02 -0.14324938206E+04  0.14355154147E+04  0.79790927887E+02 0.  0.
         25    2    1    2    0    0  0.98258574379E+02  0.16303724745E+03 -0.55276642984E+02  0.23438773177E+03  0.12508481143E+03 0.  0.
         24    2    1    2    0    0 -0.13813973410E+03 -0.13641281123E+03  0.42684106200E+03  0.47596043795E+03  0.81572085221E+02 0.  0.
        -13    1    5    5    0    0  0.61819083802E-01 -0.28510772147E+02  0.26573555249E+02  0.38974630063E+02  0.00000000000E+00 0.  1.
         14    1    5    5    0    0 -0.13820155318E+03 -0.10790203908E+03  0.40026750675E+03  0.43698580789E+03  0.00000000000E+00 0. -1.
         13    1    3    3    0    0  0.11614962303E+02  0.22326297095E+01 -0.27433413580E+02  0.29874473474E+02  0.00000000000E+00 0. -1.
        -14    1    3    3    0    0  0.28266197419E+02 -0.28857065924E+02 -0.14050604071E+04  0.14056409412E+04  0.00000000000E+00 0.  1.
          5    1    4    4  501    0 -0.12235249321E+01  0.11205983541E+03 -0.48909215475E+02  0.12234577019E+03  0.41800000000E+01 0. -1.
         -5    1    4    4    0  501  0.99482099311E+02  0.50977412034E+02 -0.63674275091E+01  0.11204196158E+03  0.41800000000E+01 0. -1.
</event>
<event>
11    1  0.6930157E-009  0.1599334E+03  0.7561462E-02  0.1087140E+00
         22   -1    0    0    0    0  0.00000000000E+00  0.00000000000E+00  0.85472078295E+03  0.85472078295E+03  0.00000000000E+00 0.  1.
         22   -1    0    0    0    0 -0.00000000000E+00 -0.00000000000E+00 -0.14875472213E+04  0.14875472213E+04  0.00000000000E+00 0.  1.
         24    2    1    2    0    0 -0.53673914380E+02 -0.46825835558E+01 -0.13105544971E+04  0.13140364294E+04  0.78967285753E+02 0.  0.
         25    2    1    2    0    0  0.14990293994E+03 -0.14962735459E+02 -0.11410179591E+03  0.22663107430E+03  0.12509056382E+03 0.  0.
        -24    2    1    2    0    0 -0.96229025556E+02  0.19645319015E+02  0.79182985466E+03  0.80160050054E+03  0.76960248207E+02 0.  0.
        -13    1    3    3    0    0 -0.54879473438E+02  0.28817206546E+02 -0.87732603307E+03  0.87951302224E+03  0.00000000000E+00 0.  1.
         14    1    3    3    0    0  0.12055590574E+01 -0.33499790102E+02 -0.43322846404E+03  0.43452340715E+03  0.00000000000E+00 0. -1.
         11    1    5    5    0    0  0.10294566516E+02 -0.97376061562E+01  0.10085818457E+03  0.10184877254E+03  0.00000000000E+00 0. -1.
        -12    1    5    5    0    0 -0.10652359207E+03  0.29382925171E+02  0.69097167009E+03  0.69975172800E+03  0.00000000000E+00 0.  1.
          5    1    4    4  501    0  0.10051687156E+03  0.41554238652E+02 -0.10442676266E+03  0.15084037051E+03  0.41800000000E+01 0.  1.
         -5    1    4    4    0  501  0.49386068379E+02 -0.56516974111E+02 -0.96750332468E+01  0.75790703789E+02  0.41800000000E+01 0.  1.
</event>
<event>
11    1  0.6930157E-009  0.1568941E+03  0.7561462E-02  0.1090035E+00
         22   -1    0    0    0    0  0.00000000000E+00  0.00000000000E+00  0.25291028354E+03  0.25291028354E+03  0.00000000000E+00 0.  1.
         22   -1    0    0    0    0 -0.00000000000E+00 -0.00000000000E+00 -0.65470073939E+03  0.65470073939E+03  0.00000000000E+00 0. -1.
        -24    2    1    2    0    0 -0.34104503609E+02 -0.93643419545E+02 -0.25693476562E+03  0.28677435104E+03  0.79321166430E+02 0.  0.
         25    2    1    2    0    0  0.12997227176E+02  0.89474381585E+02 -0.35918458459E+03  0.39094593610E+03  0.12510222331E+03 0.  0.
         24    2    1    2    0    0  0.21107276433E+02  0.41690379601E+01  0.21432889436E+03  0.22989073578E+03  0.80311751605E+02 0.  0.
        -13    1    5    5    0    0  0.23075219321E+02  0.22906434891E+02  0.20721746938E+03  0.20975283102E+03  0.00000000000E+00 0.  1.
         14    1    5    5    0    0 -0.19679428883E+01 -0.18737396930E+02  0.71114249810E+01  0.20137904762E+02  0.00000000000E+00 0. -1.
         11    1    3    3    0    0  0.10372052434E+02 -0.29650832593E+02 -0.15665487912E+03  0.15977328468E+03  0.00000000000E+00 0. -1.
        -12    1    3    3    0    0 -0.44476556043E+02 -0.63992586952E+02 -0.10027988650E+03  0.12700106637E+03  0.00000000000E+00 0.  1.
          5    1    4    4  501    0  0.60068331281E+02  0.30447951127E+02 -0.24402454342E+03  0.25318122431E+03  0.41800000000E+01 0.  1.
         -5    1    4    4    0  501 -0.47071104104E+02  0.59026430458E+02 -0.11516004116E+03  0.13776471179E+03  0.41800000000E+01 0.  1.
</event>
<event>
11    1  0.6930157E-009  0.1390515E+03  0.7561462E-02  0.1108622E+00
         22   -1    0    0    0    0  0.00000000000E+00  0.00000000000E+00  0.85033504185E+03  0.85033504185E+03  0.00000000000E+00 0.  1.
         22   -1    0    0    0    0 -0.00000000000E+00 -0.00000000000E+00 -0.14816027382E+03  0.14816027382E+03  0.00000000000E+00 0. -1.
        -24    2    1    2    0    0 -0.21482980854E+02  0.50424802359E+02 -0.82484333300E+02  0.12835960130E+03  0.81659921909E+02 0.  0.
         25    2    1    2    0    0  0.27939371039E+02 -0.10188906831E+03  0.13129057397E+03  0.20986774609E+03  0.12508103510E+03 0.  0.
         24    2    1    2    0    0 -0.64563901850E+01  0.51464265954E+02  0.65336852736E+03  0.66026796827E+03  0.79831708807E+02 0.  0.
        -11    1    5    5    0    0  0.49607398743E+01 -0.13297752958E+02  0.32871484771E+03  0.32902110917E+03  0.00000000000E+00 0.  1.
         12    1    5    5    0    0 -0.11417130059E+02  0.64762018912E+02  0.32465367965E+03  0.33124685910E+03  0.00000000000E+00 0. -1.
         13    1    3    3    0    0 -0.45682173955E+01  0.46540356557E+02 -0.28442275098E+01  0.46850432536E+02  0.00000000000E+00 0. -1.
        -14    1    3    3    0    0 -0.16914763459E+02  0.38844458013E+01 -0.79640105790E+02  0.81509168762E+02  0.00000000000E+00 0.  1.
          5    1    4    4  501    0  0.11365609176E+02 -0.10939363373E+03  0.40656240727E+02  0.11733092722E+03  0.41800000000E+01 0. -1.
         -5    1    4    4    0  501  0.16573761864E+02  0.75045654190E+01  0.90634333243E+02  0.92536818872E+02  0.41800000000E+01 0. -1.
</event>
<event>
11    1  0.6930157E-009  0.1574392E+03  0.7561462E-02  0.1089511E+00
         22   -1    0    0    0    0  0.00000000000E+00  0.00000000000E+00  0.27343775393E+04  0.27343775393E+04  0.00000000000E+00 0. -1.
         22   -1    0    0    0    0 -0.00000000000E+00 -0.00000000000E+00 -0.32719703470E+04  0.32719703470E+04  0.00000000000E+00 0.  1.
         24    2    1    2    0    0 -0.94040404860E+02  0.16766069483E+02 -0.32560263010E+04  0.32584129819E+04  0.80144801253E+02 0.  0.
         25    2    1    2    0    0  0.14149297981E+03  0.15786315224E+02  0.65022480150E+03  0.67728140509E+03  0.12509331762E+03 0.  0.
        -24    2    1    2    0    0 -0.47452574951E+02 -0.32552384708E+02  0.20682086917E+04  0.20706534994E+04  0.82506467758E+02 0.  0.
        -11    1    3    3    0    0 -0.10094870410E+03  0.33073873577E+02 -0.29025839035E+04  0.29045271283E+04  0.00000000000E+00 0.  1.
         12    1    3    3    0    0  0.69082992367E+01 -0.16307804094E+02 -0.35344239742E+03  0.35388585359E+03  0.00000000000E+00 0. -1.
         11    1    5    5    0    0 -0.40939322197E+02  0.12590854180E+02  0.15020437135E+04  0.15026542766E+04  0.00000000000E+00 0. -1.
        -12    1    5    5    0    0 -0.65132527532E+01 -0.45143238887E+02  0.56616497823E+03  0.56799922275E+03  0.00000000000E+00 0.  1.
          5    1    4    4  501    0  0.13303196702E+03 -0.12834669299E+02  0.33621890192E+03  0.36183263450E+03  0.41800000000E+01 0. -1.
         -5    1    4    4    0  501  0.84610127877E+01  0.28620984524E+02  0.31400589958E+03  0.31544877059E+03  0.41800000000E+01 0. -1.
</event>
<event>
11    1  0.6930157E-009  0.1614031E+03  0.7561462E-02  0.1085765E+00
         22   -1    0    0    0    0  0.00000000000E+00  0.00000000000E+00  0.86579439061E+03  0.86579439061E+03  0.00000000000E+00 0. -1.
         22   -1    0    0    0    0 -0.00000000000E+00 -0.00000000000E+00 -0.26847279589E+04  0.26847279589E+04  0.00000000000E+00 0.  1.
        -24    2    1    2    0    0 -0.88656408161E+02  0.50606597831E+02 -0.26472844770E+04  0.26504487164E+04  0.79638618244E+02 0.  0.
         25    2    1    2    0    0  0.44330426271E+02 -0.10499075939E+03  0.19646083095E+03  0.25928954912E+03  0.12508383562E+03 0.  0.
         24    2    1    2    0    0  0.44325981890E+02  0.54384161563E+02  0.63189007779E+03  0.64078408398E+03  0.79979636037E+02 0.  0.
        -11    1    5    5    0    0 -0.89566541696E+01 -0.22244772907E+01  0.84410095495E+01  0.12506821952E+02  0.00000000000E+00 0.  1.
         12    1    5    5    0    0  0.53282636060E+02  0.56608638854E+02  0.62344906824E+03  0.62827726203E+03  0.00000000000E+00 0. -1.
         11    1    3    3    0    0 -0.48302924856E+02  0.12873011808E+02 -0.50858786293E+03  0.51103864952E+03  0.00000000000E+00 0. -1.
        -12    1    3    3    0    0 -0.40353483305E+02  0.37733586024E+02 -0.21386966141E+04  0.21394100669E+04  0.00000000000E+00 0.  1.
          5    1    4    4  501    0 -0.24852961727E+02 -0.34732931183E+02  0.41243067873E+01  0.43110654386E+02  0.41800000000E+01 0. -1.
         -5    1    4    4    0  501  0.69183387998E+02 -0.70257828212E+02  0.19233652416E+03  0.21617889473E+03  0.41800000000E+01 0. -1.
</event>
<event>
11    1  0.6930157E-009  0.1293870E+03  0.7561462E-02  0.1120024E+00
         22   -1    0    0    0    0  0.00000000000E+00  0.00000000000E+00  0.15387766639E+03  0.15387766639E+03  0.00000000000E+00 0.  1.
         22   -1    0    0    0    0 -0.00000000000E+00 -0.00000000000E+00 -0.58725121767E+03  0.58725121767E+03  0.00000000000E+00 0.  1.
        -24    2    1    2    0    0 -0.30599777689E+02 -0.15018110602E+02 -0.50183329666E+03  0.50945305134E+03  0.80894152098E+02 0.  0.
         25    2    1    2    0    0  0.12697515296E+02  0.11170516302E+02  0.10381412621E+01  0.12622810684E+03  0.12508577013E+03 0.  0.
         24    2    1    2    0    0  0.17902262393E+02  0.38475943001E+01  0.67421604122E+02  0.10544772588E+03  0.78982626006E+02 0.  0.
        -13    1    5    5    0    0 -0.50775474849E+01  0.30339071353E+02  0.62989401706E+02  0.70099254392E+02  0.00000000000E+00 0.  1.
         14    1    5    5    0    0  0.22979809878E+02 -0.26491477053E+02  0.44322024152E+01  0.35348471490E+02  0.00000000000E+00 0. -1.
         11    1    3    3    0    0 -0.17445958640E+02 -0.48565369508E+02 -0.30973561785E+03  0.31400495148E+03  0.00000000000E+00 0. -1.
        -12    1    3    3    0    0 -0.13153819048E+02  0.33547258906E+02 -0.19209767881E+03  0.19544809986E+03  0.00000000000E+00 0.  1.
          5    1    4    4  501    0 -0.39334232657E+02  0.20578870065E+02 -0.39422565398E+02  0.59517080023E+02  0.41800000000E+01 0.  1.
         -5    1    4    4    0  501  0.52031747953E+02 -0.94083537629E+01  0.40460706661E+02  0.66711026817E+02  0.41800000000E+01 0.  1.
</event>
<event>
11    1  0.6930157E-009  0.1486320E+03  0.7561462E-02  0.1098285E+00
         22   -1    0    0    0    0  0.00000000000E+00  0.00000000000E+00  0.16444962386E+03  0.16444962386E+03  0.00000000000E+00 0.  1.
         22   -1    0    0    0    0 -0.00000000000E+00 -0.00000000000E+00 -0.43983617355E+03  0.43983617355E+03  0.00000000000E+00 0. -1.
        -24    2    1    2    0    0  0.29920405136E+02 -0.21218515983E+02 -0.26331167123E+03  0.27819429399E+03  0.81936395702E+02 0.  0.
         25    2    1    2    0    0  0.44623466247E+02 -0.22035494762E+02 -0.10973578632E+03  0.17368524818E+03  0.12509119020E+03 0.  0.
         24    2    1    2    0    0 -0.74543871383E+02  0.43254010744E+02  0.97660907866E+02  0.15240625523E+03  0.79134793248E+02 0.  0.
        -11    1    5    5    0    0 -0.39638643875E+02  0.11561637643E+02  0.96815029283E+02  0.10525228477E+03  0.00000000000E+00 0.  1.
         12    1    5    5    0    0 -0.34905227508E+02  0.31692373101E+02  0.84587858223E+00  0.47153970466E+02  0.00000000000E+00 0. -1.
         13    1    3    3    0    0  0.25622199732E+02 -0.16991573542E+02 -0.26849162482E+03  0.27024611614E+03  0.00000000000E+00 0. -1.
        -14    1    3    3    0    0  0.42982054040E+01 -0.42269424405E+01  0.51799535861E+01  0.79481778569E+01  0.00000000000E+00 0.  1.
          5    1    4    4  501    0  0.40390799037E+02 -0.14223184668E+02 -0.13758504275E+03  0.14415558268E+03  0.41800000000E+01 0.  1.
         -5    1    4    4    0  501  0.42326672097E+01 -0.78123100934E+01  0.27849256431E+02  0.29529665499E+02  0.41800000000E+01 0.  1.
</event>
<event>
11    1  0.6930157E-009  0.1542684E+03  0.7561462E-02  0.1092595E+00
         22   -1    0    0    0    0  0.00000000000E+00  0.00000000000E+00  0.15567021028E+03  0.15567021028E+03  0.00000000000E+00 0. -1.
         22   -1    0    0    0    0 -0.00000000000E+00 -0.00000000000E+00 -0.82523791402E+03  0.82523791402E+03  0.00000000000E+00 0.  1.
         24    2    1    2    0    0  0.24876988606E+02  0.77685734428E+02 -0.50192655159E+03  0.51479150839E+03  0.80162934236E+02 0.  0.
         25    2    1    2    0    0 -0.20805792771E+02 -0.12555663888E+03 -0.27292290242E+03  0.32608542037E+03  0.12508972832E+03 0.  0.
        -24    2    1    2    0    0 -0.40711958348E+01  0.47870904451E+02  0.10528175028E+03  0.14003119554E+03  0.78843456640E+02 0.  0.
        -13    1    3    3    0    0  0.27976207875E+02  0.89853368765E+02 -0.48297370835E+03  0.49205680469E+03  0.00000000000E+00 0.  1.
         14    1    3    3    0    0 -0.30992192697E+01 -0.12167634338E+02 -0.18952843239E+02  0.22734703700E+02  0.00000000000E+00 0. -1.
         13    1    5    5    0    0  0.18519211436E+02  0.48275172347E+02  0.26553976497E+02  0.58125443011E+02  0.00000000000E+00 0. -1.
        -14    1    5    5    0    0 -0.22590407271E+02 -0.40426789653E+00  0.78727773782E+02  0.81905752532E+02  0.00000000000E+00 0.  1.
          5    1    4    4  501    0 -0.42329823607E+02 -0.55956238753E+02 -0.37610174493E+02  0.79717703475E+02  0.41800000000E+01 0.  1.
         -5    1    4    4    0  501  0.21524030836E+02 -0.69600400125E+02 -0.23531272793E+03  0.24636771689E+03  0.41800000000E+01 0.  1.
</event>
<event>
11    1  0.6930157E-009  0.1407595E+03  0.7561462E-02  0.1106713E+00
         22   -1    0    0    0    0  0.00000000000E+00  0.00000000000E+00  0.28378215984E+03  0.28378215984E+03  0.00000000000E+00 0.  1.
         22   -1    0    0    0    0 -0.00000000000E+00 -0.00000000000E+00 -0.75311037441E+03  0.75311037441E+03  0.00000000000E+00 0.  1.
        -24    2    1    2    0    0 -0.23874405734E+02 -0.16691247950E+02 -0.53635220117E+03  0.54182458107E+03  0.71074664575E+02 0.  0.
         25    2    1    2    0    0  0.66739343853E+02  0.63232609408E+02 -0.17482810526E+03  0.23379913062E+03  0.12507863199E+03 0.  0.
         24    2    1    2    0    0 -0.42864938120E+02 -0.46541361458E+02  0.24185209187E+03  0.26126882255E+03  0.75930639736E+02 0.  0.
        -11    1    5    5    0    0 -0.47585214488E+02 -0.63457996909E+02  0.21518484640E+03  0.22933771633E+03  0.00000000000E+00 0.  1.
         12    1    5    5    0    0  0.47202763689E+01  0.16916635450E+02  0.26667245463E+02  0.31931106222E+02  0.00000000000E+00 0. -1.
         13    1    3    3    0    0 -0.14383714466E+01  0.10518594502E+02 -0.10991336646E+02  0.15281335805E+02  0.00000000000E+00 0. -1.
        -14    1    3    3    0    0 -0.22436034287E+02 -0.27209842452E+02 -0.52536086453E+03  0.52654324527E+03  0.00000000000E+00 0.  1.
          5    1    4    4  501    0 -0.32407699869E+02  0.27624706094E+02 -0.85520935826E+02  0.95627852962E+02  0.41800000000E+01 0. -1.
         -5    1    4    4    0  501  0.99147043723E+02  0.35607903315E+02 -0.89307169437E+02  0.13817127766E+03  0.41800000000E+01 0. -1.
</event>
<event>
11    1  0.6930157E-009  0.1293649E+03  0.7561462E-02  0.1120052E+00
         22   -1    0    0    0    0  0.00000000000E+00  0.00000000000E+00  0.10420678271E+03  0.10420678271E+03  0.00000000000E+00 0.  1.
         22   -1    0    0    0    0 -0.00000000000E+00 -0.00000000000E+00 -0.42385887869E+03  0.42385887869E+03  0.00000000000E+00 0.  1.
         24    2    1    2    0    0  0.13411074951E+02 -0.93235248641E+01 -0.24653375132E+03  0.25882330404E+03  0.77096219928E+02 0.  0.
         25    2    1    2    0    0  0.54283043590E+01  0.36242485866E+02 -0.11441691272E+03  0.17344657992E+03  0.12509796920E+03 0.  0.
        -24    2    1    2    0    0 -0.18839379310E+02 -0.26918961002E+02  0.41298568060E+02  0.95795777448E+02  0.79948149315E+02 0.  0.
        -13    1    3    3    0    0  0.36509437300E+02 -0.10912210937E+02 -0.22138202972E+03  0.22463752679E+03  0.00000000000E+00 0.  1.
         14    1    3    3    0    0 -0.23098362350E+02  0.15886860734E+01 -0.25151721596E+02  0.34185777246E+02  0.00000000000E+00 0. -1.
         13    1    5    5    0    0 -0.22794692404E+02 -0.76297177675E+01 -0.20089366559E+02  0.31327196550E+02  0.00000000000E+00 0. -1.
        -14    1    5    5    0    0  0.39553130939E+01 -0.19289243235E+02  0.61387934618E+02  0.64468580898E+02  0.00000000000E+00 0.  1.
          5    1    4    4  501    0  0.49494203652E+02 -0.24337031819E+02 -0.47241857816E+02  0.72740860889E+02  0.41800000000E+01 0.  1.
         -5    1    4    4    0  501 -0.44065899293E+02  0.60579517685E+02 -0.67175054902E+02  0.10070571903E+03  0.41800000000E+01 0.  1.
</event>
<event>
11    1  0.6930157E-009  0.1415608E+03  0.7561462E-02  0.1105828E+00
         22   -1    0    0    0    0  0.00000000000E+00  0.00000000000E+00  0.14312558344E+03  0.14312558344E+03  0.00000000000E+00 0. -1.
         22   -1    0    0    0    0 -0.00000000000E+00 -0.00000000000E+00 -0.31272283326E+03  0.31272283326E+03  0.00000000000E+00 0. -1.
        -24    2    1    2    0    0  0.21101051018E+02  0.49588278740E+02 -0.13165673977E+03  0.16337411817E+03  0.80332768031E+02 0.  0.
         25    2    1    2    0    0 -0.83292801429E+02 -0.38308871159E+02 -0.88057208820E+02  0.17833365689E+03  0.12507422107E+03 0.  0.
         24    2    1    2    0    0  0.62191750411E+02 -0.11279407581E+02  0.50116698763E+02  0.11414064163E+03  0.80754960983E+02 0.  0.
        -13    1    5    5    0    0  0.39936769244E+02  0.27377774391E+02  0.19021309373E+01  0.48457261276E+02  0.00000000000E+00 0.  1.
         14    1    5    5    0    0  0.22254981167E+02 -0.38657181972E+02  0.48214567826E+02  0.65683380359E+02  0.00000000000E+00 0. -1.
         13    1    3    3    0    0  0.24688453507E+02  0.36158003180E+02 -0.14032170184E+03  0.14699354046E+03  0.00000000000E+00 0. -1.
        -14    1    3    3    0    0 -0.35874024888E+01  0.13430275560E+02  0.86649620747E+01  0.16380577706E+02  0.00000000000E+00 0.  1.
          5    1    4    4  501    0 -0.24711655965E+02 -0.60345629373E+02  0.56302877723E+01  0.65585314403E+02  0.41800000000E+01 0.  1.
         -5    1    4    4    0  501 -0.58581145463E+02  0.22036758214E+02 -0.93687496592E+02  0.11274834249E+03  0.41800000000E+01 0.  1.
</event>
<event>
11    1  0.6930157E-009  0.2257250E+03  0.7561462E-02  0.1037689E+00
         22   -1    0    0    0    0  0.00000000000E+00  0.00000000000E+00  0.37044542810E+03  0.37044542810E+03  0.00000000000E+00 0.  1.
         22   -1    0    0    0    0 -0.00000000000E+00 -0.00000000000E+00 -0.19112740268E+04  0.19112740268E+04  0.00000000000E+00 0. -1.
         24    2    1    2    0    0  0.31465664465E+02 -0.19086368172E+02 -0.17737295041E+04  0.17759237339E+04  0.80214570239E+02 0.  0.
         25    2    1    2    0    0  0.42337204252E+02  0.18715388923E+03  0.19928800376E+03  0.30361520721E+03  0.12508984165E+03 0.  0.
        -24    2    1    2    0    0 -0.73802868717E+02 -0.16806752106E+03  0.33612901670E+02  0.20218051380E+03  0.77804742381E+02 0.  0.
        -13    1    3    3    0    0 -0.14728392992E+02  0.21391615650E+02 -0.42070430718E+03  0.42150520858E+03  0.00000000000E+00 0.  1.
         14    1    3    3    0    0  0.46194057457E+02 -0.40477983822E+02 -0.13530251969E+04  0.13544185253E+04  0.00000000000E+00 0. -1.
         13    1    5    5    0    0 -0.94591137713E+01  0.73688878331E+01 -0.13758830743E+01  0.12069316280E+02  0.00000000000E+00 0. -1.
        -14    1    5    5    0    0 -0.64343754946E+02 -0.17543640889E+03  0.34988784744E+02  0.19011119752E+03  0.00000000000E+00 0.  1.
          5    1    4    4  501    0  0.36798982734E+01  0.18983511815E+03  0.16094139005E+03  0.24893878196E+03  0.41800000000E+01 0. -1.
         -5    1    4    4    0  501  0.38657305979E+02 -0.26812289151E+01  0.38346613717E+02  0.54676425245E+02  0.41800000000E+01 0. -1.
</event>
<event>
11    1  0.6930157E-009  0.1886699E+03  0.7561462E-02  0.1062838E+00
         22   -1    0    0    0    0  0.00000000000E+00  0.00000000000E+00  0.48229690180E+03  0.48229690180E+03  0.00000000000E+00 0.  1.
         22   -1    0    0    0    0 -0.00000000000E+00 -0.00000000000E+00 -0.11971399236E+04  0.11971399236E+04  0.00000000000E+00 0. -1.
         24    2    1    2    0    0 -0.10922687481E+03  0.83958547880E+02 -0.89527314090E+03  0.90920594438E+03  0.78497799526E+02 0.  0.
         25    2    1    2    0    0  0.14401256257E+03 -0.72904864836E+02 -0.25497261965E+03  0.32666931337E+03  0.12508823299E+03 0.  0.
        -24    2    1    2    0    0 -0.34785687758E+02 -0.11053683044E+02  0.43540273877E+03  0.44356156764E+03  0.76413947549E+02 0.  0.
        -13    1    3    3    0    0 -0.52822809287E+02  0.84316637927E+02 -0.48746534440E+03  0.49751583553E+03  0.00000000000E+00 0.  1.
         14    1    3    3    0    0 -0.56404065524E+02 -0.35809004623E+00 -0.40780779651E+03  0.41169010885E+03  0.00000000000E+00 0. -1.
         13    1    5    5    0    0  0.18752961241E+00  0.25618099920E+01 -0.27739453767E+01  0.37805833866E+01  0.00000000000E+00 0. -1.
        -14    1    5    5    0    0 -0.34973217370E+02 -0.13615493036E+02  0.43817668414E+03  0.43978098425E+03  0.00000000000E+00 0.  1.
          5    1    4    4  501    0  0.14998134004E+03 -0.41894108229E+02 -0.14733518693E+03  0.21441699646E+03  0.41800000000E+01 0.  1.
         -5    1    4    4    0  501 -0.59687774658E+01 -0.31010756607E+02 -0.10763743272E+03  0.11225231691E+03  0.41800000000E+01 0.  1.
</event>
<event>
11    1  0.6930157E-009  0.1802391E+03  0.7561462E-02  0.1069450E+00
         22   -1    0    0    0    0  0.00000000000E+00  0.00000000000E+00  0.18818086671E+04  0.18818086671E+04  0.00000000000E+00 0. -1.
         22   -1    0    0    0    0 -0.00000000000E+00 -0.00000000000E+00 -0.13555434542E+03  0.13555434542E+03  0.00000000000E+00 0. -1.
         24    2    1    2    0    0  0.13737207598E+03  0.35549339167E+02 -0.59973770232E+02  0.17368075819E+03  0.80207916553E+02 0.  0.
         25    2    1    2    0    0 -0.62909698009E+02 -0.21541558972E+02  0.28028039977E+03  0.31405000164E+03  0.12509449296E+03 0.  0.
        -24    2    1    2    0    0 -0.74462377966E+02 -0.14007780195E+02  0.15259476921E+04  0.15296322527E+04  0.74280587541E+02 0.  0.
        -13    1    3    3    0    0 -0.87219495777E+01  0.26055782582E+01  0.50519387813E+01  0.10410740989E+02  0.00000000000E+00 0.  1.
         14    1    3    3    0    0  0.14609402555E+03  0.32943760908E+02 -0.65025709014E+02  0.16327001720E+03  0.00000000000E+00 0. -1.
         13    1    5    5    0    0 -0.84629626151E+02 -0.14948741319E+01  0.14138081652E+04  0.14163396260E+04  0.00000000000E+00 0. -1.
        -14    1    5    5    0    0  0.10167248185E+02 -0.12512906063E+02  0.11213952695E+03  0.11329262667E+03  0.00000000000E+00 0.  1.
          5    1    4    4  501    0 -0.72485272203E+02  0.35782538018E+02  0.13344036071E+03  0.15607148036E+03  0.41800000000E+01 0.  1.
         -5    1    4    4    0  501  0.95755741943E+01 -0.57324096990E+02  0.14684003906E+03  0.15797852128E+03  0.41800000000E+01 0.  1.
</event>
<event>
11    1  0.7435729E-009  0.1810020E+03  0.7561462E-02  0.1068835E+00
         22   -1    0    0    0    0  0.00000000000E+00  0.00000000000E+00  0.10741672691E+04  0.10741672691E+04  0.00000000000E+00 0. -1.
         22   -1    0    0    0    0 -0.00000000000E+00 -0.00000000000E+00 -0.46111554538E+03  0.46111554538E+03  0.00000000000E+00 0. -1.
         24    2    1    2    0    0 -0.64753234769E+01 -0.71711800920E+02 -0.23988842722E+03  0.26372979819E+03  0.82598043163E+02 0.  0.
         25    2    1    2    0    0 -0.86743880105E+02 -0.22250728933E+02 -0.17443351627E+03  0.23257802148E+03  0.12508352731E+03 0.  0.
        -24    2    1    2    0    0  0.93219203582E+02  0.93962529853E+02  0.10273736672E+04  0.10389749948E+04  0.80334368839E+02 0.  0.
        -11    1    3    3    0    0 -0.27364619962E+02 -0.40580525189E+02 -0.49230183856E+02  0.69420547770E+02  0.00000000000E+00 0.  1.
         12    1    3    3    0    0  0.20889296485E+02 -0.31131275731E+02 -0.19065824336E+03  0.19430925042E+03  0.00000000000E+00 0. -1.
         11    1    5    5    0    0  0.64034863603E+02  0.73260705723E+02  0.93276253536E+03  0.93782383320E+03  0.00000000000E+00 0. -1.
        -12    1    5    5    0    0  0.29184339979E+02  0.20701824130E+02  0.94611131849E+02  0.10115116160E+03  0.00000000000E+00 0.  1.
          5    1    4    4  501    0 -0.61014225599E+02 -0.73918720459E+02 -0.10671124290E+03  0.14349729866E+03  0.41800000000E+01 0.  1.
         -5    1    4    4    0  501 -0.25729654506E+02  0.51667991525E+02 -0.67722273367E+02  0.89080722826E+02  0.41800000000E+01 0.  1.
</event>
<event>
11    1  0.6930157E-009  0.2520487E+03  0.7561462E-02  0.1022813E+00
         22   -1    0    0    0    0  0.00000000000E+00  0.00000000000E+00  0.14949930356E+04  0.14949930356E+04  0.00000000000E+00 0.  1.
         22   -1    0    0    0    0 -0.00000000000E+00 -0.00000000000E+00 -0.13473477904E+04  0.13473477904E+04  0.00000000000E+00 0.  1.
         24    2    1    2    0    0  0.21297333465E+03 -0.46799615655E+02 -0.13029959789E+04  0.13235728536E+04  0.80614716373E+02 0.  0.
         25    2    1    2    0    0 -0.27118277526E+03  0.40094421502E+02  0.70492221351E+03  0.76662231237E+03  0.12508709960E+03 0.  0.
        -24    2    1    2    0    0  0.58209440612E+02  0.67051941530E+01  0.74571901067E+03  0.75214565998E+03  0.78695313386E+02 0.  0.
        -13    1    3    3    0    0  0.17199161406E+03 -0.30672195374E+02 -0.81069670664E+03  0.82930757203E+03  0.00000000000E+00 0.  1.
         14    1    3    3    0    0  0.40981720596E+02 -0.16127420282E+02 -0.49229927229E+03  0.49426528161E+03  0.00000000000E+00 0. -1.
         13    1    5    5    0    0  0.46287587467E+01  0.35981648702E+02  0.32517053512E+03  0.32718799086E+03  0.00000000000E+00 0. -1.
        -14    1    5    5    0    0  0.53580681865E+02 -0.29276454549E+02  0.42054847555E+03  0.42495766912E+03  0.00000000000E+00 0.  1.
          5    1    4    4  501    0 -0.15234944328E+02  0.10751563427E+02  0.18875577093E+03  0.18972061855E+03  0.41800000000E+01 0.  1.
         -5    1    4    4    0  501 -0.25594783094E+03  0.29342858075E+02  0.51616644258E+03  0.57690169381E+03  0.41800000000E+01 0.  1.
</event>
<event>
11    1  0.6930157E-009  0.2074911E+03  0.7561462E-02  0.1049349E+00
         22   -1    0    0    0    0  0.00000000000E+00  0.00000000000E+00  0.18385405829E+04  0.18385405829E+04  0.00000000000E+00 0. -1.
         22   -1    0    0    0    0 -0.00000000000E+00 -0.00000000000E+00 -0.13461136551E+04  0.13461136551E+04  0.00000000000E+00 0.  1.
         24    2    1    2    0    0 -0.13153684816E+03 -0.14305033002E+03 -0.84912609739E+03  0.87467326716E+03  0.79201361651E+02 0.  0.
         25    2    1    2    0    0  0.14891863212E+03  0.10329451728E+02 -0.46115106819E+03  0.50059123176E+03  0.12509123495E+03 0.  0.
        -24    2    1    2    0    0 -0.17381783961E+02  0.13272087829E+03  0.18027040935E+04  0.18093897391E+04  0.78944419256E+02 0.  0.
        -11    1    3    3    0    0 -0.10259174911E+03 -0.13026251749E+03 -0.79383798462E+03  0.81096987384E+03  0.00000000000E+00 0.  1.
         12    1    3    3    0    0 -0.28945099043E+02 -0.12787812521E+02 -0.55288112766E+02  0.63703393324E+02  0.00000000000E+00 0. -1.
         13    1    5    5    0    0 -0.14511531696E+02  0.95764205605E+02  0.16237849480E+04  0.16266711177E+04  0.00000000000E+00 0. -1.
        -14    1    5    5    0    0 -0.28702522656E+01  0.36956672682E+02  0.17891914544E+03  0.18271862140E+03  0.00000000000E+00 0.  1.
          5    1    4    4  501    0  0.30655086846E+02  0.41703229139E+02 -0.25983207433E+03  0.26496994720E+03  0.41800000000E+01 0. -1.
         -5    1    4    4    0  501  0.11826354527E+03 -0.31373777411E+02 -0.20131899386E+03  0.23562128456E+03  0.41800000000E+01 0. -1.
</event>
<event>
11    1  0.6930157E-009  0.1929588E+03  0.7561462E-02  0.1059618E+00
         22   -1    0    0    0    0  0.00000000000E+00  0.00000000000E+00  0.11300021709E+03  0.11300021709E+03  0.00000000000E+00 0. -1.
         22   -1    0    0    0    0 -0.00000000000E+00 -0.00000000000E+00 -0.37197824217E+04  0.37197824217E+04  0.00000000000E+00 0. -1.
         24    2    1    2    0    0 -0.22914681430E+02 -0.49618541963E+01 -0.31234049260E+04  0.31245234308E+04  0.80241105519E+02 0.  0.
         25    2    1    2    0    0  0.15849914561E+03 -0.45148706119E+02 -0.50482607623E+03  0.54558542287E+03  0.12511475366E+03 0.  0.
        -24    2    1    2    0    0 -0.13558446418E+03  0.50110560315E+02  0.21448797629E+02  0.16267378515E+03  0.71473731349E+02 0.  0.
        -13    1    3    3    0    0 -0.15221651883E+02 -0.11894620236E+02 -0.16902275382E+03  0.17012310832E+03  0.00000000000E+00 0.  1.
         14    1    3    3    0    0 -0.76930295464E+01  0.69327660393E+01 -0.29543821722E+04  0.29544003225E+04  0.00000000000E+00 0. -1.
         13    1    5    5    0    0 -0.10715264160E+03  0.26911749737E+02  0.44756612934E+02  0.11920186776E+03  0.00000000000E+00 0. -1.
        -14    1    5    5    0    0 -0.28431822585E+02  0.23198810578E+02 -0.23307815304E+02  0.43471917395E+02  0.00000000000E+00 0.  1.
          5    1    4    4  501    0  0.66863284597E-01  0.64119584738E+01  0.50443581310E+01  0.91670950210E+01  0.41800000000E+01 0. -1.
         -5    1    4    4    0  501  0.15843228233E+03 -0.51560664593E+02 -0.50987043436E+03  0.53641832784E+03  0.41800000000E+01 0. -1.
</event>
<event>
11    1  0.6930157E-009  0.1816569E+03  0.7561462E-02  0.1068310E+00
         22   -1    0    0    0    0  0.00000000000E+00  0.00000000000E+00  0.89676565818E+03  0.89676565818E+03  0.00000000000E+00 0.  1.
         22   -1    0    0    0    0 -0.00000000000E+00 -0.00000000000E+00 -0.14880136731E+03  0.14880136731E+03  0.00000000000E+00 0.  1.
         24    2    1    2    0    0  0.28434810204E+02 -0.12555145535E+03 -0.72739919584E+02  0.16789677764E+03  0.79539459822E+02 0.  0.
         25    2    1    2    0    0 -0.29810279761E+02  0.15602742564E+03  0.39985597378E+03  0.44805802961E+03  0.12505194040E+03 0.  0.
        -24    2    1    2    0    0  0.13754695575E+01 -0.30475970296E+02  0.42084823668E+03  0.42961221824E+03  0.80763500812E+02 0.  0.
        -13    1    3    3    0    0  0.17221778040E+02 -0.13216184928E+03 -0.77337361817E+02  0.15409221777E+03  0.00000000000E+00 0.  1.
         14    1    3    3    0    0  0.11213032164E+02  0.66103939285E+01  0.45974422323E+01  0.13804559873E+02  0.00000000000E+00 0. -1.
         11    1    5    5    0    0 -0.26864200348E+02 -0.37956759315E+02  0.14626178433E+03  0.15347609062E+03  0.00000000000E+00 0. -1.
        -12    1    5    5    0    0  0.28239669905E+02  0.74807890192E+01  0.27458645236E+03  0.27613612762E+03  0.00000000000E+00 0.  1.
          5    1    4    4  501    0 -0.22669927377E+02  0.68697654606E+02  0.32425963106E+03  0.33225754181E+03  0.41800000000E+01 0.  1.
         -5    1    4    4    0  501 -0.71403523842E+01  0.87329771038E+02  0.75596342717E+02  0.11580048780E+03  0.41800000000E+01 0.  1.
</event>
<event>
11    1  0.6930157E-009  0.1449800E+03  0.7561462E-02  0.1102121E+00
         22   -1    0    0    0    0  0.00000000000E+00  0.00000000000E+00  0.18809926283E+04  0.18809926283E+04  0.00000000000E+00 0.  1.
         22   -1    0    0    0    0 -0.00000000000E+00 -0.00000000000E+00 -0.14297185255E+04  0.14297185255E+04  0.00000000000E+00 0.  1.
        -24    2    1    2    0    0 -0.34239507751E+02 -0.64868934566E+02 -0.13844760512E+04  0.13880212681E+04  0.66699189643E+02 0.  0.
         25    2    1    2    0    0 -0.15677119895E+01  0.78692574616E+02  0.86567239253E+02  0.17127873822E+03  0.12509012845E+03 0.  0.
         24    2    1    2    0    0  0.35807219741E+02 -0.13823640050E+02  0.17491829148E+04  0.17514111474E+04  0.79541737572E+02 0.  0.
        -11    1    5    5    0    0  0.14367536797E+02  0.10716275630E+02  0.14999380981E+04  0.15000451869E+04  0.00000000000E+00 0.  1.
         12    1    5    5    0    0  0.21439682944E+02 -0.24539915680E+02  0.24924481672E+03  0.25136596056E+03  0.00000000000E+00 0. -1.
         11    1    3    3    0    0 -0.21987763077E+02  0.87371555827E+01 -0.26114953961E+03  0.26221914814E+03  0.00000000000E+00 0. -1.
        -12    1    3    3    0    0 -0.12251744674E+02 -0.73606090149E+02 -0.11233265116E+04  0.11258021200E+04  0.00000000000E+00 0.  1.
          5    1    4    4  501    0 -0.60516850609E+02  0.35296584803E+02  0.21911344279E+02  0.73523584751E+02  0.41800000000E+01 0. -1.
         -5    1    4    4    0  501  0.58949138620E+02  0.43395989813E+02  0.64655894973E+02  0.97755153474E+02  0.41800000000E+01 0. -1.
</event>
<event>
11    1  0.6930157E-009  0.1956774E+03  0.7561462E-02  0.1057623E+00
         22   -1    0    0    0    0  0.00000000000E+00  0.00000000000E+00  0.96678716287E+03  0.96678716287E+03  0.00000000000E+00 0.  1.
         22   -1    0    0    0    0 -0.00000000000E+00 -0.00000000000E+00 -0.26665437945E+03  0.26665437945E+03  0.00000000000E+00 0. -1.
         24    2    1    2    0    0 -0.93612194721E+02  0.13237474043E+03 -0.17164678912E+03  0.24913484148E+03  0.79493610581E+02 0.  0.
         25    2    1    2    0    0  0.73350561146E+01 -0.12140251287E+03  0.95440532592E+02  0.19886693164E+03  0.12508712187E+03 0.  0.
        -24    2    1    2    0    0  0.86277138606E+02 -0.10972227559E+02  0.77633903994E+03  0.78543976920E+03  0.81542575902E+02 0.  0.
        -11    1    3    3    0    0 -0.61078119962E+02  0.24906977322E+02 -0.44833961338E+02  0.79755741779E+02  0.00000000000E+00 0.  1.
         12    1    3    3    0    0 -0.32534074758E+02  0.10746776311E+03 -0.12681282778E+03  0.16937909971E+03  0.00000000000E+00 0. -1.
         11    1    5    5    0    0  0.17048917108E+02 -0.40265802309E+02  0.25822763839E+03  0.26190363426E+03  0.00000000000E+00 0. -1.
        -12    1    5    5    0    0  0.69228221497E+02  0.29293574750E+02  0.51811140155E+03  0.52353613495E+03  0.00000000000E+00 0.  1.
          5    1    4    4  501    0  0.26405515372E+02 -0.13843538261E+03  0.56063421955E+02  0.15173063660E+03  0.41800000000E+01 0. -1.
         -5    1    4    4    0  501 -0.19070459258E+02  0.17032869741E+02  0.39377110637E+02  0.47136295039E+02  0.41800000000E+01 0. -1.
</event>
<event>
11    1  0.6930157E-009  0.1752469E+03  0.7561462E-02  0.1073554E+00
         22   -1    0    0    0    0  0.00000000000E+00  0.00000000000E+00  0.38681677635E+03  0.38681677635E+03  0.00000000000E+00 0.  1.
         22   -1    0    0    0    0 -0.00000000000E+00 -0.00000000000E+00 -0.24530948612E+04  0.24530948612E+04  0.00000000000E+00 0. -1.
         24    2    1    2    0    0  0.56996727827E+02  0.11790072257E+03 -0.22343670390E+04  0.22397280930E+04  0.82684086550E+02 0.  0.
         25    2    1    2    0    0 -0.34558399554E+02 -0.42811199532E+02 -0.18475944425E+03  0.22980659822E+03  0.12509172059E+03 0.  0.
        -24    2    1    2    0    0 -0.22438328273E+02 -0.75089523037E+02  0.35284839845E+03  0.37037694630E+03  0.80840429322E+02 0.  0.
        -11    1    3    3    0    0  0.29401333219E+02  0.48013987274E+02 -0.41396127211E+03  0.41777232576E+03  0.00000000000E+00 0.  1.
         12    1    3    3    0    0  0.27595394608E+02  0.69886735295E+02 -0.18204057669E+04  0.18219557672E+04  0.00000000000E+00 0. -1.
         13    1    5    5    0    0 -0.20505523123E+02 -0.86597986739E+02  0.22444092250E+03  0.24144029382E+03  0.00000000000E+00 0. -1.
        -14    1    5    5    0    0 -0.19328051497E+01  0.11508463702E+02  0.12840747595E+03  0.12893665248E+03  0.00000000000E+00 0.  1.
          5    1    4    4  501    0 -0.16840213666E+02 -0.29999159534E+02 -0.19990184128E+03  0.20288361421E+03  0.41800000000E+01 0.  1.
         -5    1    4    4    0  501 -0.17718185888E+02 -0.12812039998E+02  0.15142397028E+02  0.26922984007E+02  0.41800000000E+01 0.  1.
</event>
<event>
11    1  0.6930157E-009  0.1315224E+03  0.7561462E-02  0.1117412E+00
         22   -1    0    0    0    0  0.00000000000E+00  0.00000000000E+00  0.44285902623E+02  0.44285902623E+02  0.00000000000E+00 0.  1.
         22   -1    0    0    0    0 -0.00000000000E+00 -0.00000000000E+00 -0.20207840839E+04  0.20207840839E+04  0.00000000000E+00 0. -1.
         24    2    1    2    0    0 -0.40987144603E+02  0.79739168462E+00 -0.14030152091E+04  0.14059211587E+04  0.80511152605E+02 0.  0.
         25    2    1    2    0    0  0.38823353096E+02  0.80037279987E+01 -0.56293586781E+03  0.57802632202E+03  0.12508527202E+03 0.  0.
        -24    2    1    2    0    0  0.21637915075E+01 -0.88011196834E+01 -0.10547104326E+02  0.81122505747E+02  0.79921698103E+02 0.  0.
        -13    1    3    3    0    0  0.23279590511E+02 -0.87697893539E+01 -0.32597659784E+03  0.32692444216E+03  0.00000000000E+00 0.  1.
         14    1    3    3    0    0 -0.64266735114E+02  0.95671810385E+01 -0.10770386113E+04  0.10789967166E+04  0.00000000000E+00 0. -1.
         11    1    5    5    0    0 -0.49086930235E+01  0.32056210472E+02 -0.20647700280E+02  0.38445070216E+02  0.00000000000E+00 0. -1.
        -12    1    5    5    0    0  0.70724845310E+01 -0.40857330155E+02  0.10100595954E+02  0.42677435531E+02  0.00000000000E+00 0.  1.
          5    1    4    4  501    0  0.50187775304E+02  0.57582803645E+02 -0.40123725255E+03  0.40846468305E+03  0.41800000000E+01 0.  1.
         -5    1    4    4    0  501 -0.11364422208E+02 -0.49579075646E+02 -0.16169861526E+03  0.16956163897E+03  0.41800000000E+01 0.  1.
</event>
<event>
11    1  0.6930157E-009  0.1415613E+03  0.7561462E-02  0.1105827E+00
         22   -1    0    0    0    0  0.00000000000E+00  0.00000000000E+00  0.57040696641E+03  0.57040696641E+03  0.00000000000E+00 0.  1.
         22   -1    0    0    0    0 -0.00000000000E+00 -0.00000000000E+00 -0.60272107580E+03  0.60272107580E+03  0.00000000000E+00 0.  1.
        -24    2    1    2    0    0 -0.50808653094E+01 -0.66820560167E+02 -0.53003451817E+03  0.53985722196E+03  0.77578522814E+02 0.  0.
         25    2    1    2    0    0  0.44213307257E+01  0.55299435295E+02  0.79316531996E+01  0.13706514367E+03  0.12508543792E+03 0.  0.
         24    2    1    2    0    0  0.65953458370E+00  0.11521124872E+02  0.48978875558E+03  0.49620567657E+03  0.78701188483E+02 0.  0.
        -13    1    5    5    0    0 -0.19029360728E+02  0.20137981111E+02  0.45108506314E+03  0.45193516022E+03  0.00000000000E+00 0.  1.
         14    1    5    5    0    0  0.19688895312E+02 -0.86168562389E+01  0.38703692438E+02  0.44270516355E+02  0.00000000000E+00 0. -1.
         13    1    3    3    0    0  0.19969738878E+02  0.10339818886E+01 -0.24403849988E+03  0.24485638446E+03  0.00000000000E+00 0. -1.
        -14    1    3    3    0    0 -0.25050604188E+02 -0.67854542056E+02 -0.28599601829E+03  0.29500083750E+03  0.00000000000E+00 0.  1.
          5    1    4    4  501    0  0.56853370075E+02  0.54625742461E+02  0.23198678182E+02  0.82291728003E+02  0.41800000000E+01 0.  1.
         -5    1    4    4    0  501 -0.52432039350E+02  0.67369283385E+00 -0.15267024983E+02  0.54773415671E+02  0.41800000000E+01 0.  1.
</event>
<event>
11    1  0.6930157E-009  0.1673952E+03  0.7561462E-02  0.1080321E+00
         22   -1    0    0    0    0  0.00000000000E+00  0.00000000000E+00  0.76323221513E+03  0.76323221513E+03  0.00000000000E+00 0.  1.
         22   -1    0    0    0    0 -0.00000000000E+00 -0.00000000000E+00 -0.47573302273E+03  0.47573302273E+03  0.00000000000E+00 0.  1.
         24    2    1    2    0    0 -0.22950030798E+02 -0.29360487350E+02 -0.21785263053E+03  0.23491809043E+03  0.79611547243E+02 0.  0.
         25    2    1    2    0    0 -0.20745577278E+02  0.13114986044E+03 -0.20868675308E+03  0.27717955815E+03  0.12509069381E+03 0.  0.
        -24    2    1    2    0    0  0.43695608076E+02 -0.10178937309E+03  0.71403857601E+03  0.72686758928E+03  0.78835408800E+02 0.  0.
        -13    1    3    3    0    0  0.27761054669E+02 -0.17870682591E+00 -0.92640440587E+02  0.96710699122E+02  0.00000000000E+00 0.  1.
         14    1    3    3    0    0 -0.50711085466E+02 -0.29181780524E+02 -0.12521218994E+03  0.13820739131E+03  0.00000000000E+00 0. -1.
         11    1    5    5    0    0  0.38813168633E+02 -0.22713261513E+02  0.13174241975E+03  0.13920639163E+03  0.00000000000E+00 0. -1.
        -12    1    5    5    0    0  0.48824394430E+01 -0.79076111573E+02  0.58229615625E+03  0.58766119765E+03  0.00000000000E+00 0.  1.
          5    1    4    4  501    0 -0.17550009965E+02  0.15357148269E+03 -0.19944258334E+03  0.25236287285E+03  0.41800000000E+01 0.  1.
         -5    1    4    4    0  501 -0.31955673132E+01 -0.22421622257E+02 -0.92441697429E+01  0.24816685301E+02  0.41800000000E+01 0.  1.
</event>
<event>
11    1  0.6930157E-009  0.1340721E+03  0.7561462E-02  0.1114365E+00
         22   -1    0    0    0    0  0.00000000000E+00  0.00000000000E+00  0.29064597014E+02  0.29064597014E+02  0.00000000000E+00 0.  1.
         22   -1    0    0    0    0 -0.00000000000E+00 -0.00000000000E+00 -0.15776798484E+04  0.15776798484E+04  0.00000000000E+00 0.  1.
        -24    2    1    2    0    0  0.41582540684E+01  0.46956265701E+02 -0.10768773296E+04  0.10810921216E+04  0.82904827052E+02 0.  0.
         25    2    1    2    0    0 -0.28352941449E+02 -0.51953235050E+02 -0.36185096871E+03  0.38740822274E+03  0.12508389012E+03 0.  0.
         24    2    1    2    0    0  0.24194687380E+02  0.49969693485E+01 -0.10988695305E+03  0.13824410108E+03  0.80161938806E+02 0.  0.
        -11    1    5    5    0    0  0.30950318336E+02 -0.31948660523E+02 -0.45020166115E+02  0.63288659895E+02  0.00000000000E+00 0.  1.
         12    1    5    5    0    0 -0.67556309560E+01  0.36945629871E+02 -0.64866786931E+02  0.74955441183E+02  0.00000000000E+00 0. -1.
         13    1    3    3    0    0 -0.30274957721E+02 -0.43732103293E+01 -0.24116422806E+03  0.24309644779E+03  0.00000000000E+00 0. -1.
        -14    1    3    3    0    0  0.34433211790E+02  0.51329476031E+02 -0.83571310156E+03  0.83799567379E+03  0.00000000000E+00 0.  1.
          5    1    4    4  501    0 -0.26972322624E+02  0.38820968454E+02 -0.11956468175E+03  0.12863809428E+03  0.41800000000E+01 0.  1.
         -5    1    4    4    0  501 -0.13806188245E+01 -0.90774203504E+02 -0.24228628697E+03  0.25877012846E+03  0.41800000000E+01 0.  1.
</event>
<event>
11    1  0.6930157E-009  0.1415638E+03  0.7561462E-02  0.1105825E+00
         22   -1    0    0    0    0  0.00000000000E+00  0.00000000000E+00  0.49108869577E+03  0.49108869577E+03  0.00000000000E+00 0.  1.
         22   -1    0    0    0    0 -0.00000000000E+00 -0.00000000000E+00 -0.32151506210E+03  0.32151506210E+03  0.00000000000E+00 0. -1.
        -24    2    1    2    0    0  0.59689333428E+02 -0.15236318776E+02 -0.21731153463E+03  0.24009706367E+03  0.81408445284E+02 0.  0.
         25    2    1    2    0    0 -0.97605524068E+02  0.25754676148E+01 -0.16200235967E+02  0.15950914649E+03  0.12508896357E+03 0.  0.
         24    2    1    2    0    0  0.37916190640E+02  0.12660851162E+02  0.40308540427E+03  0.41299754771E+03  0.80567962702E+02 0.  0.
        -11    1    5    5    0    0  0.19354587892E+02  0.12470897113E+02  0.38903824979E+03  0.38971897971E+03  0.00000000000E+00 0.  1.
         12    1    5    5    0    0  0.18561602748E+02  0.18995404853E+00  0.14047154482E+02  0.23278568001E+02  0.00000000000E+00 0. -1.
         13    1    3    3    0    0  0.64537170213E+02  0.15521338955E+02 -0.17783197035E+03  0.18981614257E+03  0.00000000000E+00 0. -1.
        -14    1    3    3    0    0 -0.48478367846E+01 -0.30757657731E+02 -0.39479564282E+02  0.50280921098E+02  0.00000000000E+00 0.  1.
          5    1    4    4  501    0 -0.56070151643E+02 -0.57459691465E+02  0.11710844469E+02  0.81240964585E+02  0.41800000000E+01 0. -1.
         -5    1    4    4    0  501 -0.41535372425E+02  0.60035159080E+02 -0.27911080437E+02  0.78268181909E+02  0.41800000000E+01 0. -1.
</event>
<event>
11    1  0.6930157E-009  0.1528349E+03  0.7561462E-02  0.1094017E+00
         22   -1    0    0    0    0  0.00000000000E+00  0.00000000000E+00  0.37762221436E+02  0.37762221436E+02  0.00000000000E+00 0. -1.
         22   -1    0    0    0    0 -0.00000000000E+00 -0.00000000000E+00 -0.33129655403E+04  0.33129655403E+04  0.00000000000E+00 0.  1.
        -24    2    1    2    0    0 -0.89450552632E+02 -0.19953440372E+02 -0.28560842915E+04  0.28586818136E+04  0.80278827695E+02 0.  0.
         25    2    1    2    0    0  0.38552838590E+02  0.43398314347E+02 -0.33593939376E+03  0.36314218455E+03  0.12508890785E+03 0.  0.
         24    2    1    2    0    0  0.50897714043E+02 -0.23444873975E+02 -0.83179633692E+02  0.12890376366E+03  0.80975856990E+02 0.  0.
        -13    1    5    5    0    0  0.84577078638E+01  0.22963907686E+01 -0.78566192728E+02  0.79053481092E+02  0.00000000000E+00 0.  1.
         14    1    5    5    0    0  0.42440006179E+02 -0.25741264743E+02 -0.46134409639E+01  0.49850282573E+02  0.00000000000E+00 0. -1.
         13    1    3    3    0    0 -0.36410498952E+01 -0.28260988350E+02 -0.36680463271E+03  0.36790974339E+03  0.00000000000E+00 0. -1.
        -14    1    3    3    0    0 -0.85809502737E+02  0.83075479776E+01 -0.24892796587E+04  0.24907720702E+04  0.00000000000E+00 0.  1.
          5    1    4    4  501    0 -0.33892525425E+02  0.50947486934E+02 -0.11305099739E+03  0.12861706774E+03  0.41800000000E+01 0.  1.
         -5    1    4    4    0  501  0.72445364015E+02 -0.75491725868E+01 -0.22288839637E+03  0.23452511680E+03  0.41800000000E+01 0.  1.
</event>
<event>
11    1  0.6930157E-009  0.1287654E+03  0.7561462E-02  0.1120795E+00
         22   -1    0    0    0    0  0.00000000000E+00  0.00000000000E+00  0.36605240647E+03  0.36605240647E+03  0.00000000000E+00 0. -1.
         22   -1    0    0    0    0 -0.00000000000E+00 -0.00000000000E+00 -0.20513293748E+04  0.20513293748E+04  0.00000000000E+00 0. -1.
         24    2    1    2    0    0 -0.11409576579E+02 -0.74812616393E+01 -0.14938248765E+04  0.14957847065E+04  0.75319179995E+02 0.  0.
         25    2    1    2    0    0  0.37095656454E+02  0.23771107900E+02 -0.54334628323E+03  0.55929774302E+03  0.12509048148E+03 0.  0.
        -24    2    1    2    0    0 -0.25686079875E+02 -0.16289846261E+02  0.35189419142E+03  0.36229933170E+03  0.80660709148E+02 0.  0.
        -11    1    3    3    0    0 -0.40589558883E+02 -0.13652090367E+02 -0.63516433431E+03  0.63660633318E+03  0.00000000000E+00 0.  1.
         12    1    3    3    0    0  0.29179982304E+02  0.61708287275E+01 -0.85866054222E+03  0.85917837337E+03  0.00000000000E+00 0. -1.
         13    1    5    5    0    0  0.22440974820E+02 -0.10500031300E+02  0.22667579476E+03  0.22802579665E+03  0.00000000000E+00 0. -1.
        -14    1    5    5    0    0 -0.48127054695E+02 -0.57898149609E+01  0.12521839666E+03  0.13427353505E+03  0.00000000000E+00 0.  1.
          5    1    4    4  501    0 -0.76736447913E+00 -0.10033464497E+02  0.24186715951E+01  0.11161614146E+02  0.41800000000E+01 0.  1.
         -5    1    4    4    0  501  0.37863020933E+02  0.33804572397E+02 -0.54576495482E+03  0.54813612888E+03  0.41800000000E+01 0.  1.
</event>
<event>
11    1  0.6930157E-009  0.1927057E+03  0.7561462E-02  0.1059805E+00
         22   -1    0    0    0    0  0.00000000000E+00  0.00000000000E+00  0.52767891269E+03  0.52767891269E+03  0.00000000000E+00 0.  1.
         22   -1    0    0    0    0 -0.00000000000E+00 -0.00000000000E+00 -0.15126757831E+04  0.15126757831E+04  0.00000000000E+00 0. -1.
         24    2    1    2    0    0 -0.28306017975E+02  0.25361026836E+02 -0.12822678995E+04  0.12851890434E+04  0.77817085235E+02 0.  0.
         25    2    1    2    0    0  0.16047392569E+03  0.35793767959E+02 -0.16483011286E+03  0.26428820439E+03  0.12508482811E+03 0.  0.
        -24    2    1    2    0    0 -0.13216790772E+03 -0.61154794796E+02  0.46210114199E+03  0.49087744800E+03  0.78834882949E+02 0.  0.
        -13    1    3    3    0    0  0.23121782576E+02 -0.34407158433E+01 -0.20888768169E+03  0.21019162428E+03  0.00000000000E+00 0.  1.
         14    1    3    3    0    0 -0.51427800551E+02  0.28801742680E+02 -0.10733802178E+04  0.10749974191E+04  0.00000000000E+00 0. -1.
         11    1    5    5    0    0 -0.60600369702E+02 -0.33907503605E+01  0.97442029036E+02  0.11479917691E+03  0.00000000000E+00 0. -1.
        -12    1    5    5    0    0 -0.71567538013E+02 -0.57764044435E+02  0.36465911295E+03  0.37607827109E+03  0.00000000000E+00 0.  1.
          5    1    4    4  501    0 -0.11558005763E+02 -0.53443674453E+01  0.90862538407E+01  0.16192040312E+02  0.41800000000E+01 0.  1.
         -5    1    4    4    0  501  0.17203193145E+03  0.41138135405E+02 -0.17391636670E+03  0.24809616408E+03  0.41800000000E+01 0.  1.
</event>
<event>
11    1  0.6930157E-009  0.1764031E+03  0.7561462E-02  0.1072590E+00
         22   -1    0    0    0    0  0.00000000000E+00  0.00000000000E+00  0.32197984298E+04  0.32197984298E+04  0.00000000000E+00 0. -1.
         22   -1    0    0    0    0 -0.00000000000E+00 -0.00000000000E+00 -0.13613665532E+03  0.13613665532E+03  0.00000000000E+00 0. -1.
         24    2    1    2    0    0  0.25496650299E+02  0.44176573793E+02 -0.84462039074E+02  0.12900936079E+03  0.83113959593E+02 0.  0.
         25    2    1    2    0    0 -0.12810294379E+03  0.26497674174E+02  0.27027327147E+03  0.32528408797E+03  0.12509838398E+03 0.  0.
        -24    2    1    2    0    0  0.10260629349E+03 -0.70674247967E+02  0.28978505421E+04  0.29016416364E+04  0.80396024612E+02 0.  0.
        -13    1    3    3    0    0  0.63605995384E+01  0.48060704279E+01  0.16852171228E+02  0.18642725513E+02  0.00000000000E+00 0.  1.
         14    1    3    3    0    0  0.19136050761E+02  0.39370503365E+02 -0.10131421030E+03  0.11036663528E+03  0.00000000000E+00 0. -1.
         13    1    5    5    0    0  0.49304813040E+02  0.10378709627E+02  0.11462588505E+04  0.11473656935E+04  0.00000000000E+00 0. -1.
        -14    1    5    5    0    0  0.53301480447E+02 -0.81052957594E+02  0.17515916916E+04  0.17542759429E+04  0.00000000000E+00 0.  1.
          5    1    4    4  501    0 -0.13023509224E+03  0.36213626288E+02  0.14032128813E+03  0.19488494627E+03  0.41800000000E+01 0. -1.
         -5    1    4    4    0  501  0.21321484568E+01 -0.97159521144E+01  0.12995198334E+03  0.13039914170E+03  0.41800000000E+01 0. -1.
</event>
<event>
11    1  0.6930157E-009  0.1714153E+03  0.7561462E-02  0.1076807E+00
         22   -1    0    0    0    0  0.00000000000E+00  0.00000000000E+00  0.20191128722E+04  0.20191128722E+04  0.00000000000E+00 0. -1.
         22   -1    0    0    0    0 -0.00000000000E+00 -0.00000000000E+00 -0.13433175268E+03  0.13433175268E+03  0.00000000000E+00 0.  1.
         24    2    1    2    0    0 -0.22704616101E+02  0.31300588297E+02 -0.10122467953E+03  0.13519330943E+03  0.80842864545E+02 0.  0.
         25    2    1    2    0    0  0.10326659636E+03 -0.10419441193E+03  0.73182825614E+03  0.75679648046E+03  0.12509137044E+03 0.  0.
        -24    2    1    2    0    0 -0.80561980260E+02  0.72893823632E+02  0.12541775430E+04  0.12614548350E+04  0.80642726935E+02 0.  0.
        -11    1    3    3    0    0 -0.47795224800E+02  0.27527801676E+02 -0.93700028978E+02  0.10872837168E+03  0.00000000000E+00 0.  1.
         12    1    3    3    0    0  0.25090608698E+02  0.37727866215E+01 -0.75246505500E+01  0.26464937741E+02  0.00000000000E+00 0. -1.
         11    1    5    5    0    0 -0.41062710427E+02  0.79062984911E+02  0.66787108749E+03  0.67378697767E+03  0.00000000000E+00 0. -1.
        -12    1    5    5    0    0 -0.39499269834E+02 -0.61691612796E+01  0.58630645546E+03  0.58766785737E+03  0.00000000000E+00 0.  1.
          5    1    4    4  501    0  0.12547002284E+02  0.16916011282E+02  0.21021228732E+02  0.30049012653E+02  0.41800000000E+01 0. -1.
         -5    1    4    4    0  501  0.90719594077E+02 -0.12111042321E+03  0.71080702740E+03  0.72674746781E+03  0.41800000000E+01 0. -1.
</event>
<event>
11    1  0.6930157E-009  0.1701966E+03  0.7561462E-02  0.1077861E+00
         22   -1    0    0    0    0  0.00000000000E+00  0.00000000000E+00  0.12811687015E+04  0.12811687015E+04  0.00000000000E+00 0.  1.
         22   -1    0    0    0    0 -0.00000000000E+00 -0.00000000000E+00 -0.25665457628E+03  0.25665457628E+03  0.00000000000E+00 0. -1.
        -24    2    1    2    0    0 -0.25107495533E+02 -0.11002241805E+03 -0.20197801554E+03  0.24598733281E+03  0.83542386475E+02 0.  0.
         25    2    1    2    0    0  0.43368690480E+02  0.14566933356E+03  0.28769648888E+03  0.34860834234E+03  0.12513236423E+03 0.  0.
         24    2    1    2    0    0 -0.18261194947E+02 -0.35646915513E+02  0.93879565191E+03  0.94322760266E+03  0.82078380594E+02 0.  0.
        -11    1    5    5    0    0  0.13134281822E+02 -0.29849278644E+02  0.80557424819E+03  0.80623405915E+03  0.00000000000E+00 0.  1.
         12    1    5    5    0    0 -0.31395476769E+02 -0.57976368699E+01  0.13322140372E+03  0.13699354351E+03  0.00000000000E+00 0. -1.
         13    1    3    3    0    0 -0.36262098939E+02 -0.49826273610E+02 -0.16080616522E+03  0.17220981428E+03  0.00000000000E+00 0. -1.
        -14    1    3    3    0    0  0.11154603406E+02 -0.60196144438E+02 -0.41171850323E+02  0.73777518536E+02  0.00000000000E+00 0.  1.
          5    1    4    4  501    0  0.39096157847E+02  0.75215437802E+02  0.25855994208E+03  0.27213340054E+03  0.41800000000E+01 0.  1.
         -5    1    4    4    0  501  0.42725326333E+01  0.70453895759E+02  0.29136546797E+02  0.76474941791E+02  0.41800000000E+01 0.  1.
</event>
<event>
11    1  0.6930157E-009  0.1613978E+03  0.7561462E-02  0.1085770E+00
         22   -1    0    0    0    0  0.00000000000E+00  0.00000000000E+00  0.20416980594E+04  0.20416980594E+04  0.00000000000E+00 0. -1.
         22   -1    0    0    0    0 -0.00000000000E+00 -0.00000000000E+00 -0.57103683085E+02  0.57103683085E+02  0.00000000000E+00 0.  1.
         24    2    1    2    0    0 -0.75457175725E+02  0.19425143163E+02  0.87631061402E+02  0.14295507777E+03  0.81766923530E+02 0.  0.
         25    2    1    2    0    0  0.12635360377E+03  0.66445105394E+02  0.30888784746E+03  0.36255235963E+03  0.12510925605E+03 0.  0.
        -24    2    1    2    0    0 -0.50896428041E+02 -0.85870248557E+02  0.15880754674E+04  0.15932943051E+04  0.81479483917E+02 0.  0.
        -11    1    3    3    0    0 -0.82379098740E+02  0.23957348973E+02  0.40085248290E+02  0.94694760201E+02  0.00000000000E+00 0.  1.
         12    1    3    3    0    0  0.69219230150E+01 -0.45322058096E+01  0.47545813113E+02  0.48260317573E+02  0.00000000000E+00 0. -1.
         13    1    5    5    0    0 -0.94557213058E+01 -0.33217382251E+01  0.76282513060E+03  0.76289096500E+03  0.00000000000E+00 0. -1.
        -14    1    5    5    0    0 -0.41440706735E+02 -0.82548510332E+02  0.82525033684E+03  0.83040334006E+03  0.00000000000E+00 0.  1.
          5    1    4    4  501    0  0.35850715135E+02  0.86549216618E+02  0.12184293533E+03  0.15375049256E+03  0.41800000000E+01 0. -1.
         -5    1    4    4    0  501  0.90502888631E+02 -0.20104111224E+02  0.18704491212E+03  0.20880186706E+03  0.41800000000E+01 0. -1.
</event>
<event>
11    1  0.6930157E-009  0.1408331E+03  0.7561462E-02  0.1106632E+00
         22   -1    0    0    0    0  0.00000000000E+00  0.00000000000E+00  0.29120659245E+03  0.29120659245E+03  0.00000000000E+00 0. -1.
         22   -1    0    0    0    0 -0.00000000000E+00 -0.00000000000E+00 -0.47460356221E+03  0.47460356221E+03  0.00000000000E+00 0. -1.
        -24    2    1    2    0    0  0.64931494951E+02 -0.30586854071E+01 -0.42491102435E+03  0.43729629476E+03  0.80331912740E+02 0.  0.
         25    2    1    2    0    0 -0.57184264866E+02  0.55297254793E+01  0.12037541967E+03  0.18286101292E+03  0.12508912971E+03 0.  0.
         24    2    1    2    0    0 -0.77472300850E+01 -0.24710400722E+01  0.12113863491E+03  0.14565284699E+03  0.80461527170E+02 0.  0.
        -11    1    5    5    0    0 -0.10378061890E+02 -0.38001275213E+02  0.36017952319E+02  0.53376904890E+02  0.00000000000E+00 0.  1.
         12    1    5    5    0    0  0.26308318048E+01  0.35530235141E+02  0.85120682590E+02  0.92275942096E+02  0.00000000000E+00 0. -1.
         13    1    3    3    0    0  0.39026857238E+02  0.37969164818E+02 -0.24297122700E+03  0.24899753053E+03  0.00000000000E+00 0. -1.
        -14    1    3    3    0    0  0.25904637714E+02 -0.41027850225E+02 -0.18193979735E+03  0.18829876423E+03  0.00000000000E+00 0.  1.
          5    1    4    4  501    0 -0.93205650703E+02  0.21663912830E+02  0.99124533129E+02  0.13783963113E+03  0.41800000000E+01 0.  1.
         -5    1    4    4    0  501  0.36021385837E+02 -0.16134187351E+02  0.21250886544E+02  0.45021381786E+02  0.41800000000E+01 0.  1.
</event>
<event>
11    1  0.6930157E-009  0.1359280E+03  0.7561462E-02  0.1112193E+00
         22   -1    0    0    0    0  0.00000000000E+00  0.00000000000E+00  0.44860296118E+02  0.44860296118E+02  0.00000000000E+00 0. -1.
         22   -1    0    0    0    0 -0.00000000000E+00 -0.00000000000E+00 -0.12800501592E+04  0.12800501592E+04  0.00000000000E+00 0.  1.
         24    2    1    2    0    0  0.12608764022E+02 -0.65495391704E+01 -0.77134612237E+03  0.77582920633E+03  0.82062412233E+02 0.  0.
         25    2    1    2    0    0  0.33917049529E+02 -0.23217828285E+02 -0.42216749382E+03  0.44222775903E+03  0.12510221506E+03 0.  0.
        -24    2    1    2    0    0 -0.46525813552E+02  0.29767367456E+02 -0.41676246864E+02  0.10685348994E+03  0.81424881134E+02 0.  0.
        -13    1    3    3    0    0 -0.15350174036E+02 -0.69732521298E+01 -0.68202949586E+03  0.68223785245E+03  0.00000000000E+00 0.  1.
         14    1    3    3    0    0  0.27958938058E+02  0.42371295941E+00 -0.89316626510E+02  0.93591353880E+02  0.00000000000E+00 0. -1.
         11    1    5    5    0    0 -0.29431670426E+02  0.47671011496E+02  0.26462811150E+01  0.56086998180E+02  0.00000000000E+00 0. -1.
        -12    1    5    5    0    0 -0.17094143126E+02 -0.17903644040E+02 -0.44322527979E+02  0.50766491760E+02  0.00000000000E+00 0.  1.
          5    1    4    4  501    0 -0.38182437412E+02  0.18601750290E+02 -0.20886249606E+03  0.21317818439E+03  0.41800000000E+01 0.  1.
         -5    1    4    4    0  501  0.72099486941E+02 -0.41819578575E+02 -0.21330499776E+03  0.22904957463E+03  0.41800000000E+01 0.  1.
</event>
<event>
11    1  0.6930157E-009  0.1372780E+03  0.7561462E-02  0.1110637E+00
         22   -1    0    0    0    0  0.00000000000E+00  0.00000000000E+00  0.73757441390E+03  0.73757441390E+03  0.00000000000E+00 0.  1.
         22   -1    0    0    0    0 -0.00000000000E+00 -0.00000000000E+00 -0.10928330095E+04  0.10928330095E+04  0.00000000000E+00 0. -1.
        -24    2    1    2    0    0 -0.22977443391E+01 -0.45560289012E+02 -0.87419275489E+03  0.87889556398E+03  0.78507452635E+02 0.  0.
         25    2    1    2    0    0 -0.31575497401E+02  0.90158747330E+02 -0.18388510875E+03  0.24204889939E+03  0.12509326410E+03 0.  0.
         24    2    1    2    0    0  0.33873241740E+02 -0.44598458318E+02  0.70281926809E+03  0.70946295999E+03  0.79033847219E+02 0.  0.
        -13    1    5    5    0    0 -0.79405402414E+01 -0.48605582332E+02  0.25754034362E+03  0.26220713836E+03  0.00000000000E+00 0.  1.
         14    1    5    5    0    0  0.41813781982E+02  0.40071240134E+01  0.44527892446E+03  0.44725582162E+03  0.00000000000E+00 0. -1.
         13    1    3    3    0    0  0.19440359524E+02  0.12567008289E+02 -0.39849801826E+03  0.39916979825E+03  0.00000000000E+00 0. -1.
        -14    1    3    3    0    0 -0.21738103863E+02 -0.58127297301E+02 -0.47569473663E+03  0.47972576574E+03  0.00000000000E+00 0.  1.
          5    1    4    4  501    0 -0.57930566197E+02  0.93099521389E+02 -0.18509355596E+03  0.21517566833E+03  0.41800000000E+01 0.  1.
         -5    1    4    4    0  501  0.26355068795E+02 -0.29407740587E+01  0.12084472108E+01  0.26873231066E+02  0.41800000000E+01 0.  1.
</event>
<event>
11    1  0.6930157E-009  0.1445369E+03  0.7561462E-02  0.1102595E+00
         22   -1    0    0    0    0  0.00000000000E+00  0.00000000000E+00  0.34545601488E+04  0.34545601488E+04  0.00000000000E+00 0.  1.
         22   -1    0    0    0    0 -0.00000000000E+00 -0.00000000000E+00 -0.12227339402E+03  0.12227339402E+03  0.00000000000E+00 0. -1.
         24    2    1    2    0    0  0.86194719710E+01 -0.71659072893E+01 -0.95700617644E+02  0.12603462419E+03  0.81243293594E+02 0.  0.
         25    2    1    2    0    0 -0.23277085821E+02 -0.64213288423E+02  0.47805440585E+03  0.49884810358E+03  0.12509295088E+03 0.  0.
        -24    2    1    2    0    0  0.14657613850E+02  0.71379195712E+02  0.29499329665E+04  0.29519508150E+04  0.81235903125E+02 0.  0.
        -13    1    3    3    0    0  0.42412046274E+02  0.53603374803E+01 -0.34174755386E+02  0.54730510620E+02  0.00000000000E+00 0.  1.
         14    1    3    3    0    0 -0.33792574303E+02 -0.12526244770E+02 -0.61525862257E+02  0.71304113574E+02  0.00000000000E+00 0. -1.
         13    1    5    5    0    0 -0.84928180020E+01 -0.39068987962E+01  0.13893207085E+04  0.13893521594E+04  0.00000000000E+00 0. -1.
        -14    1    5    5    0    0  0.23150431852E+02  0.75286094508E+02  0.15606122580E+04  0.15625986556E+04  0.00000000000E+00 0.  1.
          5    1    4    4  501    0 -0.37830643758E+02 -0.95887548469E+02  0.40289373687E+03  0.41589231198E+03  0.41800000000E+01 0.  1.
         -5    1    4    4    0  501  0.14553557937E+02  0.31674260046E+02  0.75160668980E+02  0.82955791598E+02  0.41800000000E+01 0.  1.
</event>
<event>
11    1  0.6930157E-009  0.1362944E+03  0.7561462E-02  0.1111768E+00
         22   -1    0    0    0    0  0.00000000000E+00  0.00000000000E+00  0.53038437175E+03  0.53038437175E+03  0.00000000000E+00 0. -1.
         22   -1    0    0    0    0 -0.00000000000E+00 -0.00000000000E+00 -0.62828658291E+03  0.62828658291E+03  0.00000000000E+00 0. -1.
        -24    2    1    2    0    0  0.28094769172E+02 -0.31767152319E+02 -0.39791423339E+03  0.40811836317E+03  0.80164787757E+02 0.  0.
         25    2    1    2    0    0 -0.77064682926E+02  0.52390259616E+02 -0.19182910202E+03  0.24724556379E+03  0.12509300450E+03 0.  0.
         24    2    1    2    0    0  0.48969913754E+02 -0.20623107297E+02  0.49184112426E+03  0.50330702769E+03  0.92665568614E+02 0.  0.
        -13    1    5    5    0    0 -0.65389576940E+01  0.43486086199E+01  0.14132701114E+00  0.78541923822E+01  0.00000000000E+00 0.  1.
         14    1    5    5    0    0  0.55508871448E+02 -0.24971715917E+02  0.49169979725E+03  0.49545283531E+03  0.00000000000E+00 0. -1.
         13    1    3    3    0    0  0.28970006180E+01  0.10248145039E+02 -0.28295086207E+03  0.28315120949E+03  0.00000000000E+00 0. -1.
        -14    1    3    3    0    0  0.25197768554E+02 -0.42015297359E+02 -0.11496337132E+03  0.12496715367E+03  0.00000000000E+00 0.  1.
          5    1    4    4  501    0 -0.98804351397E+02  0.73831507540E+02 -0.16708931533E+03  0.20772506603E+03  0.41800000000E+01 0. -1.
         -5    1    4    4    0  501  0.21739668471E+02 -0.21441247923E+02 -0.24739786696E+02  0.39520497763E+02  0.41800000000E+01 0. -1.
</event>
<event>
11    1  0.6930157E-009  0.1312877E+03  0.7561462E-02  0.1117697E+00
         22   -1    0    0    0    0  0.00000000000E+00  0.00000000000E+00  0.10071727220E+03  0.10071727220E+03  0.00000000000E+00 0.  1.
         22   -1    0    0    0    0 -0.00000000000E+00 -0.00000000000E+00 -0.77939493565E+03  0.77939493565E+03  0.00000000000E+00 0.  1.
        -24    2    1    2    0    0  0.39228730332E+02 -0.22027463381E+02 -0.57453523165E+03  0.58636991354E+03  0.10823511756E+03 0.  0.
         25    2    1    2    0    0 -0.32342140928E+02 -0.34188052655E+02 -0.13500991337E+03  0.18997028808E+03  0.12508475775E+03 0.  0.
         24    2    1    2    0    0 -0.68865894048E+01  0.56215516035E+02  0.30867481564E+02  0.10377200624E+03  0.81290949700E+02 0.  0.
        -13    1    5    5    0    0 -0.27543904289E+02  0.58051116917E+02  0.45202448724E+02  0.78561187679E+02  0.00000000000E+00 0.  1.
         14    1    5    5    0    0  0.20657314884E+02 -0.18356008818E+01 -0.14334967160E+02  0.25210818557E+02  0.00000000000E+00 0. -1.
         11    1    3    3    0    0 -0.10093159502E+02  0.31031476233E+02 -0.32201210594E+03  0.32366127473E+03  0.00000000000E+00 0. -1.
        -12    1    3    3    0    0  0.49321889835E+02 -0.53058939614E+02 -0.25252312571E+03  0.26270863881E+03  0.00000000000E+00 0.  1.
          5    1    4    4  501    0 -0.38524565628E+02 -0.78916001618E+02 -0.82141658466E+02  0.12031875134E+03  0.41800000000E+01 0.  1.
         -5    1    4    4    0  501  0.61824247004E+01  0.44727948963E+02 -0.52868254900E+02  0.69651536737E+02  0.41800000000E+01 0.  1.
</event>
<event>
11    1  0.6930157E-009  0.1845151E+03  0.7561462E-02  0.1066048E+00
         22   -1    0    0    0    0  0.00000000000E+00  0.00000000000E+00  0.20528477962E+04  0.20528477962E+04  0.00000000000E+00 0. -1.
         22   -1    0    0    0    0 -0.00000000000E+00 -0.00000000000E+00 -0.17147949992E+03  0.17147949992E+03  0.00000000000E+00 0. -1.
        -24    2    1    2    0    0  0.15532031380E+02  0.19602079323E+02 -0.92813599652E+02  0.12624057754E+03  0.81834183712E+02 0.  0.
         25    2    1    2    0    0  0.60730131633E+02  0.94169838935E+02  0.61548996656E+02  0.17886240824E+03  0.12508946654E+03 0.  0.
         24    2    1    2    0    0 -0.76262163013E+02 -0.11377191826E+03  0.19126328993E+04  0.19192243104E+04  0.80606322021E+02 0.  0.
        -13    1    5    5    0    0 -0.52176986510E+02 -0.63520612369E+02  0.62454067272E+03  0.62992726406E+03  0.00000000000E+00 0.  1.
         14    1    5    5    0    0 -0.24085176503E+02 -0.50251305889E+02  0.12880922266E+04  0.12892970463E+04  0.00000000000E+00 0. -1.
         11    1    3    3    0    0 -0.95273417127E+01 -0.29970114830E+00 -0.93742881168E+02  0.94226258711E+02  0.00000000000E+00 0. -1.
        -12    1    3    3    0    0  0.25059373093E+02  0.19901780472E+02  0.92928151601E+00  0.32014318826E+02  0.00000000000E+00 0.  1.
          5    1    4    4  501    0  0.68671650496E+01 -0.25915506668E+02 -0.10100750213E+02  0.28952875445E+02  0.41800000000E+01 0.  1.
         -5    1    4    4    0  501  0.53862966583E+02  0.12008534560E+03  0.71649746869E+02  0.14990953280E+03  0.41800000000E+01 0.  1.
</event>
<event>
11    1  0.6930157E-009  0.1971740E+03  0.7561462E-02  0.1056540E+00
         22   -1    0    0    0    0  0.00000000000E+00  0.00000000000E+00  0.23321464691E+04  0.23321464691E+04  0.00000000000E+00 0. -1.
         22   -1    0    0    0    0 -0.00000000000E+00 -0.00000000000E+00 -0.11882450352E+03  0.11882450352E+03  0.00000000000E+00 0.  1.
         24    2    1    2    0    0 -0.27796059957E+02 -0.41664065638E+02 -0.65536379185E+02  0.11492744158E+03  0.80029897642E+02 0.  0.
         25    2    1    2    0    0 -0.10329182389E+03 -0.47316611123E+02  0.26216120595E+03  0.31190326216E+03  0.12508830670E+03 0.  0.
        -24    2    1    2    0    0  0.13108788385E+03  0.88980676761E+02  0.20166971388E+04  0.20241402689E+04  0.70532859338E+02 0.  0.
        -13    1    3    3    0    0  0.70659618857E+01 -0.54730702710E+02 -0.50404507167E+02  0.74739494106E+02  0.00000000000E+00 0.  1.
         14    1    3    3    0    0 -0.34862021842E+02  0.13066637072E+02 -0.15131872019E+02  0.40187947473E+02  0.00000000000E+00 0. -1.
         13    1    5    5    0    0  0.98497864386E+02  0.97237617764E+02  0.17148742364E+04  0.17204507056E+04  0.00000000000E+00 0. -1.
        -14    1    5    5    0    0  0.32590019464E+02 -0.82569410031E+01  0.30182290240E+03  0.30368956330E+03  0.00000000000E+00 0.  1.
          5    1    4    4  501    0 -0.45987761767E+02 -0.85267681970E+02  0.18205718568E+03  0.20627104276E+03  0.41800000000E+01 0. -1.
         -5    1    4    4    0  501 -0.57304062126E+02  0.37951070848E+02  0.80104020263E+02  0.10563221941E+03  0.41800000000E+01 0. -1.
</event>
<event>
11    1  0.6930157E-009  0.1408783E+03  0.7561462E-02  0.1106582E+00
         22   -1    0    0    0    0  0.00000000000E+00  0.00000000000E+00  0.20284501479E+04  0.20284501479E+04  0.00000000000E+00 0.  1.
         22   -1    0    0    0    0 -0.00000000000E+00 -0.00000000000E+00 -0.53770816948E+02  0.53770816948E+02  0.00000000000E+00 0.  1.
         24    2    1    2    0    0 -0.22058528311E+02  0.25879198902E+02  0.13797499114E+01  0.88254987543E+02  0.81429279190E+02 0.  0.
         25    2    1    2    0    0  0.76543514368E+02  0.63954137638E+01  0.64069782658E+03  0.65729820107E+03  0.12508960487E+03 0.  0.
        -24    2    1    2    0    0 -0.54484986057E+02 -0.32274612666E+02  0.13326017545E+04  0.13366677763E+04  0.82722691495E+02 0.  0.
        -13    1    3    3    0    0  0.17309224742E+01  0.34975743117E+02 -0.31199969426E+02  0.46901351701E+02  0.00000000000E+00 0.  1.
         14    1    3    3    0    0 -0.23789450785E+02 -0.90965442152E+01  0.32579719337E+02  0.41353635842E+02  0.00000000000E+00 0. -1.
         11    1    5    5    0    0 -0.10168057964E+02  0.25671817564E+02  0.22922704823E+03  0.23088410786E+03  0.00000000000E+00 0. -1.
        -12    1    5    5    0    0 -0.44316928094E+02 -0.57946430230E+02  0.11033747063E+04  0.11057836684E+04  0.00000000000E+00 0.  1.
          5    1    4    4  501    0  0.10551226983E+03 -0.79989728404E+01  0.37699619043E+03  0.39158705629E+03  0.41800000000E+01 0. -1.
         -5    1    4    4    0  501 -0.28968755461E+02  0.14394386604E+02  0.26370163614E+03  0.26571114478E+03  0.41800000000E+01 0. -1.
</event>
<event>
11    1  0.1188072E-008  0.1805042E+03  0.7561462E-02  0.1069236E+00
         22   -1    0    0    0    0  0.00000000000E+00  0.00000000000E+00  0.92869198659E+03  0.92869198659E+03  0.00000000000E+00 0. -1.
         22   -1    0    0    0    0 -0.00000000000E+00 -0.00000000000E+00 -0.20133682659E+04  0.20133682659E+04  0.00000000000E+00 0.  1.
         24    2    1    2    0    0  0.71299369975E+02 -0.77937194384E+00 -0.14962123083E+04  0.15000226880E+04  0.79577542982E+02 0.  0.
         25    2    1    2    0    0 -0.81827868014E+02 -0.12886614159E+03 -0.48973124789E+03  0.52800099931E+03  0.12508428234E+03 0.  0.
        -24    2    1    2    0    0  0.10528498039E+02  0.12964551353E+03  0.90126727684E+03  0.91403656525E+03  0.79128565456E+02 0.  0.
        -13    1    3    3    0    0  0.47722322544E+02  0.22233165968E+02 -0.12998437080E+04  0.13009094507E+04  0.00000000000E+00 0.  1.
         14    1    3    3    0    0  0.23577047431E+02 -0.23012537912E+02 -0.19636860026E+03  0.19911323722E+03  0.00000000000E+00 0. -1.
         11    1    5    5    0    0  0.18872110219E+02  0.88994065788E+02  0.79107917388E+03  0.79629288558E+03  0.00000000000E+00 0. -1.
        -12    1    5    5    0    0 -0.83436121799E+01  0.40651447745E+02  0.11018810296E+03  0.11774367967E+03  0.00000000000E+00 0.  1.
          5    1    4    4  501    0 -0.27054067929E+02  0.20774896744E+02 -0.53798555446E+02  0.63837887609E+02  0.41800000000E+01 0.  1.
         -5    1    4    4    0  501 -0.54773800085E+02 -0.14964103833E+03 -0.43593269244E+03  0.46416311170E+03  0.41800000000E+01 0.  1.
</event>
<event>
11    1  0.6930157E-009  0.1385932E+03  0.7561462E-02  0.1109140E+00
         22   -1    0    0    0    0  0.00000000000E+00  0.00000000000E+00  0.55268682668E+03  0.55268682668E+03  0.00000000000E+00 0.  1.
         22   -1    0    0    0    0 -0.00000000000E+00 -0.00000000000E+00 -0.49458827171E+03  0.49458827171E+03  0.00000000000E+00 0.  1.
        -24    2    1    2    0    0 -0.22750583531E+02  0.13999903022E+02 -0.37323109957E+03  0.38282437897E+03  0.80866959334E+02 0.  0.
         25    2    1    2    0    0  0.13562780774E+02  0.45763809209E+02 -0.71301691737E+02  0.15167023106E+03  0.12506659222E+03 0.  0.
         24    2    1    2    0    0  0.91878027569E+01 -0.59763712231E+02  0.50263134627E+03  0.51278048837E+03  0.81544110599E+02 0.  0.
        -13    1    5    5    0    0 -0.49986288909E+01 -0.16276327666E+02  0.40063323409E+03  0.40099487951E+03  0.00000000000E+00 0.  1.
         14    1    5    5    0    0  0.14186431648E+02 -0.43487384565E+02  0.10199811218E+03  0.11178560886E+03  0.00000000000E+00 0. -1.
         13    1    3    3    0    0  0.57306891552E+01 -0.29642534628E+02 -0.92663691025E+02  0.97458095055E+02  0.00000000000E+00 0. -1.
        -14    1    3    3    0    0 -0.28481272686E+02  0.43642437650E+02 -0.28056740854E+03  0.28536628391E+03  0.00000000000E+00 0.  1.
          5    1    4    4  501    0  0.29659461023E+02  0.57817954729E+02  0.11705493996E+02  0.66159583636E+02  0.41800000000E+01 0. -1.
         -5    1    4    4    0  501 -0.16096680249E+02 -0.12054145520E+02 -0.83007185733E+02  0.85510647422E+02  0.41800000000E+01 0. -1.
</event>
<event>
11    1  0.6930157E-009  0.1604029E+03  0.7561462E-02  0.1086699E+00
         22   -1    0    0    0    0  0.00000000000E+00  0.00000000000E+00  0.85457814392E+03  0.85457814392E+03  0.00000000000E+00 0.  1.
         22   -1    0    0    0    0 -0.00000000000E+00 -0.00000000000E+00 -0.29436597177E+04  0.29436597177E+04  0.00000000000E+00 0. -1.
         24    2    1    2    0    0  0.27731106935E+02 -0.82722552563E+01 -0.27657836232E+04  0.27672212597E+04  0.84362344144E+02 0.  0.
         25    2    1    2    0    0  0.64351675461E+02 -0.33737724775E+02 -0.14171227352E+03  0.20251245436E+03  0.12509817544E+03 0.  0.
        -24    2    1    2    0    0 -0.92082782396E+02  0.42009980031E+02  0.81841432296E+03  0.82850414757E+03  0.79831330213E+02 0.  0.
        -11    1    3    3    0    0  0.97814857305E+01 -0.45961479305E+02 -0.16026438047E+04  0.16033325606E+04  0.00000000000E+00 0.  1.
         12    1    3    3    0    0  0.17949621205E+02  0.37689224049E+02 -0.11631398185E+04  0.11638886991E+04  0.00000000000E+00 0. -1.
         13    1    5    5    0    0 -0.29337146855E+02  0.10258800249E+02  0.67580115951E+02  0.74384025436E+02  0.00000000000E+00 0. -1.
        -14    1    5    5    0    0 -0.62745635542E+02  0.31751179782E+02  0.75083420701E+03  0.75412012213E+03  0.00000000000E+00 0.  1.
          5    1    4    4  501    0  0.47116762165E+02  0.34201977161E+01 -0.15270272026E+03  0.15989771795E+03  0.41800000000E+01 0. -1.
         -5    1    4    4    0  501  0.17234913296E+02 -0.37157922491E+02  0.10990446743E+02  0.42614736415E+02  0.41800000000E+01 0. -1.
</event>
<event>
11    1  0.6930157E-009  0.1461462E+03  0.7561462E-02  0.1100883E+00
         22   -1    0    0    0    0  0.00000000000E+00  0.00000000000E+00  0.58265866361E+03  0.58265866361E+03  0.00000000000E+00 0. -1.
         22   -1    0    0    0    0 -0.00000000000E+00 -0.00000000000E+00 -0.70108256337E+03  0.70108256337E+03  0.00000000000E+00 0. -1.
        -24    2    1    2    0    0  0.14441825978E+02 -0.59850157651E+02 -0.46155248619E+03  0.47270626567E+03  0.81424249366E+02 0.  0.
         25    2    1    2    0    0 -0.23492083596E+02  0.13341869443E+03 -0.19115410664E+03  0.26559051259E+03  0.12508397932E+03 0.  0.
         24    2    1    2    0    0  0.90502576182E+01 -0.73568536775E+02  0.53428269307E+03  0.54544444872E+03  0.80977859656E+02 0.  0.
        -13    1    5    5    0    0 -0.31168169582E+02 -0.18421673588E+02  0.11271373328E+03  0.11838580372E+03  0.00000000000E+00 0.  1.
         14    1    5    5    0    0  0.40218427200E+02 -0.55146863188E+02  0.42156895979E+03  0.42705864500E+03  0.00000000000E+00 0. -1.
         13    1    3    3    0    0 -0.52636895306E+01 -0.71330194233E+02 -0.41193999071E+03  0.41810316787E+03  0.00000000000E+00 0. -1.
        -14    1    3    3    0    0  0.19705515508E+02  0.11480036582E+02 -0.49612495487E+02  0.54603097804E+02  0.00000000000E+00 0.  1.
          5    1    4    4  501    0 -0.44696636101E+02  0.14321265296E+03 -0.18959858147E+03  0.24181138878E+03  0.41800000000E+01 0. -1.
         -5    1    4    4    0  501  0.21204552505E+02 -0.97939585380E+01 -0.15555251657E+01  0.23779123813E+02  0.41800000000E+01 0. -1.
</event>
<event>
11    1  0.6930157E-009  0.1558663E+03  0.7561462E-02  0.1091031E+00
         22   -1    0    0    0    0  0.00000000000E+00  0.00000000000E+00  0.17783026192E+04  0.17783026192E+04  0.00000000000E+00 0.  1.
         22   -1    0    0    0    0 -0.00000000000E+00 -0.00000000000E+00 -0.50518234018E+02  0.50518234018E+02  0.00000000000E+00 0. -1.
         24    2    1    2    0    0 -0.37318852550E+01  0.70833323871E+02  0.56635338055E+02  0.12190111821E+03  0.81369738641E+02 0.  0.
         25    2    1    2    0    0 -0.30237188154E+02 -0.14533334571E+03  0.62269510526E+03  0.65225364494E+03  0.12509817864E+03 0.  0.
        -24    2    1    2    0    0  0.33969073409E+02  0.74500021838E+02  0.10484539419E+04  0.10546660901E+04  0.79754260824E+02 0.  0.
        -13    1    3    3    0    0  0.31477851580E+02  0.95365583459E+01  0.34874821743E+02  0.47938025374E+02  0.00000000000E+00 0.  1.
         14    1    3    3    0    0 -0.35209736835E+02  0.61296765525E+02  0.21760516312E+02  0.73963092837E+02  0.00000000000E+00 0. -1.
         13    1    5    5    0    0  0.16902908561E+02 -0.14918867591E+02  0.16467171524E+03  0.16620786602E+03  0.00000000000E+00 0. -1.
        -14    1    5    5    0    0  0.17066164847E+02  0.89418889429E+02  0.88378222662E+03  0.88845822404E+03  0.00000000000E+00 0.  1.
          5    1    4    4  501    0  0.45632789199E+02 -0.49252921832E+02  0.29065325360E+03  0.29833703758E+03  0.41800000000E+01 0. -1.
         -5    1    4    4    0  501 -0.75869977352E+02 -0.96080423877E+02  0.33204185166E+03  0.35391660737E+03  0.41800000000E+01 0. -1.
</event>
<event>
11    1  0.6930157E-009  0.2687749E+03  0.7561462E-02  0.1014347E+00
         22   -1    0    0    0    0  0.00000000000E+00  0.00000000000E+00  0.89230832465E+03  0.89230832465E+03  0.00000000000E+00 0. -1.
         22   -1    0    0    0    0 -0.00000000000E+00 -0.00000000000E+00 -0.18818473283E+04  0.18818473283E+04  0.00000000000E+00 0. -1.
        -24    2    1    2    0    0 -0.23445157918E+03  0.35034217517E+02 -0.16277653026E+04  0.16468370996E+04  0.79105074117E+02 0.  0.
         25    2    1    2    0    0  0.24536585757E+03 -0.13322256599E+02 -0.16391819125E+03  0.32077913951E+03  0.12509275094E+03 0.  0.
         24    2    1    2    0    0 -0.10914278397E+02 -0.21711960918E+02  0.80214449028E+03  0.80653941381E+03  0.80495416202E+02 0.  0.
        -13    1    5    5    0    0 -0.27516493004E+02 -0.51187248042E+01  0.95794602232E+02  0.99799621982E+02  0.00000000000E+00 0.  1.
         14    1    5    5    0    0  0.16602214607E+02 -0.16593236114E+02  0.70634988804E+03  0.70673979183E+03  0.00000000000E+00 0. -1.
         13    1    3    3    0    0 -0.16305978656E+03  0.59382904442E+02 -0.11977843310E+04  0.12102901003E+04  0.00000000000E+00 0. -1.
        -14    1    3    3    0    0 -0.71391792618E+02 -0.24348686925E+02 -0.42998097164E+03  0.43654699928E+03  0.00000000000E+00 0.  1.
          5    1    4    4  501    0  0.73765891838E+02 -0.13796420775E+02  0.10701622341E+02  0.75919333148E+02  0.41800000000E+01 0. -1.
         -5    1    4    4    0  501  0.17159996573E+03  0.47416417597E+00 -0.17461981360E+03  0.24485980636E+03  0.41800000000E+01 0. -1.
</event>
<event>
11    1  0.6930157E-009  0.1468528E+03  0.7561462E-02  0.1100139E+00
         22   -1    0    0    0    0  0.00000000000E+00  0.00000000000E+00  0.51199797862E+03  0.51199797862E+03  0.00000000000E+00 0. -1.
         22   -1    0    0    0    0 -0.00000000000E+00 -0.00000000000E+00 -0.56392201690E+03  0.56392201690E+03  0.00000000000E+00 0.  1.
        -24    2    1    2    0    0 -0.12610238887E+00  0.12004835774E+02 -0.48824442364E+03  0.49486030015E+03  0.79749404123E+02 0.  0.
         25    2    1    2    0    0 -0.43349749590E+02 -0.74224386774E+02  0.23617080498E+02  0.15361657476E+03  0.12510725466E+03 0.  0.
         24    2    1    2    0    0  0.43475851979E+02  0.62219551000E+02  0.41270330487E+03  0.42744312061E+03  0.81376785854E+02 0.  0.
        -13    1    5    5    0    0  0.35359743142E+02  0.15573918640E+02  0.58617663183E+02  0.70206045423E+02  0.00000000000E+00 0.  1.
         14    1    5    5    0    0  0.81161088376E+01  0.46645632360E+02  0.35408564169E+03  0.35723707519E+03  0.00000000000E+00 0. -1.
         13    1    3    3    0    0 -0.22065208656E+02  0.77029508099E+01 -0.42067700591E+02  0.48123801982E+02  0.00000000000E+00 0. -1.
        -14    1    3    3    0    0  0.21939106267E+02  0.43018849642E+01 -0.44617672305E+03  0.44673649816E+03  0.00000000000E+00 0.  1.
          5    1    4    4  501    0 -0.22391142061E+02 -0.26700491773E+02  0.73519745046E+02  0.81467200857E+02  0.41800000000E+01 0. -1.
         -5    1    4    4    0  501 -0.20958607530E+02 -0.47523895001E+02 -0.49902664549E+02  0.72149373904E+02  0.41800000000E+01 0. -1.
</event>
<event>
11    1  0.6930157E-009  0.1343405E+03  0.7561462E-02  0.1114048E+00
         22   -1    0    0    0    0  0.00000000000E+00  0.00000000000E+00  0.22460857052E+03  0.22460857052E+03  0.00000000000E+00 0. -1.
         22   -1    0    0    0    0 -0.00000000000E+00 -0.00000000000E+00 -0.43272254128E+03  0.43272254128E+03  0.00000000000E+00 0.  1.
         24    2    1    2    0    0 -0.10456379009E+02  0.28701774233E+02 -0.34971730000E+03  0.36009100702E+03  0.80188625799E+02 0.  0.
         25    2    1    2    0    0 -0.24345311862E+02 -0.59418277575E+02  0.17152345706E+02  0.14165325413E+03  0.12509282762E+03 0.  0.
        -24    2    1    2    0    0  0.34801690871E+02  0.30716503342E+02  0.12445098353E+03  0.15558685066E+03  0.81021969429E+02 0.  0.
        -13    1    3    3    0    0  0.10499372637E+02  0.23528055943E+02 -0.32953431960E+03  0.33053997343E+03  0.00000000000E+00 0.  1.
         14    1    3    3    0    0 -0.20955751646E+02  0.51737182908E+01 -0.20182980402E+02  0.29551033584E+02  0.00000000000E+00 0. -1.
         13    1    5    5    0    0  0.20933896391E+02  0.11875832401E+02  0.12944677023E+03  0.13166521840E+03  0.00000000000E+00 0. -1.
        -14    1    5    5    0    0  0.13867794481E+02  0.18840670941E+02 -0.49957866953E+01  0.23921632260E+02  0.00000000000E+00 0.  1.
          5    1    4    4  501    0 -0.25392668350E+02 -0.97769247924E+02  0.19606423505E+02  0.10298299708E+03  0.41800000000E+01 0.  1.
         -5    1    4    4    0  501  0.10473564879E+01  0.38350970349E+02 -0.24540777990E+01  0.38670257048E+02  0.41800000000E+01 0.  1.
</event>
<event>
11    1  0.6930157E-009  0.1421961E+03  0.7561462E-02  0.1105131E+00
         22   -1    0    0    0    0  0.00000000000E+00  0.00000000000E+00  0.81145958237E+03  0.81145958237E+03  0.00000000000E+00 0.  1.
         22   -1    0    0    0    0 -0.00000000000E+00 -0.00000000000E+00 -0.10307988759E+04  0.10307988759E+04  0.00000000000E+00 0.  1.
         24    2    1    2    0    0  0.55218693636E+02 -0.43149289831E+02 -0.97772241745E+03  0.98497574448E+03  0.96566693467E+02 0.  0.
         25    2    1    2    0    0  0.28634463126E+02  0.35998132711E+02  0.54878771183E+02  0.14413478038E+03  0.12508939743E+03 0.  0.
        -24    2    1    2    0    0 -0.83853156762E+02  0.71511571196E+01  0.70350435277E+03  0.71314793338E+03  0.81111710456E+02 0.  0.
        -13    1    3    3    0    0 -0.21702601496E+02  0.57628101044E+01 -0.34386023165E+03  0.34459261716E+03  0.00000000000E+00 0.  1.
         14    1    3    3    0    0  0.76921295132E+02 -0.48912099935E+02 -0.63386218580E+03  0.64038312732E+03  0.00000000000E+00 0. -1.
         13    1    5    5    0    0  0.11513234513E+02  0.10073210107E+02  0.40122849115E+02  0.42940274242E+02  0.00000000000E+00 0. -1.
        -14    1    5    5    0    0 -0.95366391275E+02 -0.29220529876E+01  0.66338150366E+03  0.67020765914E+03  0.00000000000E+00 0.  1.
          5    1    4    4  501    0  0.71744342469E+02  0.49099142801E+02  0.27647299125E+02  0.91322626161E+02  0.41800000000E+01 0. -1.
         -5    1    4    4    0  501 -0.43109879343E+02 -0.13101010090E+02  0.27231472059E+02  0.52812154215E+02  0.41800000000E+01 0. -1.
</event>
<event>
11    1  0.6930157E-009  0.1311353E+03  0.7561462E-02  0.1117882E+00
         22   -1    0    0    0    0  0.00000000000E+00  0.00000000000E+00  0.59838883759E+03  0.59838883759E+03  0.00000000000E+00 0. -1.
         22   -1    0    0    0    0 -0.00000000000E+00 -0.00000000000E+00 -0.75642486700E+03  0.75642486700E+03  0.00000000000E+00 0.  1.
        -24    2    1    2    0    0 -0.35181844898E+02 -0.36053112901E+02 -0.72413571709E+03  0.73032693179E+03  0.80419533521E+02 0.  0.
         25    2    1    2    0    0  0.13137734710E+01  0.14317349575E+01  0.13938929214E+03  0.18729205059E+03  0.12508062034E+03 0.  0.
         24    2    1    2    0    0  0.33868071427E+02  0.34621377943E+02  0.42671039554E+03  0.43719472220E+03  0.81925437969E+02 0.  0.
        -11    1    5    5    0    0  0.44077225125E+01  0.56303102932E+02  0.21213570963E+03  0.21952454696E+03  0.00000000000E+00 0.  1.
         12    1    5    5    0    0  0.29460348915E+02 -0.21681724989E+02  0.21457468591E+03  0.21767017524E+03  0.00000000000E+00 0. -1.
         11    1    3    3    0    0  0.22440596252E+01 -0.24748976681E+02 -0.58697521251E+02  0.63741247646E+02  0.00000000000E+00 0. -1.
        -12    1    3    3    0    0 -0.37425904524E+02 -0.11304136220E+02 -0.66543819584E+03  0.66658568415E+03  0.00000000000E+00 0.  1.
          5    1    4    4  501    0  0.13940760836E+02  0.61568788405E+02  0.76420396557E+02  0.99209928577E+02  0.41800000000E+01 0.  1.
         -5    1    4    4    0  501 -0.12626987365E+02 -0.60137053448E+02  0.62968895587E+02  0.88082122015E+02  0.41800000000E+01 0.  1.
</event>
<event>
11    1  0.6930157E-009  0.1515848E+03  0.7561462E-02  0.1095270E+00
         22   -1    0    0    0    0  0.00000000000E+00  0.00000000000E+00  0.10389080889E+04  0.10389080889E+04  0.00000000000E+00 0.  1.
         22   -1    0    0    0    0 -0.00000000000E+00 -0.00000000000E+00 -0.37112546075E+03  0.37112546075E+03  0.00000000000E+00 0.  1.
         24    2    1    2    0    0  0.56502193266E+02  0.64825919028E+02 -0.33919103777E+03  0.35879449014E+03  0.79297089642E+02 0.  0.
         25    2    1    2    0    0 -0.66576101664E+02 -0.41449315804E+02  0.25607737769E+03  0.29558972842E+03  0.12508893272E+03 0.  0.
        -24    2    1    2    0    0  0.10073908398E+02 -0.23376603223E+02  0.75089628819E+03  0.75564933105E+03  0.80701466439E+02 0.  0.
        -11    1    3    3    0    0  0.52148336353E+02  0.58625982610E+02 -0.34187020989E+03  0.35075874220E+03  0.00000000000E+00 0.  1.
         12    1    3    3    0    0  0.43538569127E+01  0.61999364176E+01  0.26791721187E+01  0.80357479329E+01  0.00000000000E+00 0. -1.
         11    1    5    5    0    0 -0.15865710728E+01  0.27887544312E+02  0.38277468014E+03  0.38379250656E+03  0.00000000000E+00 0. -1.
        -12    1    5    5    0    0  0.11660479471E+02 -0.51264147535E+02  0.36812160805E+03  0.37185682449E+03  0.00000000000E+00 0.  1.
          5    1    4    4  501    0 -0.34690465988E+02  0.36085159739E+02  0.16152239969E+03  0.16915237269E+03  0.41800000000E+01 0. -1.
         -5    1    4    4    0  501 -0.31885635676E+02 -0.77534475544E+02  0.94554978004E+02  0.12643735574E+03  0.41800000000E+01 0. -1.
</event>
<event>
11    1  0.6930157E-009  0.1364875E+03  0.7561462E-02  0.1111545E+00
         22   -1    0    0    0    0  0.00000000000E+00  0.00000000000E+00  0.10466987055E+03  0.10466987055E+03  0.00000000000E+00 0.  1.
         22   -1    0    0    0    0 -0.00000000000E+00 -0.00000000000E+00 -0.99591230115E+03  0.99591230115E+03  0.00000000000E+00 0. -1.
        -24    2    1    2    0    0  0.41028887308E+02  0.39055748174E+02 -0.77775665892E+03  0.78397343439E+03  0.80623844266E+02 0.  0.
         25    2    1    2    0    0 -0.40805337384E+02 -0.14119570591E+02 -0.16886809627E+03  0.21454048580E+03  0.12508696286E+03 0.  0.
         24    2    1    2    0    0 -0.22354992446E+00 -0.24936177583E+02  0.55382324592E+02  0.10206825152E+03  0.82029648080E+02 0.  0.
        -11    1    5    5    0    0  0.61275112960E+01 -0.15513342166E+02  0.76386988841E+02  0.78186841886E+02  0.00000000000E+00 0.  1.
         12    1    5    5    0    0 -0.63510612204E+01 -0.94228354171E+01 -0.21004664249E+02  0.23881409635E+02  0.00000000000E+00 0. -1.
         13    1    3    3    0    0  0.57723335618E+02  0.15014018719E+02 -0.65775928158E+03  0.66045792958E+03  0.00000000000E+00 0. -1.
        -14    1    3    3    0    0 -0.16694448310E+02  0.24041729455E+02 -0.11999737734E+03  0.12351550481E+03  0.00000000000E+00 0.  1.
          5    1    4    4  501    0  0.14107027378E+02  0.47322094564E+02 -0.69997391433E+02  0.85764188697E+02  0.41800000000E+01 0. -1.
         -5    1    4    4    0  501 -0.54912364762E+02 -0.61441665155E+02 -0.98870704835E+02  0.12877629710E+03  0.41800000000E+01 0. -1.
</event>
<event>
11    1  0.6930157E-009  0.1514306E+03  0.7561462E-02  0.1095426E+00
         22   -1    0    0    0    0  0.00000000000E+00  0.00000000000E+00  0.66874542056E+03  0.66874542056E+03  0.00000000000E+00 0. -1.
         22   -1    0    0    0    0 -0.00000000000E+00 -0.00000000000E+00 -0.32781764875E+03  0.32781764875E+03  0.00000000000E+00 0.  1.
         24    2    1    2    0    0 -0.45074175218E+02  0.53062637948E+02 -0.24217217262E+03  0.26450575282E+03  0.80427652356E+02 0.  0.
         25    2    1    2    0    0 -0.10757287015E+02 -0.11623995362E+03  0.39112684405E+02  0.17551234499E+03  0.12508930858E+03 0.  0.
        -24    2    1    2    0    0  0.55831462233E+02  0.63177315677E+02  0.54398726003E+03  0.55654497150E+03  0.81924604569E+02 0.  0.
        -11    1    3    3    0    0  0.88147646479E+00  0.25897302747E+02 -0.18294237289E+03  0.18476839310E+03  0.00000000000E+00 0.  1.
         12    1    3    3    0    0 -0.45955651683E+02  0.27165335201E+02 -0.59229799728E+02  0.79737359713E+02  0.00000000000E+00 0. -1.
         13    1    5    5    0    0 -0.15890059640E+02 -0.53242567935E+01  0.11677886216E+03  0.11797518533E+03  0.00000000000E+00 0. -1.
        -14    1    5    5    0    0  0.71721521873E+02  0.68501572470E+02  0.42720839787E+03  0.43856978617E+03  0.00000000000E+00 0.  1.
          5    1    4    4  501    0  0.19537914711E+02 -0.36947430491E+02 -0.41016237447E+02  0.58708149907E+02  0.41800000000E+01 0. -1.
         -5    1    4    4    0  501 -0.30295201726E+02 -0.79292523134E+02  0.80128921852E+02  0.11680419509E+03  0.41800000000E+01 0. -1.
</event>
<event>
11    1  0.6930157E-009  0.1644065E+03  0.7561462E-02  0.1083005E+00
         22   -1    0    0    0    0  0.00000000000E+00  0.00000000000E+00  0.63828316974E+02  0.63828316974E+02  0.00000000000E+00 0. -1.
         22   -1    0    0    0    0 -0.00000000000E+00 -0.00000000000E+00 -0.11076300846E+04  0.11076300846E+04  0.00000000000E+00 0. -1.
         24    2    1    2    0    0 -0.45415389609E+02  0.84747984390E+02 -0.67578453066E+03  0.68731917244E+03  0.80486858875E+02 0.  0.
         25    2    1    2    0    0 -0.73961807602E+02  0.19424569490E+01 -0.19036107644E+03  0.23949850281E+03  0.12509225117E+03 0.  0.
        -24    2    1    2    0    0  0.11937719721E+03 -0.86690441339E+02 -0.17765616049E+03  0.24464072628E+03  0.80754106794E+02 0.  0.
        -13    1    3    3    0    0  0.17772174341E+02  0.65846245172E+01 -0.20782820614E+03  0.20869061006E+03  0.00000000000E+00 0.  1.
         14    1    3    3    0    0 -0.63187563950E+02  0.78163359873E+02 -0.46795632452E+03  0.47862856238E+03  0.00000000000E+00 0. -1.
         13    1    5    5    0    0  0.83912772086E+02 -0.99734883052E+02 -0.13492700358E+03  0.18759983079E+03  0.00000000000E+00 0. -1.
        -14    1    5    5    0    0  0.35464425125E+02  0.13044441713E+02 -0.42729156900E+02  0.57040895491E+02  0.00000000000E+00 0.  1.
          5    1    4    4  501    0  0.31317728505E+02  0.16857622835E+01 -0.15227802937E+02  0.35114103940E+02  0.41800000000E+01 0. -1.
         -5    1    4    4    0  501 -0.10527953611E+03  0.25669466550E+00 -0.17513327350E+03  0.20438439888E+03  0.41800000000E+01 0. -1.
</event>
<event>
11    1  0.6930157E-009  0.1412830E+03  0.7561462E-02  0.1106134E+00
         22   -1    0    0    0    0  0.00000000000E+00  0.00000000000E+00  0.86151368411E+02  0.86151368411E+02  0.00000000000E+00 0. -1.
         22   -1    0    0    0    0 -0.00000000000E+00 -0.00000000000E+00 -0.13593938413E+04  0.13593938413E+04  0.00000000000E+00 0.  1.
         24    2    1    2    0    0  0.60765741139E+01  0.65127161659E+02 -0.11506704110E+04  0.11552878891E+04  0.79807518794E+02 0.  0.
         25    2    1    2    0    0 -0.48354823966E+02 -0.64431580932E+02 -0.13239815516E+03  0.19916436407E+03  0.12509018668E+03 0.  0.
        -24    2    1    2    0    0  0.42278249852E+02 -0.69558072718E+00  0.98260933066E+01  0.91092956484E+02  0.80083958245E+02 0.  0.
        -13    1    3    3    0    0 -0.12229146204E+02  0.75109511347E+02 -0.69768763987E+03  0.70182550078E+03  0.00000000000E+00 0.  1.
         14    1    3    3    0    0  0.18305720318E+02 -0.99823496879E+01 -0.45298277112E+03  0.45346238834E+03  0.00000000000E+00 0. -1.
         13    1    5    5    0    0  0.64276298266E+02 -0.81558001201E+01  0.16623466317E+02  0.66890202771E+02  0.00000000000E+00 0. -1.
        -14    1    5    5    0    0 -0.21998048414E+02  0.74602193929E+01 -0.67973730102E+01  0.24202753712E+02  0.00000000000E+00 0.  1.
          5    1    4    4  501    0  0.19518008686E+02 -0.10244578356E+02  0.15730632268E+02  0.27401263480E+02  0.41800000000E+01 0.  1.
         -5    1    4    4    0  501 -0.67872832652E+02 -0.54187002576E+02 -0.14812878743E+03  0.17176310059E+03  0.41800000000E+01 0.  1.
</event>
<event>
11    1  0.6930157E-009  0.1485222E+03  0.7561462E-02  0.1098398E+00
         22   -1    0    0    0    0  0.00000000000E+00  0.00000000000E+00  0.64835028658E+03  0.64835028658E+03  0.00000000000E+00 0. -1.
         22   -1    0    0    0    0 -0.00000000000E+00 -0.00000000000E+00 -0.32180955771E+03  0.32180955771E+03  0.00000000000E+00 0. -1.
         24    2    1    2    0    0  0.65832284067E+01 -0.83057604988E+02 -0.22587148379E+03  0.25324754926E+03  0.78577919136E+02 0.  0.
         25    2    1    2    0    0  0.50050689199E+02  0.64222957080E+02 -0.61340383714E+01  0.14937923331E+03  0.12508744626E+03 0.  0.
        -24    2    1    2    0    0 -0.56633917605E+02  0.18834647907E+02  0.55854625104E+03  0.56753306172E+03  0.80979732103E+02 0.  0.
        -11    1    3    3    0    0 -0.27385917398E+02 -0.35320311543E+01 -0.45627500019E+02  0.53332283598E+02  0.00000000000E+00 0.  1.
         12    1    3    3    0    0  0.33969145805E+02 -0.79525573833E+02 -0.18024398377E+03  0.19991526566E+03  0.00000000000E+00 0. -1.
         13    1    5    5    0    0 -0.55542167594E+02  0.55651513003E+01  0.54720054093E+03  0.55004030333E+03  0.00000000000E+00 0. -1.
        -14    1    5    5    0    0 -0.10917500110E+01  0.13269496607E+02  0.11345710104E+02  0.17492758389E+02  0.00000000000E+00 0.  1.
          5    1    4    4  501    0  0.73670184266E+02 -0.34259660951E+01 -0.19434002419E+02  0.76381844332E+02  0.41800000000E+01 0. -1.
         -5    1    4    4    0  501 -0.23619495068E+02  0.67648923176E+02  0.13299964048E+02  0.72997388979E+02  0.41800000000E+01 0. -1.
</event>
<event>
11    1  0.6930157E-009  0.1548307E+03  0.7561462E-02  0.1092042E+00
         22   -1    0    0    0    0  0.00000000000E+00  0.00000000000E+00  0.14051319557E+03  0.14051319557E+03  0.00000000000E+00 0.  1.
         22   -1    0    0    0    0 -0.00000000000E+00 -0.00000000000E+00 -0.98764908379E+03  0.98764908379E+03  0.00000000000E+00 0.  1.
        -24    2    1    2    0    0  0.68132146214E+02 -0.17906331805E+02 -0.79498307365E+03  0.80205470527E+03  0.79567812554E+02 0.  0.
         25    2    1    2    0    0 -0.11534469513E+03  0.81024841190E+02 -0.88327918899E+02  0.20813131641E+03  0.12508956803E+03 0.  0.
         24    2    1    2    0    0  0.47212548915E+02 -0.63118509385E+02  0.36175104320E+02  0.11797625768E+03  0.79979923743E+02 0.  0.
        -13    1    5    5    0    0  0.25410027457E+02 -0.74004798117E+02  0.49979390391E+01  0.78405095717E+02  0.00000000000E+00 0.  1.
         14    1    5    5    0    0  0.21802521458E+02  0.10886288733E+02  0.31177165280E+02  0.39571161965E+02  0.00000000000E+00 0. -1.
         11    1    3    3    0    0 -0.70196118878E+01 -0.28558048594E+02 -0.27353533870E+03  0.27511164753E+03  0.00000000000E+00 0. -1.
        -12    1    3    3    0    0  0.75151758102E+02  0.10651716788E+02 -0.52144773495E+03  0.52694305774E+03  0.00000000000E+00 0.  1.
          5    1    4    4  501    0 -0.13011936352E+03  0.72063885385E+02 -0.36320950118E+02  0.15316963197E+03  0.41800000000E+01 0. -1.
         -5    1    4    4    0  501  0.14774668392E+02  0.89609558050E+01 -0.52006968782E+02  0.54961684444E+02  0.41800000000E+01 0. -1.
</event>
<event>
11    1  0.6930157E-009  0.1307130E+03  0.7561462E-02  0.1118396E+00
         22   -1    0    0    0    0  0.00000000000E+00  0.00000000000E+00  0.19120402725E+03  0.19120402725E+03  0.00000000000E+00 0. -1.
         22   -1    0    0    0    0 -0.00000000000E+00 -0.00000000000E+00 -0.54703986976E+03  0.54703986976E+03  0.00000000000E+00 0. -1.
         24    2    1    2    0    0 -0.80319332363E+01 -0.15560945344E+02 -0.36742951229E+03  0.37668155292E+03  0.81104197364E+02 0.  0.
         25    2    1    2    0    0  0.40507234020E+02  0.33038372138E+02 -0.13413105084E+03  0.19071236903E+03  0.12509076250E+03 0.  0.
        -24    2    1    2    0    0 -0.32475300783E+02 -0.17477426793E+02  0.14572472062E+03  0.17084997506E+03  0.81202919718E+02 0.  0.
        -11    1    3    3    0    0  0.31921165708E+02 -0.45094522074E+01 -0.79571230556E+02  0.85853810117E+02  0.00000000000E+00 0.  1.
         12    1    3    3    0    0 -0.39953098944E+02 -0.11051493137E+02 -0.28785828174E+03  0.29082774280E+03  0.00000000000E+00 0. -1.
         13    1    5    5    0    0 -0.22410850446E+02 -0.40703246851E+02  0.13602558227E+03  0.14374268522E+03  0.00000000000E+00 0. -1.
        -14    1    5    5    0    0 -0.10064450337E+02  0.23225820057E+02  0.96991383491E+01  0.27107289843E+02  0.00000000000E+00 0.  1.
          5    1    4    4  501    0 -0.15633814514E+02  0.23973829329E+02 -0.13039941309E+03  0.13356885858E+03  0.41800000000E+01 0.  1.
         -5    1    4    4    0  501  0.56141048534E+02  0.90645428087E+01 -0.37316377512E+01  0.57143510455E+02  0.41800000000E+01 0.  1.
</event>
<event>
11    1  0.6930157E-009  0.1421073E+03  0.7561462E-02  0.1105228E+00
         22   -1    0    0    0    0  0.00000000000E+00  0.00000000000E+00  0.19824112505E+04  0.19824112505E+04  0.00000000000E+00 0. -1.
         22   -1    0    0    0    0 -0.00000000000E+00 -0.00000000000E+00 -0.91072268968E+02  0.91072268968E+02  0.00000000000E+00 0. -1.
         24    2    1    2    0    0 -0.21921511514E+02  0.17023394376E+02 -0.56911689905E+02  0.10260527678E+03  0.80737560978E+02 0.  0.
         25    2    1    2    0    0  0.73710159360E+02 -0.52600541643E+02  0.62237961296E+03  0.64125191001E+03  0.12509046682E+03 0.  0.
        -24    2    1    2    0    0 -0.51788647846E+02  0.35577147267E+02  0.13258710584E+04  0.13296263326E+04  0.77616514916E+02 0.  0.
        -11    1    3    3    0    0 -0.28571322839E+02 -0.13557562580E+02  0.61387828520E+01  0.32215099671E+02  0.00000000000E+00 0.  1.
         12    1    3    3    0    0  0.66498113251E+01  0.30580956956E+02 -0.63050472757E+02  0.70390177112E+02  0.00000000000E+00 0. -1.
         13    1    5    5    0    0  0.10273577075E+02  0.30886232256E+02  0.27614267156E+03  0.27805445651E+03  0.00000000000E+00 0. -1.
        -14    1    5    5    0    0 -0.62062224920E+02  0.46909150109E+01  0.10497283869E+04  0.10515718761E+04  0.00000000000E+00 0.  1.
          5    1    4    4  501    0 -0.14215482332E+02 -0.46516994307E+02  0.97849070459E+02  0.10935183440E+03  0.41800000000E+01 0.  1.
         -5    1    4    4    0  501  0.87925641692E+02 -0.60835473356E+01  0.52453054250E+03  0.53190007561E+03  0.41800000000E+01 0.  1.
</event>
<event>
11    1  0.6930157E-009  0.1358681E+03  0.7561462E-02  0.1112262E+00
         22   -1    0    0    0    0  0.00000000000E+00  0.00000000000E+00  0.65715286953E+03  0.65715286953E+03  0.00000000000E+00 0.  1.
         22   -1    0    0    0    0 -0.00000000000E+00 -0.00000000000E+00 -0.19204182870E+03  0.19204182870E+03  0.00000000000E+00 0.  1.
        -24    2    1    2    0    0  0.60239699143E+02 -0.43077291226E+01 -0.12882261225E+03  0.16530769691E+03  0.84166450251E+02 0.  0.
         25    2    1    2    0    0 -0.13577324065E+02  0.63284661910E+01  0.55866953337E+02  0.13781098794E+03  0.12508540566E+03 0.  0.
         24    2    1    2    0    0 -0.46662375078E+02 -0.20207370684E+01  0.53806669974E+03  0.54607601339E+03  0.80633605908E+02 0.  0.
        -13    1    5    5    0    0 -0.52851622855E+02  0.11728767186E+02  0.51876855813E+03  0.52158573113E+03  0.00000000000E+00 0.  1.
         14    1    5    5    0    0  0.61892477765E+01 -0.13749504255E+02  0.19298141612E+02  0.24490282256E+02  0.00000000000E+00 0. -1.
         13    1    3    3    0    0 -0.87740956780E+01 -0.18646651707E+02 -0.26456448076E+01  0.20776953851E+02  0.00000000000E+00 0. -1.
        -14    1    3    3    0    0  0.69013794821E+02  0.14338922585E+02 -0.12617696744E+03  0.14453074306E+03  0.00000000000E+00 0.  1.
          5    1    4    4  501    0 -0.29822705759E+02  0.59227155053E+02  0.13036238171E+02  0.67710158618E+02  0.41800000000E+01 0. -1.
         -5    1    4    4    0  501  0.16245381694E+02 -0.52898688862E+02  0.42830715166E+02  0.70100829320E+02  0.41800000000E+01 0. -1.
</event>
<event>
11    1  0.6930157E-009  0.1422885E+03  0.7561462E-02  0.1105030E+00
         22   -1    0    0    0    0  0.00000000000E+00  0.00000000000E+00  0.24140300927E+03  0.24140300927E+03  0.00000000000E+00 0.  1.
         22   -1    0    0    0    0 -0.00000000000E+00 -0.00000000000E+00 -0.89067555034E+03  0.89067555034E+03  0.00000000000E+00 0. -1.
         24    2    1    2    0    0 -0.40668593863E+01  0.51551338458E+02 -0.71499729503E+03  0.72106663816E+03  0.77729562764E+02 0.  0.
         25    2    1    2    0    0  0.51596007811E+02  0.70704637736E+00 -0.12965314418E+03  0.18740247870E+03  0.12508838191E+03 0.  0.
        -24    2    1    2    0    0 -0.47529148424E+02 -0.52258384835E+02  0.19537789814E+03  0.22360944276E+03  0.82696439305E+02 0.  0.
        -13    1    3    3    0    0 -0.16712146725E+02  0.45789300639E+01 -0.32438314305E+02  0.36776441965E+02  0.00000000000E+00 0.  1.
         14    1    3    3    0    0  0.12645287338E+02  0.46972408394E+02 -0.68255898072E+03  0.68429019619E+03  0.00000000000E+00 0. -1.
         11    1    5    5    0    0 -0.16391060987E+02 -0.23915386207E+02  0.60006544225E+01  0.29607776533E+02  0.00000000000E+00 0. -1.
        -12    1    5    5    0    0 -0.31138087437E+02 -0.28342998628E+02  0.18937724372E+03  0.19400166622E+03  0.00000000000E+00 0.  1.
          5    1    4    4  501    0  0.78311425021E+02  0.11096938730E+01 -0.13831606336E+03  0.15900539768E+03  0.41800000000E+01 0. -1.
         -5    1    4    4    0  501 -0.26715417210E+02 -0.40264749565E+00  0.86629191736E+01  0.28397081018E+02  0.41800000000E+01 0. -1.
</event>
<event>
11    1  0.6930157E-009  0.1325719E+03  0.7561462E-02  0.1116149E+00
         22   -1    0    0    0    0  0.00000000000E+00  0.00000000000E+00  0.10147072296E+04  0.10147072296E+04  0.00000000000E+00 0.  1.
         22   -1    0    0    0    0 -0.00000000000E+00 -0.00000000000E+00 -0.20510822098E+03  0.20510822098E+03  0.00000000000E+00 0.  1.
         24    2    1    2    0    0 -0.47649464941E+02  0.81204335278E+02 -0.16517517443E+03  0.20672861882E+03  0.81174306374E+02 0.  0.
         25    2    1    2    0    0 -0.16098968334E+02  0.32950915921E+01  0.62069562566E+03  0.63338771460E+03  0.12508758086E+03 0.  0.
        -24    2    1    2    0    0  0.63748433275E+02 -0.84499426870E+02  0.35407855741E+03  0.37969911717E+03  0.87153765673E+02 0.  0.
        -13    1    3    3    0    0 -0.30245618700E+02  0.96094981665E+02 -0.14235614573E+03  0.17439700450E+03  0.00000000000E+00 0.  1.
         14    1    3    3    0    0 -0.17403846240E+02 -0.14890646388E+02 -0.22819028699E+02  0.32331614320E+02  0.00000000000E+00 0. -1.
         11    1    5    5    0    0 -0.15750219067E+01  0.49271263392E+01 -0.29048631589E+01  0.59325793666E+01  0.00000000000E+00 0. -1.
        -12    1    5    5    0    0  0.65323455182E+02 -0.89426553209E+02  0.35698342057E+03  0.37376653780E+03  0.00000000000E+00 0.  1.
          5    1    4    4  501    0 -0.58175730112E+02 -0.21245002437E+02  0.18900362960E+03  0.19893619606E+03  0.41800000000E+01 0. -1.
         -5    1    4    4    0  501  0.42076761778E+02  0.24540094029E+02  0.43169199607E+03  0.43445151854E+03  0.41800000000E+01 0. -1.
</event>
<event>
11    1  0.6930157E-009  0.1282318E+03  0.7561462E-02  0.1121461E+00
         22   -1    0    0    0    0  0.00000000000E+00  0.00000000000E+00  0.82669852620E+02  0.82669852620E+02  0.00000000000E+00 0.  1.
         22   -1    0    0    0    0 -0.00000000000E+00 -0.00000000000E+00 -0.81978857462E+03  0.81978857462E+03  0.00000000000E+00 0. -1.
        -24    2    1    2    0    0  0.10348674651E+02  0.34739039133E+02 -0.66836736631E+03  0.67418507014E+03  0.80601963635E+02 0.  0.
         25    2    1    2    0    0 -0.15634499815E+01  0.59076360339E+01 -0.51462337773E+02  0.13540257111E+03  0.12509252382E+03 0.  0.
         24    2    1    2    0    0 -0.87852246698E+01 -0.40646675167E+02 -0.17289017912E+02  0.92870785987E+02  0.81220319963E+02 0.  0.
        -11    1    5    5    0    0 -0.28768043444E+02 -0.17599139524E+02  0.24103492286E+02  0.41452483351E+02  0.00000000000E+00 0.  1.
         12    1    5    5    0    0  0.19982818774E+02 -0.23047535643E+02 -0.41392510199E+02  0.51418302636E+02  0.00000000000E+00 0. -1.
         13    1    3    3    0    0 -0.17298149038E+01  0.15708198251E+02 -0.62596109856E+03  0.62616055183E+03  0.00000000000E+00 0. -1.
        -14    1    3    3    0    0  0.12078489555E+02  0.19030840882E+02 -0.42406267746E+02  0.48024518309E+02  0.00000000000E+00 0.  1.
          5    1    4    4  501    0 -0.56293265419E+02  0.19868742337E+02 -0.51213031969E+02  0.78765129957E+02  0.41800000000E+01 0. -1.
         -5    1    4    4    0  501  0.54729815438E+02 -0.13961106303E+02 -0.24930580436E+00  0.56637441154E+02  0.41800000000E+01 0. -1.
</event>
<event>
11    1  0.6930157E-009  0.1613142E+03  0.7561462E-02  0.1085848E+00
         22   -1    0    0    0    0  0.00000000000E+00  0.00000000000E+00  0.71062259219E+03  0.71062259219E+03  0.00000000000E+00 0. -1.
         22   -1    0    0    0    0 -0.00000000000E+00 -0.00000000000E+00 -0.16042262150E+03  0.16042262150E+03  0.00000000000E+00 0.  1.
         24    2    1    2    0    0 -0.14040271382E+01  0.11100568165E+03 -0.74746036538E+02  0.15640389130E+03  0.80938091058E+02 0.  0.
         25    2    1    2    0    0  0.31430197651E+02 -0.70525732629E+02  0.92545834611E+02  0.17370698671E+03  0.12509056496E+03 0.  0.
        -24    2    1    2    0    0 -0.30026170513E+02 -0.40479949018E+02  0.53240017262E+03  0.54093433568E+03  0.81362242593E+02 0.  0.
        -11    1    3    3    0    0  0.23304157260E+02  0.11014285342E+03 -0.59173907355E+02  0.12718523191E+03  0.00000000000E+00 0.  1.
         12    1    3    3    0    0 -0.24708184398E+02  0.86282822607E+00 -0.15572129183E+02  0.29218659382E+02  0.00000000000E+00 0. -1.
         11    1    5    5    0    0 -0.35012254512E+02  0.14776495604E+02  0.27571316626E+03  0.27831987503E+03  0.00000000000E+00 0. -1.
        -12    1    5    5    0    0  0.49860839983E+01 -0.55256444622E+02  0.25668700636E+03  0.26261446065E+03  0.00000000000E+00 0.  1.
          5    1    4    4  501    0  0.40890113404E+02  0.24790676494E+02  0.14681155261E+02  0.50195495167E+02  0.41800000000E+01 0.  1.
         -5    1    4    4    0  501 -0.94599157528E+01 -0.95316409123E+02  0.77864679349E+02  0.12351149155E+03  0.41800000000E+01 0.  1.
</event>
<event>
11    1  0.6930157E-009  0.1843493E+03  0.7561462E-02  0.1066178E+00
         22   -1    0    0    0    0  0.00000000000E+00  0.00000000000E+00  0.17170312280E+04  0.17170312280E+04  0.00000000000E+00 0. -1.
         22   -1    0    0    0    0 -0.00000000000E+00 -0.00000000000E+00 -0.70115802449E+02  0.70115802449E+02  0.00000000000E+00 0.  1.
         24    2    1    2    0    0 -0.11427165301E+03 -0.26137477229E+02  0.11039815390E+03  0.17923447153E+03  0.78715087520E+02 0.  0.
         25    2    1    2    0    0  0.16430657128E+03  0.99830755921E+02  0.37030765449E+03  0.43558909022E+03  0.12508903770E+03 0.  0.
        -24    2    1    2    0    0 -0.50034918268E+02 -0.73693278692E+02  0.11662096172E+04  0.11723234687E+04  0.79769992619E+02 0.  0.
        -11    1    3    3    0    0 -0.81504178587E+02 -0.44724670938E+02  0.43913262701E+02  0.10281829584E+03  0.00000000000E+00 0.  1.
         12    1    3    3    0    0 -0.32767474424E+02  0.18587193709E+02  0.66484891202E+02  0.76416175698E+02  0.00000000000E+00 0. -1.
         13    1    5    5    0    0 -0.14622987062E+01 -0.10840397513E+02  0.64525100091E+03  0.64534371207E+03  0.00000000000E+00 0. -1.
        -14    1    5    5    0    0 -0.48572619562E+02 -0.62852881179E+02  0.52095861626E+03  0.52697975663E+03  0.00000000000E+00 0.  1.
          5    1    4    4  501    0  0.39043744567E+02  0.59322335727E+02  0.43870937660E+02  0.83580410845E+02  0.41800000000E+01 0.  1.
         -5    1    4    4    0  501  0.12526282671E+03  0.40508420194E+02  0.32643671683E+03  0.35200867938E+03  0.41800000000E+01 0.  1.
</event>
<event>
11    1  0.6930157E-009  0.1435195E+03  0.7561462E-02  0.1103691E+00
         22   -1    0    0    0    0  0.00000000000E+00  0.00000000000E+00  0.67863698997E+03  0.67863698997E+03  0.00000000000E+00 0.  1.
         22   -1    0    0    0    0 -0.00000000000E+00 -0.00000000000E+00 -0.18563848674E+03  0.18563848674E+03  0.00000000000E+00 0. -1.
        -24    2    1    2    0    0  0.50960225620E+02  0.50108050471E+02 -0.13671235776E+03  0.17348445417E+03  0.79365141952E+02 0.  0.
         25    2    1    2    0    0 -0.23092359756E+02 -0.58939091964E+02  0.17600153530E+03  0.22501533080E+03  0.12509310543E+03 0.  0.
         24    2    1    2    0    0 -0.27867865864E+02  0.88310414937E+01  0.45370932568E+03  0.46577569174E+03  0.10119405895E+03 0.  0.
        -11    1    5    5    0    0 -0.92839868315E+01  0.43453198363E+02  0.37678773896E+03  0.37939869938E+03  0.00000000000E+00 0.  1.
         12    1    5    5    0    0 -0.18583879033E+02 -0.34622156870E+02  0.76921586717E+02  0.86376992360E+02  0.00000000000E+00 0. -1.
         13    1    3    3    0    0  0.35203502882E+02  0.41533410698E+02 -0.14413147189E+03  0.15407203512E+03  0.00000000000E+00 0. -1.
        -14    1    3    3    0    0  0.15756722738E+02  0.85746397728E+01  0.74191141281E+01  0.19412419043E+02  0.00000000000E+00 0.  1.
          5    1    4    4  501    0 -0.13367887030E+02 -0.97644703139E+02  0.13890595837E+03  0.17036879446E+03  0.41800000000E+01 0.  1.
         -5    1    4    4    0  501 -0.97244727257E+01  0.38705611174E+02  0.37095576931E+02  0.54646536341E+02  0.41800000000E+01 0.  1.
</event>
<event>
11    1  0.6930157E-009  0.1377519E+03  0.7561462E-02  0.1110095E+00
         22   -1    0    0    0    0  0.00000000000E+00  0.00000000000E+00  0.34106666890E+03  0.34106666890E+03  0.00000000000E+00 0.  1.
         22   -1    0    0    0    0 -0.00000000000E+00 -0.00000000000E+00 -0.26494065198E+03  0.26494065198E+03  0.00000000000E+00 0. -1.
         24    2    1    2    0    0 -0.49610677368E+02  0.33796376761E+02 -0.15047796178E+03  0.18033638640E+03  0.79209727236E+02 0.  0.
         25    2    1    2    0    0 -0.77018941475E+01 -0.72509386087E+01 -0.46756476485E+02  0.13395330632E+03  0.12508167291E+03 0.  0.
        -24    2    1    2    0    0  0.57312571515E+02 -0.26545438152E+02  0.27336045518E+03  0.29171762815E+03  0.79898967335E+02 0.  0.
        -13    1    3    3    0    0 -0.22881052359E+02  0.62238391597E+01  0.13269467218E+01  0.23749516175E+02  0.00000000000E+00 0.  1.
         14    1    3    3    0    0 -0.26729625008E+02  0.27572537601E+02 -0.15180490850E+03  0.15658687023E+03  0.00000000000E+00 0. -1.
         13    1    5    5    0    0  0.60299981207E+02 -0.38715328904E+02  0.13543453477E+03  0.15322361970E+03  0.00000000000E+00 0. -1.
        -14    1    5    5    0    0 -0.29874096921E+01  0.12169890752E+02  0.13792592040E+03  0.13849400845E+03  0.00000000000E+00 0.  1.
          5    1    4    4  501    0 -0.10900814467E+02  0.22506483653E+02 -0.82987306013E+02  0.86774045208E+02  0.41800000000E+01 0.  1.
         -5    1    4    4    0  501  0.31989203194E+01 -0.29757422262E+02  0.36230829528E+02  0.47179261113E+02  0.41800000000E+01 0.  1.
</event>
<event>
11    1  0.6930157E-009  0.1493374E+03  0.7561462E-02  0.1097558E+00
         22   -1    0    0    0    0  0.00000000000E+00  0.00000000000E+00  0.17733012596E+03  0.17733012596E+03  0.00000000000E+00 0.  1.
         22   -1    0    0    0    0 -0.00000000000E+00 -0.00000000000E+00 -0.26965504429E+04  0.26965504429E+04  0.00000000000E+00 0.  1.
         24    2    1    2    0    0 -0.56337316061E+01 -0.33857883583E+02 -0.24104856722E+04  0.24120718840E+04  0.80445649107E+02 0.  0.
         25    2    1    2    0    0  0.56039084264E+02 -0.32391915412E+02 -0.24641413198E+03  0.28381760815E+03  0.12507155994E+03 0.  0.
        -24    2    1    2    0    0 -0.50405352657E+02  0.66249798995E+02  0.13767948725E+03  0.17799107671E+03  0.76127831555E+02 0.  0.
        -11    1    3    3    0    0 -0.27617895164E+02 -0.23897847895E+02 -0.21837314787E+04  0.21840368647E+04  0.00000000000E+00 0.  1.
         12    1    3    3    0    0  0.21984163558E+02 -0.99600356889E+01 -0.22675419346E+03  0.22803501927E+03  0.00000000000E+00 0. -1.
         11    1    5    5    0    0 -0.32856997296E+01  0.62668277356E+02  0.58558628996E+02  0.85832522038E+02  0.00000000000E+00 0. -1.
        -12    1    5    5    0    0 -0.47119652928E+02  0.35815216390E+01  0.79120858251E+02  0.92158554674E+02  0.00000000000E+00 0.  1.
          5    1    4    4  501    0 -0.13837789575E+02  0.33015827412E+02 -0.29100891347E+02  0.46323466593E+02  0.41800000000E+01 0.  1.
         -5    1    4    4    0  501  0.69876873839E+02 -0.65407742824E+02 -0.21731324064E+03  0.23749414156E+03  0.41800000000E+01 0.  1.
</event>
<event>
11    1  0.6930157E-009  0.1422689E+03  0.7561462E-02  0.1105051E+00
         22   -1    0    0    0    0  0.00000000000E+00  0.00000000000E+00  0.25306490317E+03  0.25306490317E+03  0.00000000000E+00 0. -1.
         22   -1    0    0    0    0 -0.00000000000E+00 -0.00000000000E+00 -0.11424979426E+04  0.11424979426E+04  0.00000000000E+00 0. -1.
        -24    2    1    2    0    0  0.19864232559E+02  0.61258704859E+02 -0.94271125891E+03  0.94831215988E+03  0.80275888380E+02 0.  0.
         25    2    1    2    0    0 -0.50177430049E+02 -0.10421665299E+03 -0.14719569345E+03  0.22515050425E+03  0.12508913680E+03 0.  0.
         24    2    1    2    0    0  0.30313197490E+02  0.42957948131E+02  0.20047391291E+03  0.22210018166E+03  0.79840000541E+02 0.  0.
        -11    1    5    5    0    0  0.33117405731E+02  0.34685729001E+01  0.23508926722E+02  0.40761049986E+02  0.00000000000E+00 0.  1.
         12    1    5    5    0    0 -0.28042082409E+01  0.39489375231E+02  0.17696498619E+03  0.18133913168E+03  0.00000000000E+00 0. -1.
         13    1    3    3    0    0  0.39395702205E+02  0.17022542966E+02 -0.66801911921E+03  0.66939624435E+03  0.00000000000E+00 0. -1.
        -14    1    3    3    0    0 -0.19531469646E+02  0.44236161893E+02 -0.27469213970E+03  0.27891591554E+03  0.00000000000E+00 0.  1.
          5    1    4    4  501    0  0.25804401925E+02 -0.11465134318E+02 -0.85712315670E+02  0.90340411341E+02  0.41800000000E+01 0.  1.
         -5    1    4    4    0  501 -0.75981831974E+02 -0.92751518672E+02 -0.61483377781E+02  0.13481009291E+03  0.41800000000E+01 0.  1.
</event>
<event>
11    1  0.6930157E-009  0.1394858E+03  0.7561462E-02  0.1108134E+00
         22   -1    0    0    0    0  0.00000000000E+00  0.00000000000E+00  0.12530489254E+03  0.12530489254E+03  0.00000000000E+00 0. -1.
         22   -1    0    0    0    0 -0.00000000000E+00 -0.00000000000E+00 -0.94685501554E+03  0.94685501554E+03  0.00000000000E+00 0. -1.
         24    2    1    2    0    0 -0.53676855739E+02 -0.29841726200E+02 -0.63949897017E+03  0.64736456786E+03  0.79688251413E+02 0.  0.
         25    2    1    2    0    0  0.43292688174E+02  0.50220260275E+02 -0.27113272567E+03  0.30587135994E+03  0.12509197622E+03 0.  0.
        -24    2    1    2    0    0  0.10384167565E+02 -0.20378534075E+02  0.89081572839E+02  0.11892398028E+03  0.75394103737E+02 0.  0.
        -11    1    3    3    0    0  0.38683331563E+00 -0.31109370111E+02 -0.90296304697E+02  0.95505838516E+02  0.00000000000E+00 0.  1.
         12    1    3    3    0    0 -0.54063689055E+02  0.12676439113E+01 -0.54920266547E+03  0.55185872935E+03  0.00000000000E+00 0. -1.
         11    1    5    5    0    0 -0.73668041471E+01  0.27105295976E+02  0.31113658910E+02  0.41916901652E+02  0.00000000000E+00 0. -1.
        -12    1    5    5    0    0  0.17750971712E+02 -0.47483830051E+02  0.57967913929E+02  0.77007078625E+02  0.00000000000E+00 0.  1.
          5    1    4    4  501    0  0.73783105141E+01 -0.33372238381E+02 -0.15233828977E+03  0.15618121747E+03  0.41800000000E+01 0. -1.
         -5    1    4    4    0  501  0.35914377660E+02  0.83592498656E+02 -0.11879443590E+03  0.14969014248E+03  0.41800000000E+01 0. -1.
</event>
<event>
11    1  0.6930157E-009  0.1523371E+03  0.7561462E-02  0.1094514E+00
         22   -1    0    0    0    0  0.00000000000E+00  0.00000000000E+00  0.23175833626E+04  0.23175833626E+04  0.00000000000E+00 0. -1.
         22   -1    0    0    0    0 -0.00000000000E+00 -0.00000000000E+00 -0.76268277458E+02  0.76268277458E+02  0.00000000000E+00 0. -1.
        -24    2    1    2    0    0 -0.38474844415E+02 -0.77427524541E+02 -0.18042297184E+02  0.11904971256E+03  0.79824647597E+02 0.  0.
         25    2    1    2    0    0  0.18849321356E+02  0.99047417178E+02  0.10760686662E+04  0.10879968219E+04  0.12509045652E+03 0.  0.
         24    2    1    2    0    0  0.19625523059E+02 -0.21619892637E+02  0.11832887161E+04  0.11868051056E+04  0.86496196764E+02 0.  0.
        -11    1    5    5    0    0  0.39532952523E+02 -0.43566665127E+02  0.91395328081E+03  0.91584469652E+03  0.00000000000E+00 0.  1.
         12    1    5    5    0    0 -0.19907429464E+02  0.21946772490E+02  0.26933543534E+03  0.27096040910E+03  0.00000000000E+00 0. -1.
         13    1    3    3    0    0 -0.12384481557E+02 -0.65375516127E+02 -0.44450261692E+02  0.80019742919E+02  0.00000000000E+00 0. -1.
        -14    1    3    3    0    0 -0.26090362857E+02 -0.12052008413E+02  0.26407964508E+02  0.39029969642E+02  0.00000000000E+00 0.  1.
          5    1    4    4  501    0 -0.44738861262E+02  0.23129418744E+02  0.57513873730E+03  0.57735480881E+03  0.41800000000E+01 0. -1.
         -5    1    4    4    0  501  0.63588182618E+02  0.75917998434E+02  0.50092992887E+03  0.51064201305E+03  0.41800000000E+01 0. -1.
</event>
<event>
11    1  0.6930157E-009  0.1432027E+03  0.7561462E-02  0.1104034E+00
         22   -1    0    0    0    0  0.00000000000E+00  0.00000000000E+00  0.17626785389E+04  0.17626785389E+04  0.00000000000E+00 0. -1.
         22   -1    0    0    0    0 -0.00000000000E+00 -0.00000000000E+00 -0.14526043131E+04  0.14526043131E+04  0.00000000000E+00 0. -1.
        -24    2    1    2    0    0 -0.35708970275E+02  0.47605587300E+02 -0.14198616441E+04  0.14233326180E+04  0.79543889287E+02 0.  0.
         25    2    1    2    0    0  0.10179026747E+03 -0.59537687575E+02  0.22367245375E+03  0.28210505561E+03  0.12509157060E+03 0.  0.
         24    2    1    2    0    0 -0.66081297198E+02  0.11932100275E+02  0.15062634161E+04  0.15098451784E+04  0.79333922487E+02 0.  0.
        -11    1    5    5    0    0 -0.21669664992E+02  0.74586154830E+01  0.89785191330E+02  0.92663832793E+02  0.00000000000E+00 0.  1.
         12    1    5    5    0    0 -0.44411632206E+02  0.44734847923E+01  0.14164782248E+04  0.14171813456E+04  0.00000000000E+00 0. -1.
         11    1    3    3    0    0 -0.18590461034E+02  0.58465573414E+02 -0.58177849234E+03  0.58500430996E+03  0.00000000000E+00 0. -1.
        -12    1    3    3    0    0 -0.17118509241E+02 -0.10859986114E+02 -0.83808315180E+03  0.83832830800E+03  0.00000000000E+00 0.  1.
          5    1    4    4  501    0  0.24779088491E+02 -0.41018802782E+02  0.36730783072E+01  0.48244267145E+02  0.41800000000E+01 0. -1.
         -5    1    4    4    0  501  0.77011178982E+02 -0.18518884793E+02  0.21999937545E+03  0.23386078846E+03  0.41800000000E+01 0. -1.
</event>
<event>
11    1  0.6930157E-009  0.1423954E+03  0.7561462E-02  0.1104913E+00
         22   -1    0    0    0    0  0.00000000000E+00  0.00000000000E+00  0.25681909809E+04  0.25681909809E+04  0.00000000000E+00 0. -1.
         22   -1    0    0    0    0 -0.00000000000E+00 -0.00000000000E+00 -0.26929158012E+03  0.26929158012E+03  0.00000000000E+00 0. -1.
         24    2    1    2    0    0  0.32685106424E+02 -0.59108274862E+02 -0.24568488657E+03  0.26692318016E+03  0.79528713545E+02 0.  0.
         25    2    1    2    0    0 -0.43885756827E+02  0.78939211864E+02  0.47772459123E+03  0.50202288624E+03  0.12509530133E+03 0.  0.
        -24    2    1    2    0    0  0.11200650403E+02 -0.19830937002E+02  0.20668596962E+04  0.20685364947E+04  0.80096850786E+02 0.  0.
        -13    1    3    3    0    0  0.16603057078E+02 -0.27816134964E+02 -0.19064420284E+02  0.37587910150E+02  0.00000000000E+00 0.  1.
         14    1    3    3    0    0  0.16082049346E+02 -0.31292139898E+02 -0.22662046629E+03  0.22933527001E+03  0.00000000000E+00 0. -1.
         13    1    5    5    0    0  0.14392424895E+02  0.17559300110E+02  0.16031787673E+04  0.16033395245E+04  0.00000000000E+00 0. -1.
        -14    1    5    5    0    0 -0.31917744925E+01 -0.37390237112E+02  0.46368092884E+03  0.46519697013E+03  0.00000000000E+00 0.  1.
          5    1    4    4  501    0 -0.30768148087E+02 -0.23758447529E+02  0.59814003719E+02  0.71458590852E+02  0.41800000000E+01 0.  1.
         -5    1    4    4    0  501 -0.13117608740E+02  0.10269765939E+03  0.41791058751E+03  0.43056429538E+03  0.41800000000E+01 0.  1.
</event>
<event>
11    1  0.6930157E-009  0.1451549E+03  0.7561462E-02  0.1101935E+00
         22   -1    0    0    0    0  0.00000000000E+00  0.00000000000E+00  0.18817659094E+04  0.18817659094E+04  0.00000000000E+00 0. -1.
         22   -1    0    0    0    0 -0.00000000000E+00 -0.00000000000E+00 -0.18292376244E+03  0.18292376244E+03  0.00000000000E+00 0. -1.
         24    2    1    2    0    0 -0.44574211877E+02  0.47708520625E+02 -0.14865670948E+03  0.18071260841E+03  0.79342713976E+02 0.  0.
         25    2    1    2    0    0  0.25309708788E+01 -0.10608350400E+03  0.39739775832E+03  0.42992106260E+03  0.12508807342E+03 0.  0.
        -24    2    1    2    0    0  0.42043240998E+02  0.58374983373E+02  0.14501010981E+04  0.14540560008E+04  0.79437938197E+02 0.  0.
        -11    1    3    3    0    0 -0.51838657650E+02  0.34890617880E+02 -0.47506520731E+02  0.78495039047E+02  0.00000000000E+00 0.  1.
         12    1    3    3    0    0  0.72644457729E+01  0.12817902745E+02 -0.10115018875E+03  0.10221756936E+03  0.00000000000E+00 0. -1.
         13    1    5    5    0    0  0.39100886587E+02  0.72808607984E+02  0.13774285958E+04  0.13799056161E+04  0.00000000000E+00 0. -1.
        -14    1    5    5    0    0  0.29423544118E+01 -0.14433624611E+02  0.72672502272E+02  0.74150384729E+02  0.00000000000E+00 0.  1.
          5    1    4    4  501    0  0.44255612419E+02 -0.10841290538E+03  0.33323809590E+03  0.35323790601E+03  0.41800000000E+01 0.  1.
         -5    1    4    4    0  501 -0.41724641540E+02  0.23294013793E+01  0.64159662422E+02  0.76683156590E+02  0.41800000000E+01 0.  1.
</event>
<event>
11    1  0.6930157E-009  0.1869694E+03  0.7561462E-02  0.1064141E+00
         22   -1    0    0    0    0  0.00000000000E+00  0.00000000000E+00  0.16319859959E+03  0.16319859959E+03  0.00000000000E+00 0. -1.
         22   -1    0    0    0    0 -0.00000000000E+00 -0.00000000000E+00 -0.41340225172E+03  0.41340225172E+03  0.00000000000E+00 0.  1.
        -24    2    1    2    0    0 -0.12241203787E+02 -0.42250173364E+02 -0.18663252773E+03  0.20771993412E+03  0.79880826253E+02 0.  0.
         25    2    1    2    0    0  0.14208854613E+03 -0.89015785075E+01 -0.82925513586E+02  0.20686318866E+03  0.12508934797E+03 0.  0.
         24    2    1    2    0    0 -0.12984734235E+03  0.51151751871E+02  0.19354389188E+02  0.16201772854E+03  0.79989486472E+02 0.  0.
        -11    1    5    5    0    0 -0.28312173961E+02 -0.19290173415E+02 -0.85904892444E+01  0.35319774776E+02  0.00000000000E+00 0.  1.
         12    1    5    5    0    0 -0.10153516838E+03  0.70441925286E+02  0.27944878432E+02  0.12669795376E+03  0.00000000000E+00 0. -1.
         13    1    3    3    0    0 -0.78509344776E+01 -0.44883757832E+02 -0.38936771878E+02  0.59935474417E+02  0.00000000000E+00 0. -1.
        -14    1    3    3    0    0 -0.43902693098E+01  0.26335844683E+01 -0.14769575586E+03  0.14778445970E+03  0.00000000000E+00 0.  1.
          5    1    4    4  501    0  0.94804253357E+02 -0.52198555948E+00  0.16544449899E+02  0.96329175985E+02  0.41800000000E+01 0.  1.
         -5    1    4    4    0  501  0.47284292775E+02 -0.83795929481E+01 -0.99469963486E+02  0.11053401267E+03  0.41800000000E+01 0.  1.
</event>
<event>
11    1  0.6930157E-009  0.1400932E+03  0.7561462E-02  0.1107454E+00
         22   -1    0    0    0    0  0.00000000000E+00  0.00000000000E+00  0.15477894523E+04  0.15477894523E+04  0.00000000000E+00 0.  1.
         22   -1    0    0    0    0 -0.00000000000E+00 -0.00000000000E+00 -0.25810470342E+03  0.25810470342E+03  0.00000000000E+00 0. -1.
        -24    2    1    2    0    0 -0.39545028154E+02  0.38220332154E+02 -0.18156317719E+03  0.20627896747E+03  0.81001370779E+02 0.  0.
         25    2    1    2    0    0  0.15424569377E+02 -0.95869076115E+02  0.38136325162E+02  0.16288408743E+03  0.12509216420E+03 0.  0.
         24    2    1    2    0    0  0.24120458778E+02  0.57648743961E+02  0.14331116009E+04  0.14367311008E+04  0.80512242415E+02 0.  0.
        -13    1    5    5    0    0  0.20455109663E+02  0.73270366654E+02  0.13464017717E+04  0.13485491051E+04  0.00000000000E+00 0.  1.
         14    1    5    5    0    0  0.36653491146E+01 -0.15621622693E+02  0.86709829236E+02  0.88181995701E+02  0.00000000000E+00 0. -1.
         11    1    3    3    0    0 -0.45553572173E+02  0.56373682037E+02 -0.16760391947E+03  0.18260392599E+03  0.00000000000E+00 0. -1.
        -12    1    3    3    0    0  0.60085440193E+01 -0.18153349884E+02 -0.13959257723E+02  0.23675041487E+02  0.00000000000E+00 0.  1.
          5    1    4    4  501    0 -0.44616601624E+02 -0.73985762280E+02 -0.33773478997E+01  0.86564502190E+02  0.41800000000E+01 0.  1.
         -5    1    4    4    0  501  0.60041171000E+02 -0.21883313835E+02  0.41513673062E+02  0.76319585236E+02  0.41800000000E+01 0.  1.
</event>
<event>
11    1  0.6930157E-009  0.1428410E+03  0.7561462E-02  0.1104427E+00
         22   -1    0    0    0    0  0.00000000000E+00  0.00000000000E+00  0.32916105199E+04  0.32916105199E+04  0.00000000000E+00 0. -1.
         22   -1    0    0    0    0 -0.00000000000E+00 -0.00000000000E+00 -0.15523470566E+03  0.15523470566E+03  0.00000000000E+00 0. -1.
         24    2    1    2    0    0 -0.63644248075E+02 -0.23605815843E+02 -0.12591417103E+03  0.16243131761E+03  0.76952775262E+02 0.  0.
         25    2    1    2    0    0  0.11109314891E+03  0.12660457652E+02  0.67671408666E+03  0.69720519603E+03  0.12510457769E+03 0.  0.
        -24    2    1    2    0    0 -0.47448900840E+02  0.10945358191E+02  0.25855758986E+04  0.25872087119E+04  0.77942238140E+02 0.  0.
        -13    1    3    3    0    0 -0.54130389978E+01 -0.20742938595E+02 -0.93086203175E+02  0.95522833470E+02  0.00000000000E+00 0.  1.
         14    1    3    3    0    0 -0.58231209077E+02 -0.28628772480E+01 -0.32827967856E+02  0.66908484142E+02  0.00000000000E+00 0. -1.
         11    1    5    5    0    0 -0.62296786749E+01 -0.66434162189E+01  0.19633123870E+04  0.19633335103E+04  0.00000000000E+00 0. -1.
        -12    1    5    5    0    0 -0.41219222165E+02  0.17588774409E+02  0.62226351161E+03  0.62387520158E+03  0.00000000000E+00 0.  1.
          5    1    4    4  501    0 -0.74658800320E+01 -0.37307265986E+02  0.18521102947E+03  0.18912474533E+03  0.41800000000E+01 0.  1.
         -5    1    4    4    0  501  0.11855902895E+03  0.49967723638E+02  0.49150305719E+03  0.50808045070E+03  0.41800000000E+01 0.  1.
</event>
<event>
11    1  0.6930157E-009  0.1898119E+03  0.7561462E-02  0.1061971E+00
         22   -1    0    0    0    0  0.00000000000E+00  0.00000000000E+00  0.22927370723E+04  0.22927370723E+04  0.00000000000E+00 0. -1.
         22   -1    0    0    0    0 -0.00000000000E+00 -0.00000000000E+00 -0.86639856829E+02  0.86639856829E+02  0.00000000000E+00 0.  1.
        -24    2    1    2    0    0  0.13919992073E+03  0.30649152711E+01  0.84078856116E+02  0.18156027864E+03  0.80677562537E+02 0.  0.
         25    2    1    2    0    0 -0.14621310125E+03 -0.50752145835E+02  0.23274703322E+03  0.30622452482E+03  0.12509287286E+03 0.  0.
         24    2    1    2    0    0  0.70131805150E+01  0.47687230564E+02  0.18892713261E+04  0.18915921257E+04  0.80320417718E+02 0.  0.
        -11    1    5    5    0    0 -0.14052058852E+02 -0.13405518152E+02  0.16982339268E+03  0.17093025764E+03  0.00000000000E+00 0.  1.
         12    1    5    5    0    0  0.21065239367E+02  0.61092748716E+02  0.17194479335E+04  0.17206618680E+04  0.00000000000E+00 0. -1.
         13    1    3    3    0    0 -0.63129742236E+01  0.12724699308E+02  0.13297370566E+02  0.19457432513E+02  0.00000000000E+00 0. -1.
        -14    1    3    3    0    0  0.14551289496E+03 -0.96597840370E+01  0.70781485550E+02  0.16210284613E+03  0.00000000000E+00 0.  1.
          5    1    4    4  501    0  0.11856100047E+02  0.14677650621E+02  0.60127351092E+02  0.63156720034E+02  0.41800000000E+01 0.  1.
         -5    1    4    4    0  501 -0.15806920129E+03 -0.65429796456E+02  0.17261968213E+03  0.24306780478E+03  0.41800000000E+01 0.  1.
</event>
<event>
11    1  0.6930157E-009  0.2495918E+03  0.7561462E-02  0.1024117E+00
         22   -1    0    0    0    0  0.00000000000E+00  0.00000000000E+00  0.50735761468E+03  0.50735761468E+03  0.00000000000E+00 0.  1.
         22   -1    0    0    0    0 -0.00000000000E+00 -0.00000000000E+00 -0.22518694979E+04  0.22518694979E+04  0.00000000000E+00 0. -1.
        -24    2    1    2    0    0 -0.16528056205E+03  0.13873048095E+03 -0.20552251552E+04  0.20685517902E+04  0.91609276859E+02 0.  0.
         25    2    1    2    0    0  0.30274332349E+03  0.22246466172E+02  0.29532576518E+02  0.32964792043E+03  0.12508858137E+03 0.  0.
         24    2    1    2    0    0 -0.13746276144E+03 -0.16097694712E+03  0.28118069552E+03  0.36102740191E+03  0.80427688709E+02 0.  0.
        -13    1    5    5    0    0 -0.10669507074E+03 -0.91825337434E+02  0.23000389824E+03  0.26966186961E+03  0.00000000000E+00 0.  1.
         14    1    5    5    0    0 -0.30767690702E+02 -0.69151609684E+02  0.51176797275E+02  0.91365532299E+02  0.00000000000E+00 0. -1.
         11    1    3    3    0    0 -0.11388675841E+03  0.12708688921E+03 -0.12486638006E+04  0.12602708273E+04  0.00000000000E+00 0. -1.
        -12    1    3    3    0    0 -0.51393803641E+02  0.11643591731E+02 -0.80656135460E+03  0.80828096291E+03  0.00000000000E+00 0.  1.
          5    1    4    4  501    0  0.51060902970E+01  0.14230757240E+02  0.27740092070E+02  0.31868035989E+02  0.41800000000E+01 0. -1.
         -5    1    4    4    0  501  0.29763723320E+03  0.80157089318E+01  0.17924844480E+01  0.29777988444E+03  0.41800000000E+01 0. -1.
</event>
<event>
11    1  0.6930157E-009  0.1313799E+03  0.7561462E-02  0.1117585E+00
         22   -1    0    0    0    0  0.00000000000E+00  0.00000000000E+00  0.33544484895E+04  0.33544484895E+04  0.00000000000E+00 0. -1.
         22   -1    0    0    0    0 -0.00000000000E+00 -0.00000000000E+00 -0.47409144583E+02  0.47409144583E+02  0.00000000000E+00 0.  1.
        -24    2    1    2    0    0  0.11098972773E+02 -0.24950741952E+02  0.96356936738E+00  0.86084097501E+02  0.81632203548E+02 0.  0.
         25    2    1    2    0    0  0.21746555630E+02 -0.63048458970E+01  0.10375335244E+04  0.10452858649E+04  0.12503624009E+03 0.  0.
         24    2    1    2    0    0 -0.32845528403E+02  0.31255587849E+02  0.22685422512E+04  0.22704876717E+04  0.82307846013E+02 0.  0.
        -13    1    5    5    0    0 -0.38441379580E+02 -0.61126881739E+01  0.48982731547E+03  0.49137145175E+03  0.00000000000E+00 0.  1.
         14    1    5    5    0    0  0.55958511772E+01  0.37368276023E+02  0.17787149357E+04  0.17791162200E+04  0.00000000000E+00 0. -1.
         13    1    3    3    0    0  0.13889761065E+02  0.21406737171E+02  0.23295653132E+02  0.34552298239E+02  0.00000000000E+00 0. -1.
        -14    1    3    3    0    0 -0.27907882925E+01 -0.46357479123E+02 -0.22332083764E+02  0.51531799262E+02  0.00000000000E+00 0.  1.
          5    1    4    4  501    0  0.30785307356E+02 -0.25183131136E+02  0.10274860667E+03  0.11025730731E+03  0.41800000000E+01 0.  1.
         -5    1    4    4    0  501 -0.90387517258E+01  0.18878285239E+02  0.93478491770E+03  0.93502855756E+03  0.41800000000E+01 0.  1.
</event>
<event>
11    1  0.6930157E-009  0.1519060E+03  0.7561462E-02  0.1094947E+00
         22   -1    0    0    0    0  0.00000000000E+00  0.00000000000E+00  0.67679904972E+03  0.67679904972E+03  0.00000000000E+00 0. -1.
         22   -1    0    0    0    0 -0.00000000000E+00 -0.00000000000E+00 -0.82741764176E+03  0.82741764176E+03  0.00000000000E+00 0. -1.
        -24    2    1    2    0    0  0.80229161722E+02 -0.33784787999E+02 -0.75848599412E+03  0.76706627538E+03  0.74239728286E+02 0.  0.
         25    2    1    2    0    0 -0.64514959617E+02  0.24165717860E+02  0.26340043044E+02  0.14521556128E+03  0.12509036508E+03 0.  0.
         24    2    1    2    0    0 -0.15714202106E+02  0.96190701395E+01  0.58152735903E+03  0.59193485482E+03  0.10896485856E+03 0.  0.
        -11    1    5    5    0    0  0.32422912546E+02 -0.31558987463E+02  0.18979749233E+03  0.19511612707E+03  0.00000000000E+00 0.  1.
         12    1    5    5    0    0 -0.48137114651E+02  0.41178057602E+02  0.39172986670E+03  0.39681872776E+03  0.00000000000E+00 0. -1.
         11    1    3    3    0    0  0.19987093339E+02 -0.20254033612E+02 -0.51799220455E+03  0.51877320069E+03  0.00000000000E+00 0. -1.
        -12    1    3    3    0    0  0.60242068383E+02 -0.13530754387E+02 -0.24049378956E+03  0.24829307469E+03  0.00000000000E+00 0.  1.
          5    1    4    4  501    0  0.32464063968E+02  0.11129326088E+02 -0.16509083892E+02  0.38311872826E+02  0.41800000000E+01 0. -1.
         -5    1    4    4    0  501 -0.96979023585E+02  0.13036391772E+02  0.42849126935E+02  0.10690368845E+03  0.41800000000E+01 0. -1.
</event>
<event>
11    1  0.6930157E-009  0.1690702E+03  0.7561462E-02  0.1078844E+00
         22   -1    0    0    0    0  0.00000000000E+00  0.00000000000E+00  0.17052950995E+04  0.17052950995E+04  0.00000000000E+00 0. -1.
         22   -1    0    0    0    0 -0.00000000000E+00 -0.00000000000E+00 -0.45808778879E+03  0.45808778879E+03  0.00000000000E+00 0. -1.
        -24    2    1    2    0    0 -0.10491166054E+03 -0.49038665023E+02 -0.43281512707E+03  0.45510306431E+03  0.79866249058E+02 0.  0.
         25    2    1    2    0    0  0.22578621126E+02  0.47242314482E+02  0.38366766404E+03  0.40692677985E+03  0.12508755861E+03 0.  0.
         24    2    1    2    0    0  0.82333039414E+02  0.17963505409E+01  0.12963547737E+04  0.13013530441E+04  0.78753348020E+02 0.  0.
        -11    1    5    5    0    0  0.69975985958E+02 -0.32714446890E+02  0.86176996656E+03  0.86522502790E+03  0.00000000000E+00 0.  1.
         12    1    5    5    0    0  0.12357053456E+02  0.34510797431E+02  0.43458480713E+03  0.43612801618E+03  0.00000000000E+00 0. -1.
         11    1    3    3    0    0 -0.10790490747E+03 -0.22863766361E+02 -0.38525060137E+03  0.40072964293E+03  0.00000000000E+00 0. -1.
        -12    1    3    3    0    0  0.29932469332E+01 -0.26174898662E+02 -0.47564525704E+02  0.54373421380E+02  0.00000000000E+00 0.  1.
          5    1    4    4  501    0 -0.13959074682E+02  0.18365801215E+02  0.32758639244E+01  0.23671968754E+02  0.41800000000E+01 0. -1.
         -5    1    4    4    0  501  0.36537695807E+02  0.28876513267E+02  0.38039180012E+03  0.38325481110E+03  0.41800000000E+01 0. -1.
</event>
<event>
11    1  0.6930157E-009  0.1288002E+03  0.7561462E-02  0.1120752E+00
         22   -1    0    0    0    0  0.00000000000E+00  0.00000000000E+00  0.42352348092E+03  0.42352348092E+03  0.00000000000E+00 0.  1.
         22   -1    0    0    0    0 -0.00000000000E+00 -0.00000000000E+00 -0.62352962344E+03  0.62352962344E+03  0.00000000000E+00 0.  1.
         24    2    1    2    0    0  0.26647166860E+02  0.18214066791E+02 -0.54635888512E+03  0.55488928114E+03  0.91390695588E+02 0.  0.
         25    2    1    2    0    0  0.89591626254E-01 -0.15287250283E+02 -0.68286583046E+01  0.12620194734E+03  0.12508634174E+03 0.  0.
        -24    2    1    2    0    0 -0.26736758487E+02 -0.29268165077E+01  0.35318140091E+03  0.36596187588E+03  0.92019411750E+02 0.  0.
        -11    1    3    3    0    0  0.58413442927E+02 -0.27931835498E+00 -0.38429708085E+03  0.38871127419E+03  0.00000000000E+00 0.  1.
         12    1    3    3    0    0 -0.31766276066E+02  0.18493385146E+02 -0.16206180427E+03  0.16617800695E+03  0.00000000000E+00 0. -1.
         13    1    5    5    0    0 -0.49060683465E+02  0.49456220081E+01  0.98206383839E+02  0.10989041662E+03  0.00000000000E+00 0. -1.
        -14    1    5    5    0    0  0.22323924978E+02 -0.78724385158E+01  0.25497501707E+03  0.25607145925E+03  0.00000000000E+00 0.  1.
          5    1    4    4  501    0 -0.15532818482E+02 -0.66098474064E+02 -0.20694991801E+02  0.71105779014E+02  0.41800000000E+01 0. -1.
         -5    1    4    4    0  501  0.15622410108E+02  0.50811223781E+02  0.13866333496E+02  0.55096168327E+02  0.41800000000E+01 0. -1.
</event>
<event>
11    1  0.6930157E-009  0.1874052E+03  0.7561462E-02  0.1063806E+00
         22   -1    0    0    0    0  0.00000000000E+00  0.00000000000E+00  0.27724669743E+03  0.27724669743E+03  0.00000000000E+00 0. -1.
         22   -1    0    0    0    0 -0.00000000000E+00 -0.00000000000E+00 -0.48758434757E+03  0.48758434757E+03  0.00000000000E+00 0.  1.
        -24    2    1    2    0    0  0.89780842884E+02  0.74501271221E+01 -0.32303541077E+03  0.34459227300E+03  0.79220286905E+02 0.  0.
         25    2    1    2    0    0 -0.88513440941E+02  0.13242733038E+03 -0.30309446980E+02  0.20478744271E+03  0.12509039555E+03 0.  0.
         24    2    1    2    0    0 -0.12674019428E+01 -0.13987745750E+03  0.14300720760E+03  0.21545132929E+03  0.80005652546E+02 0.  0.
        -13    1    5    5    0    0 -0.18904733823E+02  0.97664009109E+00  0.13034241229E+02  0.22983346823E+02  0.00000000000E+00 0.  1.
         14    1    5    5    0    0  0.17637331880E+02 -0.14085409760E+03  0.12997296637E+03  0.19246798246E+03  0.00000000000E+00 0. -1.
         11    1    3    3    0    0  0.35806906869E+02 -0.13156662193E+02 -0.38307204126E+02  0.54061763082E+02  0.00000000000E+00 0. -1.
        -12    1    3    3    0    0  0.53973936014E+02  0.20606789315E+02 -0.28472820664E+03  0.29053050991E+03  0.00000000000E+00 0.  1.
          5    1    4    4  501    0 -0.50592482552E+02  0.12765577155E+02  0.35252328984E+02  0.63109098787E+02  0.41800000000E+01 0. -1.
         -5    1    4    4    0  501 -0.37920958388E+02  0.11966175323E+03 -0.65561775964E+02  0.14167834393E+03  0.41800000000E+01 0. -1.
</event>
<event>
11    1  0.6930157E-009  0.1503100E+03  0.7561462E-02  0.1096562E+00
         22   -1    0    0    0    0  0.00000000000E+00  0.00000000000E+00  0.88279799546E+03  0.88279799546E+03  0.00000000000E+00 0. -1.
         22   -1    0    0    0    0 -0.00000000000E+00 -0.00000000000E+00 -0.17000239863E+04  0.17000239863E+04  0.00000000000E+00 0.  1.
         24    2    1    2    0    0 -0.33843779968E+02 -0.76153919891E+02 -0.16742873650E+04  0.16793370773E+04  0.99950075500E+02 0.  0.
         25    2    1    2    0    0  0.68399564572E+02  0.60986985176E+02  0.28403565026E+03  0.32360794507E+03  0.12509172113E+03 0.  0.
        -24    2    1    2    0    0 -0.34555784603E+02  0.15166934714E+02  0.57302572394E+03  0.57987695937E+03  0.80465331376E+02 0.  0.
        -11    1    3    3    0    0 -0.31782652208E+01 -0.14698979714E+02 -0.12008253870E+04  0.12009195524E+04  0.00000000000E+00 0.  1.
         12    1    3    3    0    0 -0.30665514748E+02 -0.61454940176E+02 -0.47346197807E+03  0.47841752491E+03  0.00000000000E+00 0. -1.
         13    1    5    5    0    0 -0.37999026104E+02 -0.13202165469E+02  0.49752933716E+03  0.49915294700E+03  0.00000000000E+00 0. -1.
        -14    1    5    5    0    0  0.34432415007E+01  0.28369100184E+02  0.75496386777E+02  0.80724012373E+02  0.00000000000E+00 0.  1.
          5    1    4    4  501    0 -0.36539423442E+02  0.90868164607E+01  0.66399451873E+02  0.76446447320E+02  0.41800000000E+01 0.  1.
         -5    1    4    4    0  501  0.10493898801E+03  0.51900168715E+02  0.21763619839E+03  0.24716149775E+03  0.41800000000E+01 0.  1.
</event>
<event>
11    1  0.6930157E-009  0.1585958E+03  0.7561462E-02  0.1088405E+00
         22   -1    0    0    0    0  0.00000000000E+00  0.00000000000E+00  0.28156624399E+04  0.28156624399E+04  0.00000000000E+00 0.  1.
         22   -1    0    0    0    0 -0.00000000000E+00 -0.00000000000E+00 -0.10572365375E+04  0.10572365375E+04  0.00000000000E+00 0. -1.
         24    2    1    2    0    0 -0.19386552686E+02  0.71841700777E+02 -0.61842023464E+03  0.62768871575E+03  0.77540111373E+02 0.  0.
         25    2    1    2    0    0  0.10489421884E+03 -0.11832949041E+03 -0.40923312514E+03  0.45620457989E+03  0.12508478144E+03 0.  0.
        -24    2    1    2    0    0 -0.85507666156E+02  0.46487789637E+02  0.27860792622E+04  0.27890056818E+04  0.82718571425E+02 0.  0.
        -11    1    3    3    0    0  0.25035560745E+02  0.17169724428E+02 -0.10005929258E+03  0.10456309468E+03  0.00000000000E+00 0.  1.
         12    1    3    3    0    0 -0.44422113431E+02  0.54671976349E+02 -0.51836094207E+03  0.52312562107E+03  0.00000000000E+00 0. -1.
         13    1    5    5    0    0 -0.10058995276E+02 -0.11333404646E+02  0.91191926733E+02  0.92442398001E+02  0.00000000000E+00 0. -1.
        -14    1    5    5    0    0 -0.75448670881E+02  0.57821194283E+02  0.26948873355E+04  0.26965632838E+04  0.00000000000E+00 0.  1.
          5    1    4    4  501    0  0.57421689315E+02 -0.13680266683E+03 -0.33101126628E+03  0.36276459428E+03  0.41800000000E+01 0. -1.
         -5    1    4    4    0  501  0.47472529528E+02  0.18473176419E+02 -0.78221858860E+02  0.93439985607E+02  0.41800000000E+01 0. -1.
</event>
<event>
11    1  0.6930157E-009  0.1555417E+03  0.7561462E-02  0.1091347E+00
         22   -1    0    0    0    0  0.00000000000E+00  0.00000000000E+00  0.35462503901E+03  0.35462503901E+03  0.00000000000E+00 0.  1.
         22   -1    0    0    0    0 -0.00000000000E+00 -0.00000000000E+00 -0.56305951240E+03  0.56305951240E+03  0.00000000000E+00 0. -1.
        -24    2    1    2    0    0  0.60579955627E+02  0.53858872588E+02 -0.48287213706E+03  0.49631703058E+03  0.81205818232E+02 0.  0.
         25    2    1    2    0    0 -0.13409098356E+03 -0.12250497164E+02  0.94298230840E+02  0.20657072676E+03  0.12509533270E+03 0.  0.
         24    2    1    2    0    0  0.73511027935E+02 -0.41608375425E+02  0.18013943283E+03  0.21479679407E+03  0.80946398003E+02 0.  0.
        -11    1    5    5    0    0  0.45762370702E+02 -0.49781172389E+02  0.17189652392E+03  0.18471809504E+03  0.00000000000E+00 0.  1.
         12    1    5    5    0    0  0.27748657234E+02  0.81727969639E+01  0.82429089066E+01  0.30078699036E+02  0.00000000000E+00 0. -1.
         11    1    3    3    0    0  0.38565525617E+02  0.34386052443E+02 -0.44684372313E+03  0.44982109029E+03  0.00000000000E+00 0. -1.
        -12    1    3    3    0    0  0.22014430010E+02  0.19472820145E+02 -0.36028413925E+02  0.46495940286E+02  0.00000000000E+00 0.  1.
          5    1    4    4  501    0 -0.49581912103E+01 -0.18005424213E+02 -0.24412611471E+02  0.31019783364E+02  0.41800000000E+01 0. -1.
         -5    1    4    4    0  501 -0.12913279235E+03  0.57549270491E+01  0.11871084231E+03  0.17555094340E+03  0.41800000000E+01 0. -1.
</event>
<event>
11    1  0.6930157E-009  0.1654341E+03  0.7561462E-02  0.1082075E+00
         22   -1    0    0    0    0  0.00000000000E+00  0.00000000000E+00  0.14206752719E+04  0.14206752719E+04  0.00000000000E+00 0.  1.
         22   -1    0    0    0    0 -0.00000000000E+00 -0.00000000000E+00 -0.96945469096E+02  0.96945469096E+02  0.00000000000E+00 0.  1.
        -24    2    1    2    0    0 -0.97595800160E+02  0.55389835363E+02  0.28954926534E+01  0.13829934112E+03  0.80779637316E+02 0.  0.
         25    2    1    2    0    0  0.93319669967E+02 -0.28015392272E+02  0.20008145138E+03  0.25529148587E+03  0.12509089720E+03 0.  0.
         24    2    1    2    0    0  0.42761301936E+01 -0.27374443091E+02  0.11207528587E+04  0.11240299140E+04  0.81170387081E+02 0.  0.
        -11    1    5    5    0    0  0.36734562388E+02 -0.33371766163E+02  0.51739205974E+03  0.51976691539E+03  0.00000000000E+00 0.  1.
         12    1    5    5    0    0 -0.32458432195E+02  0.59973230725E+01  0.60336079899E+03  0.60426299858E+03  0.00000000000E+00 0. -1.
         13    1    3    3    0    0 -0.46783989034E+02  0.62884851592E+02  0.25162211393E+02  0.82318789300E+02  0.00000000000E+00 0. -1.
        -14    1    3    3    0    0 -0.50811811126E+02 -0.74950162289E+01 -0.22266718739E+02  0.55980551816E+02  0.00000000000E+00 0.  1.
          5    1    4    4  501    0  0.11725568544E+03 -0.47018026555E+02  0.14674933509E+03  0.19368125965E+03  0.41800000000E+01 0.  1.
         -5    1    4    4    0  501 -0.23936015474E+02  0.19002634283E+02  0.53332116297E+02  0.61610226222E+02  0.41800000000E+01 0.  1.
</event>
<event>
11    1  0.8411213E-009  0.1553020E+03  0.7561462E-02  0.1091581E+00
         22   -1    0    0    0    0  0.00000000000E+00  0.00000000000E+00  0.28265377873E+03  0.28265377873E+03  0.00000000000E+00 0. -1.
         22   -1    0    0    0    0 -0.00000000000E+00 -0.00000000000E+00 -0.11656686335E+04  0.11656686335E+04  0.00000000000E+00 0.  1.
        -24    2    1    2    0    0 -0.27869844990E+02  0.82347708652E+02 -0.89373844535E+03  0.90191983607E+03  0.84457732808E+02 0.  0.
         25    2    1    2    0    0 -0.11837345966E+02 -0.14747634733E+03 -0.21913414706E+03  0.29250190047E+03  0.12509273197E+03 0.  0.
         24    2    1    2    0    0  0.39707190955E+02  0.65128638680E+02  0.22985773761E+03  0.25390067571E+03  0.76240232130E+02 0.  0.
        -13    1    5    5    0    0  0.50008374574E+01 -0.52073230022E+01 -0.32751456994E+01  0.79278728217E+01  0.00000000000E+00 0.  1.
         14    1    5    5    0    0  0.34706353498E+02  0.70335961683E+02  0.23313288331E+03  0.24597280289E+03  0.00000000000E+00 0. -1.
         13    1    3    3    0    0  0.25957830424E+01  0.62517416025E+01 -0.29768904795E+01  0.73948792819E+01  0.00000000000E+00 0. -1.
        -14    1    3    3    0    0 -0.30465628032E+02  0.76095967050E+02 -0.89076155487E+03  0.89452495679E+03  0.00000000000E+00 0.  1.
          5    1    4    4  501    0 -0.66973353518E+02 -0.67119007989E+02 -0.91221937115E+02  0.13164082014E+03  0.41800000000E+01 0. -1.
         -5    1    4    4    0  501  0.55136007552E+02 -0.80357339344E+02 -0.12791220994E+03  0.16086108034E+03  0.41800000000E+01 0. -1.
</event>
<event>
11    1  0.6930157E-009  0.1699503E+03  0.7561462E-02  0.1078075E+00
         22   -1    0    0    0    0  0.00000000000E+00  0.00000000000E+00  0.24089600862E+03  0.24089600862E+03  0.00000000000E+00 0. -1.
         22   -1    0    0    0    0 -0.00000000000E+00 -0.00000000000E+00 -0.12025247875E+04  0.12025247875E+04  0.00000000000E+00 0.  1.
         24    2    1    2    0    0 -0.37648592587E+02 -0.10951623237E+03 -0.10870062431E+04  0.10968023367E+04  0.89339642580E+02 0.  0.
         25    2    1    2    0    0  0.10852322165E+02  0.10658491669E+03 -0.32014122342E+02  0.16778140274E+03  0.12509027826E+03 0.  0.
        -24    2    1    2    0    0  0.26796270423E+02  0.29313156781E+01  0.15739158655E+03  0.17883705662E+03  0.80522969297E+02 0.  0.
        -13    1    3    3    0    0 -0.65444816192E+02 -0.88875098450E+02 -0.88421366383E+03  0.89107553574E+03  0.00000000000E+00 0.  1.
         14    1    3    3    0    0  0.27796223605E+02 -0.20641133915E+02 -0.20279257923E+03  0.20572680099E+03  0.00000000000E+00 0. -1.
         13    1    5    5    0    0 -0.27313215788E+02  0.68840618789E+01  0.34757895257E+02  0.44738276088E+02  0.00000000000E+00 0. -1.
        -14    1    5    5    0    0  0.54109486211E+02 -0.39527462009E+01  0.12263369129E+03  0.13409878053E+03  0.00000000000E+00 0.  1.
          5    1    4    4  501    0 -0.52195617969E+02  0.58125755237E+02  0.80408911669E+01  0.78645497569E+02  0.41800000000E+01 0. -1.
         -5    1    4    4    0  501  0.63047940134E+02  0.48459161450E+02 -0.40055013508E+02  0.89135905172E+02  0.41800000000E+01 0. -1.
</event>
<event>
11    1  0.6930157E-009  0.1448414E+03  0.7561462E-02  0.1102269E+00
         22   -1    0    0    0    0  0.00000000000E+00  0.00000000000E+00  0.31607043987E+03  0.31607043987E+03  0.00000000000E+00 0. -1.
         22   -1    0    0    0    0 -0.00000000000E+00 -0.00000000000E+00 -0.31251605323E+04  0.31251605323E+04  0.00000000000E+00 0.  1.
        -24    2    1    2    0    0  0.36648806047E+02 -0.57813661554E+02 -0.23651691370E+04  0.23677865774E+04  0.87764884792E+02 0.  0.
         25    2    1    2    0    0 -0.96498576340E+02  0.62669344369E+02 -0.74090193615E+03  0.76014768020E+03  0.12509754104E+03 0.  0.
         24    2    1    2    0    0  0.59849770293E+02 -0.48556828153E+01  0.29698098067E+03  0.31329671463E+03  0.79696648989E+02 0.  0.
        -13    1    5    5    0    0  0.33993785853E+02 -0.37293930268E+02  0.10018142369E+03  0.11217277907E+03  0.00000000000E+00 0.  1.
         14    1    5    5    0    0  0.25855984440E+02  0.32438247453E+02  0.19679955698E+03  0.20112393556E+03  0.00000000000E+00 0. -1.
         11    1    3    3    0    0  0.17546626463E+00 -0.53508328562E+02 -0.64197657480E+03  0.64420268130E+03  0.00000000000E+00 0. -1.
        -12    1    3    3    0    0  0.36473339782E+02 -0.43053329925E+01 -0.17231925622E+04  0.17235838961E+04  0.00000000000E+00 0.  1.
          5    1    4    4  501    0 -0.49350116814E+02  0.97580359934E+02 -0.42812774953E+03  0.44189161906E+03  0.41800000000E+01 0.  1.
         -5    1    4    4    0  501 -0.47148459525E+02 -0.34911015564E+02 -0.31277418661E+03  0.31825606114E+03  0.41800000000E+01 0.  1.
</event>
<event>
11    1  0.6930157E-009  0.1350662E+03  0.7561462E-02  0.1113196E+00
         22   -1    0    0    0    0  0.00000000000E+00  0.00000000000E+00  0.53749571339E+03  0.53749571339E+03  0.00000000000E+00 0. -1.
         22   -1    0    0    0    0 -0.00000000000E+00 -0.00000000000E+00 -0.35766439283E+03  0.35766439283E+03  0.00000000000E+00 0.  1.
        -24    2    1    2    0    0  0.39502612838E+02 -0.24425566607E+02 -0.29592953940E+03  0.31054294863E+03  0.81887519978E+02 0.  0.
         25    2    1    2    0    0  0.46723054412E+01  0.53156880496E+02  0.44838070347E+02  0.14319593647E+03  0.12508852580E+03 0.  0.
         24    2    1    2    0    0 -0.44174918279E+02 -0.28731313889E+02  0.43092278962E+03  0.44142122112E+03  0.79883239986E+02 0.  0.
        -11    1    5    5    0    0  0.11282383904E+02  0.15656924352E+02  0.44209609635E+02  0.48238170060E+02  0.00000000000E+00 0.  1.
         12    1    5    5    0    0 -0.55457302182E+02 -0.44388238241E+02  0.38671317999E+03  0.39318305105E+03  0.00000000000E+00 0. -1.
         13    1    3    3    0    0  0.55647375606E+02 -0.10270575925E+01 -0.11934650074E+03  0.13168626541E+03  0.00000000000E+00 0. -1.
        -14    1    3    3    0    0 -0.16144762768E+02 -0.23398509014E+02 -0.17658303866E+03  0.17885668322E+03  0.00000000000E+00 0.  1.
          5    1    4    4  501    0 -0.32488760205E+02 -0.10906591590E+02  0.58347579175E+02  0.67796649441E+02  0.41800000000E+01 0. -1.
         -5    1    4    4    0  501  0.37161065646E+02  0.64063472086E+02 -0.13509508829E+02  0.75399287029E+02  0.41800000000E+01 0. -1.
</event>
<event>
11    1  0.6930157E-009  0.1530924E+03  0.7561462E-02  0.1093760E+00
         22   -1    0    0    0    0  0.00000000000E+00  0.00000000000E+00  0.21226567236E+03  0.21226567236E+03  0.00000000000E+00 0. -1.
         22   -1    0    0    0    0 -0.00000000000E+00 -0.00000000000E+00 -0.48678976850E+03  0.48678976850E+03  0.00000000000E+00 0.  1.
        -24    2    1    2    0    0 -0.78586296748E+02  0.61967512493E+02 -0.28077441790E+03  0.30888071696E+03  0.80976817208E+02 0.  0.
         25    2    1    2    0    0  0.42629781645E+02 -0.50371673828E+02 -0.15318326771E+03  0.20848907072E+03  0.12509186741E+03 0.  0.
         24    2    1    2    0    0  0.35956515104E+02 -0.11595838665E+02  0.15943358947E+03  0.18168565318E+03  0.78506513528E+02 0.  0.
        -11    1    5    5    0    0  0.35339724279E+02 -0.12455286622E+02  0.20430004847E+02  0.42678043242E+02  0.00000000000E+00 0.  1.
         12    1    5    5    0    0  0.61679082505E+00  0.85944795680E+00  0.13900358463E+03  0.13900760994E+03  0.00000000000E+00 0. -1.
         13    1    3    3    0    0  0.16292414139E+02  0.84759126428E+01 -0.59193439088E+02  0.61976988348E+02  0.00000000000E+00 0. -1.
        -14    1    3    3    0    0 -0.94878710888E+02  0.53491599850E+02 -0.22158097881E+03  0.24690372861E+03  0.00000000000E+00 0.  1.
          5    1    4    4  501    0  0.12372289308E+02 -0.78319490414E+02 -0.14638621205E+03  0.16653351494E+03  0.41800000000E+01 0.  1.
         -5    1    4    4    0  501  0.30257492336E+02  0.27947816586E+02 -0.67970556648E+01  0.41955555772E+02  0.41800000000E+01 0.  1.
</event>
<event>
11    1  0.6930157E-009  0.1302503E+03  0.7561462E-02  0.1118962E+00
         22   -1    0    0    0    0  0.00000000000E+00  0.00000000000E+00  0.11859838855E+04  0.11859838855E+04  0.00000000000E+00 0. -1.
         22   -1    0    0    0    0 -0.00000000000E+00 -0.00000000000E+00 -0.10640561309E+03  0.10640561309E+03  0.00000000000E+00 0. -1.
        -24    2    1    2    0    0  0.33291017039E+02 -0.11073955582E+02 -0.64172331482E+02  0.10733556752E+03  0.78561514877E+02 0.  0.
         25    2    1    2    0    0 -0.46984740730E+02  0.40949660700E+02  0.25614120096E+03  0.29178615843E+03  0.12508559810E+03 0.  0.
         24    2    1    2    0    0  0.13693723691E+02 -0.29875705118E+02  0.88760940298E+03  0.89326777268E+03  0.94851387060E+02 0.  0.
        -11    1    5    5    0    0 -0.81500332917E+01 -0.19492320591E+01  0.46242879896E+01  0.95711330409E+01  0.00000000000E+00 0.  1.
         12    1    5    5    0    0  0.21843756983E+02 -0.27926473058E+02  0.88298511499E+03  0.88369663964E+03  0.00000000000E+00 0. -1.
         11    1    3    3    0    0 -0.18044170964E+02  0.18074627002E+02 -0.28896712400E+02  0.38565583550E+02  0.00000000000E+00 0. -1.
        -12    1    3    3    0    0  0.51335188003E+02 -0.29148582584E+02 -0.35275619082E+02  0.68769983972E+02  0.00000000000E+00 0.  1.
          5    1    4    4  501    0  0.36514960077E+02  0.25431118368E+02  0.14571057752E+03  0.15241105239E+03  0.41800000000E+01 0.  1.
         -5    1    4    4    0  501 -0.83499700806E+02  0.15518542332E+02  0.11043062344E+03  0.13937510604E+03  0.41800000000E+01 0.  1.
</event>
<event>
11    1  0.6930157E-009  0.1487101E+03  0.7561462E-02  0.1098204E+00
         22   -1    0    0    0    0  0.00000000000E+00  0.00000000000E+00  0.19314246074E+04  0.19314246074E+04  0.00000000000E+00 0.  1.
         22   -1    0    0    0    0 -0.00000000000E+00 -0.00000000000E+00 -0.12703208136E+04  0.12703208136E+04  0.00000000000E+00 0. -1.
         24    2    1    2    0    0  0.38559196926E+02  0.60644859616E+02 -0.10535415389E+04  0.10590789566E+04  0.80832242826E+02 0.  0.
         25    2    1    2    0    0  0.41578969674E+02 -0.69908428832E+02 -0.18608511613E+03  0.23851725666E+03  0.12508721813E+03 0.  0.
        -24    2    1    2    0    0 -0.80138166600E+02  0.92635692164E+01  0.19007304488E+04  0.19041492077E+04  0.80622743409E+02 0.  0.
        -11    1    3    3    0    0  0.22676970451E+02  0.64864986260E+02 -0.44137134095E+03  0.44668822689E+03  0.00000000000E+00 0.  1.
         12    1    3    3    0    0  0.15882226475E+02 -0.42201266438E+01 -0.61217019799E+03  0.61239072975E+03  0.00000000000E+00 0. -1.
         11    1    5    5    0    0  0.75892190555E+01  0.18341007627E+02  0.16674502701E+03  0.16792228214E+03  0.00000000000E+00 0. -1.
        -12    1    5    5    0    0 -0.87727385656E+02 -0.90774384107E+01  0.17339854218E+04  0.17362269256E+04  0.00000000000E+00 0.  1.
          5    1    4    4  501    0 -0.19189980923E+02 -0.88818195966E+01  0.10409564587E+02  0.23936865335E+02  0.41800000000E+01 0.  1.
         -5    1    4    4    0  501  0.60768950598E+02 -0.61026609236E+02 -0.19649468071E+03  0.21458039132E+03  0.41800000000E+01 0.  1.
</event>
<event>
11    1  0.6930157E-009  0.1632528E+03  0.7561462E-02  0.1084057E+00
         22   -1    0    0    0    0  0.00000000000E+00  0.00000000000E+00  0.27235082734E+04  0.27235082734E+04  0.00000000000E+00 0.  1.
         22   -1    0    0    0    0 -0.00000000000E+00 -0.00000000000E+00 -0.29299492352E+04  0.29299492352E+04  0.00000000000E+00 0.  1.
        -24    2    1    2    0    0 -0.34977901454E+02 -0.76138911573E+00 -0.25063969969E+04  0.25079263864E+04  0.80279636962E+02 0.  0.
         25    2    1    2    0    0 -0.62334105815E+02 -0.38732237660E+02 -0.40869749077E+03  0.43366750825E+03  0.12509253283E+03 0.  0.
         24    2    1    2    0    0  0.97312007269E+02  0.39493626775E+02  0.27086535259E+04  0.27118636140E+04  0.79818319355E+02 0.  0.
        -13    1    5    5    0    0  0.85527659281E+02  0.22063491240E+01  0.22199437170E+04  0.22215917616E+04  0.00000000000E+00 0.  1.
         14    1    5    5    0    0  0.11784347988E+02  0.37287277651E+02  0.48870980886E+03  0.49027185235E+03  0.00000000000E+00 0. -1.
         13    1    3    3    0    0 -0.41551419215E+02 -0.29778357450E+02 -0.10691000371E+04  0.10703215219E+04  0.00000000000E+00 0. -1.
        -14    1    3    3    0    0  0.65735177606E+01  0.29016968334E+02 -0.14372969599E+04  0.14376048645E+04  0.00000000000E+00 0.  1.
          5    1    4    4  501    0 -0.23271455436E+02  0.32298853686E+02 -0.41707814638E+02  0.57808224237E+02  0.41800000000E+01 0. -1.
         -5    1    4    4    0  501 -0.39062650379E+02 -0.71031091346E+02 -0.36698967613E+03  0.37585928401E+03  0.41800000000E+01 0. -1.
</event>
<event>
11    1  0.1031098E-008  0.1883613E+03  0.7561462E-02  0.1063073E+00
         22   -1    0    0    0    0  0.00000000000E+00  0.00000000000E+00  0.61387782159E+03  0.61387782159E+03  0.00000000000E+00 0.  1.
         22   -1    0    0    0    0 -0.00000000000E+00 -0.00000000000E+00 -0.70700078686E+03  0.70700078686E+03  0.00000000000E+00 0.  1.
        -24    2    1    2    0    0 -0.76601072156E+02 -0.68336696944E+01 -0.49153948075E+03  0.50391009646E+03  0.79999380550E+02 0.  0.
         25    2    1    2    0    0 -0.91104077670E+01 -0.10847436719E+03 -0.16268218319E+03  0.23229782758E+03  0.12508836918E+03 0.  0.
         24    2    1    2    0    0  0.85711479923E+02  0.11530803689E+03  0.56109869867E+03  0.58467068441E+03  0.79785076298E+02 0.  0.
        -11    1    5    5    0    0  0.17856013288E+02  0.51434471607E+02  0.34593552239E+03  0.35019384308E+03  0.00000000000E+00 0.  1.
         12    1    5    5    0    0  0.67855466635E+02  0.63873565278E+02  0.21516317628E+03  0.23447684133E+03  0.00000000000E+00 0. -1.
         13    1    3    3    0    0 -0.19236993280E+02 -0.26328034677E+02 -0.61366308485E+02  0.69491374554E+02  0.00000000000E+00 0. -1.
        -14    1    3    3    0    0 -0.57364078876E+02  0.19494364983E+02 -0.43017317226E+03  0.43441872191E+03  0.00000000000E+00 0.  1.
          5    1    4    4  501    0 -0.36909482859E+01 -0.13138294604E+03 -0.99982031314E+02  0.16519376681E+03  0.41800000000E+01 0.  1.
         -5    1    4    4    0  501 -0.54194594811E+01  0.22908578847E+02 -0.62700151878E+02  0.67104060766E+02  0.41800000000E+01 0.  1.
</event>
<event>
11    1  0.6930157E-009  0.2792794E+03  0.7561462E-02  0.1009363E+00
         22   -1    0    0    0    0  0.00000000000E+00  0.00000000000E+00  0.32734813204E+03  0.32734813204E+03  0.00000000000E+00 0.  1.
         22   -1    0    0    0    0 -0.00000000000E+00 -0.00000000000E+00 -0.12330479891E+04  0.12330479891E+04  0.00000000000E+00 0.  1.
        -24    2    1    2    0    0  0.31572718574E+01  0.24216329980E+03 -0.10012468775E+04  0.10331300553E+04  0.78799550446E+02 0.  0.
         25    2    1    2    0    0 -0.42275061684E+02 -0.32431353405E+03 -0.31856744399E+02  0.35160654995E+03  0.12508343054E+03 0.  0.
         24    2    1    2    0    0  0.39117789827E+02  0.82150234247E+02  0.12740376492E+03  0.17565951590E+03  0.79659800041E+02 0.  0.
        -11    1    5    5    0    0  0.15208420567E+02  0.85839469780E+02  0.12347809829E+03  0.15115075714E+03  0.00000000000E+00 0.  1.
         12    1    5    5    0    0  0.23909369260E+02 -0.36892355330E+01  0.39256666299E+01  0.24508758755E+02  0.00000000000E+00 0. -1.
         11    1    3    3    0    0  0.84824721421E+00  0.13069345159E+02 -0.18142924286E+03  0.18190133993E+03  0.00000000000E+00 0. -1.
        -12    1    3    3    0    0  0.23090246431E+01  0.22909395465E+03 -0.81981763468E+03  0.85122871532E+03  0.00000000000E+00 0.  1.
          5    1    4    4  501    0  0.11130951772E+02 -0.27886581228E+03 -0.15932291524E+02  0.27957351387E+03  0.41800000000E+01 0. -1.
         -5    1    4    4    0  501 -0.53406013456E+02 -0.45447721772E+02 -0.15924452875E+02  0.72033036080E+02  0.41800000000E+01 0. -1.
</event>
<event>
11    1  0.6930157E-009  0.1411510E+03  0.7561462E-02  0.1106280E+00
         22   -1    0    0    0    0  0.00000000000E+00  0.00000000000E+00  0.12923213687E+03  0.12923213687E+03  0.00000000000E+00 0. -1.
         22   -1    0    0    0    0 -0.00000000000E+00 -0.00000000000E+00 -0.11356859897E+04  0.11356859897E+04  0.00000000000E+00 0. -1.
         24    2    1    2    0    0  0.56932922922E+01 -0.62000716677E+02 -0.93520674181E+03  0.94077711534E+03  0.81076682139E+02 0.  0.
         25    2    1    2    0    0 -0.43581586648E+02  0.19327143621E-01 -0.14188935321E+03  0.19411453040E+03  0.12509399382E+03 0.  0.
        -24    2    1    2    0    0  0.37888294356E+02  0.61981389534E+02  0.70642242141E+02  0.13002648087E+03  0.81482168936E+02 0.  0.
        -13    1    3    3    0    0  0.24285353692E+02 -0.78960046868E+00 -0.92248086092E+02  0.95394503304E+02  0.00000000000E+00 0.  1.
         14    1    3    3    0    0 -0.18592061400E+02 -0.61211116208E+02 -0.84295865571E+03  0.84538261204E+03  0.00000000000E+00 0. -1.
         13    1    5    5    0    0 -0.22841583717E+02  0.33603190882E+02  0.37312112951E+02  0.55164355856E+02  0.00000000000E+00 0. -1.
        -14    1    5    5    0    0  0.60729878073E+02  0.28378198652E+02  0.33330129190E+02  0.74862125012E+02  0.00000000000E+00 0.  1.
          5    1    4    4  501    0 -0.42120761468E+02  0.45964323816E+02 -0.23006948367E+02  0.66585806923E+02  0.41800000000E+01 0. -1.
         -5    1    4    4    0  501 -0.14608251801E+01 -0.45944996672E+02 -0.11888240485E+03  0.12752872348E+03  0.41800000000E+01 0. -1.
</event>
<event>
11    1  0.6930157E-009  0.1697969E+03  0.7561462E-02  0.1078209E+00
         22   -1    0    0    0    0  0.00000000000E+00  0.00000000000E+00  0.37432689895E+03  0.37432689895E+03  0.00000000000E+00 0.  1.
         22   -1    0    0    0    0 -0.00000000000E+00 -0.00000000000E+00 -0.10731164254E+04  0.10731164254E+04  0.00000000000E+00 0.  1.
         24    2    1    2    0    0 -0.87904763430E+02  0.29641468148E+02 -0.95733302995E+03  0.96501575752E+03  0.78504891264E+02 0.  0.
         25    2    1    2    0    0 -0.46568239648E+00  0.62230610182E+02 -0.42796121644E+02  0.14612487338E+03  0.12509238541E+03 0.  0.
        -24    2    1    2    0    0  0.88370445827E+02 -0.91872078330E+02  0.30133962510E+03  0.33630269350E+03  0.77743922762E+02 0.  0.
        -11    1    3    3    0    0 -0.66970111044E+02 -0.15037379077E+02 -0.66674825564E+03  0.67027185153E+03  0.00000000000E+00 0.  1.
         12    1    3    3    0    0 -0.20934652387E+02  0.44678847226E+02 -0.29058477431E+03  0.29474390599E+03  0.00000000000E+00 0. -1.
         11    1    5    5    0    0 -0.14251634095E+02 -0.59227397074E+01  0.32764986655E+02  0.36217844642E+02  0.00000000000E+00 0. -1.
        -12    1    5    5    0    0  0.10262207992E+03 -0.85949338622E+02  0.26857463845E+03  0.30008484886E+03  0.00000000000E+00 0.  1.
          5    1    4    4  501    0  0.38636074479E+02 -0.85569855600E+01 -0.51051627346E+02  0.64727963877E+02  0.41800000000E+01 0. -1.
         -5    1    4    4    0  501 -0.39101756875E+02  0.70787595742E+02  0.82555057013E+01  0.81396909499E+02  0.41800000000E+01 0. -1.
</event>
<event>
11    1  0.6930157E-009  0.1392728E+03  0.7561462E-02  0.1108373E+00
         22   -1    0    0    0    0  0.00000000000E+00  0.00000000000E+00  0.13979937874E+04  0.13979937874E+04  0.00000000000E+00 0. -1.
         22   -1    0    0    0    0 -0.00000000000E+00 -0.00000000000E+00 -0.34242509666E+03  0.34242509666E+03  0.00000000000E+00 0.  1.
        -24    2    1    2    0    0 -0.14520279790E+02 -0.12124665984E+02 -0.32246591108E+03  0.33803788307E+03  0.99636843247E+02 0.  0.
         25    2    1    2    0    0 -0.46105831521E+02  0.31326883893E+02  0.50068917070E+03  0.51908069096E+03  0.12509195301E+03 0.  0.
         24    2    1    2    0    0  0.60626111312E+02 -0.19202217909E+02  0.87734543110E+03  0.88330031003E+03  0.80250742570E+02 0.  0.
        -11    1    5    5    0    0  0.32337940375E+02 -0.50622110228E+02  0.50181881175E+03  0.50540128637E+03  0.00000000000E+00 0.  1.
         12    1    5    5    0    0  0.28288170936E+02  0.31419892319E+02  0.37552661935E+03  0.37789902367E+03  0.00000000000E+00 0. -1.
         11    1    3    3    0    0 -0.39813417462E+01 -0.12555694418E+02  0.20675231019E+01  0.13333086522E+02  0.00000000000E+00 0. -1.
        -12    1    3    3    0    0 -0.10538938044E+02  0.43102843408E+00 -0.32453343418E+03  0.32470479655E+03  0.00000000000E+00 0.  1.
          5    1    4    4  501    0 -0.45631350637E+02 -0.42719621455E+02  0.24084539039E+03  0.24885972091E+03  0.41800000000E+01 0.  1.
         -5    1    4    4    0  501 -0.47448088408E+00  0.74046505347E+02  0.25984378031E+03  0.27022097005E+03  0.41800000000E+01 0.  1.
</event>
<event>
11    1  0.6930157E-009  0.1385195E+03  0.7561462E-02  0.1109223E+00
         22   -1    0    0    0    0  0.00000000000E+00  0.00000000000E+00  0.56528858873E+03  0.56528858873E+03  0.00000000000E+00 0. -1.
         22   -1    0    0    0    0 -0.00000000000E+00 -0.00000000000E+00 -0.49296808267E+03  0.49296808267E+03  0.00000000000E+00 0. -1.
         24    2    1    2    0    0 -0.15287955313E+02  0.63973809306E+02 -0.44049553748E+03  0.45285671092E+03  0.81954330144E+02 0.  0.
         25    2    1    2    0    0  0.20330654162E+02 -0.11240997955E+03  0.14720587641E+03  0.22441201641E+03  0.12506735808E+03 0.  0.
        -24    2    1    2    0    0 -0.50426988491E+01  0.48436170241E+02  0.36561016713E+03  0.38098794408E+03  0.95443846453E+02 0.  0.
        -13    1    3    3    0    0 -0.23957189949E+02  0.98332257952E+01 -0.34305145681E+02  0.42982348703E+02  0.00000000000E+00 0.  1.
         14    1    3    3    0    0  0.86692346358E+01  0.54140583511E+02 -0.40619039180E+03  0.40987436222E+03  0.00000000000E+00 0. -1.
         13    1    5    5    0    0 -0.34188036851E+02  0.15382349900E+02  0.29757726607E+03  0.29992943809E+03  0.00000000000E+00 0. -1.
        -14    1    5    5    0    0  0.29145338002E+02  0.33053820341E+02  0.68032901061E+02  0.81058505989E+02  0.00000000000E+00 0.  1.
          5    1    4    4  501    0  0.59168429779E+00  0.16425554773E+02  0.71796799115E+02  0.73772635192E+02  0.41800000000E+01 0. -1.
         -5    1    4    4    0  501  0.19738969865E+02 -0.12883553432E+03  0.75409077297E+02  0.15063938122E+03  0.41800000000E+01 0. -1.
</event>
<event>
11    1  0.6930157E-009  0.1362079E+03  0.7561462E-02  0.1111868E+00
         22   -1    0    0    0    0  0.00000000000E+00  0.00000000000E+00  0.79645484233E+03  0.79645484233E+03  0.00000000000E+00 0. -1.
         22   -1    0    0    0    0 -0.00000000000E+00 -0.00000000000E+00 -0.17587560824E+03  0.17587560824E+03  0.00000000000E+00 0. -1.
        -24    2    1    2    0    0  0.45089484762E+02 -0.26109781702E+02 -0.13807755286E+03  0.16699804097E+03  0.78154671949E+02 0.  0.
         25    2    1    2    0    0 -0.84293805401E+02  0.42512398354E+02  0.30565392969E+03  0.34348840250E+03  0.12508880154E+03 0.  0.
         24    2    1    2    0    0  0.39204320639E+02 -0.16402616652E+02  0.45300285726E+03  0.46184400710E+03  0.79260794984E+02 0.  0.
        -13    1    5    5    0    0  0.50545164197E+02 -0.28431072660E+02  0.19832014088E+03  0.20662530773E+03  0.00000000000E+00 0.  1.
         14    1    5    5    0    0 -0.11340843558E+02  0.12028456008E+02  0.25468271637E+03  0.25521869937E+03  0.00000000000E+00 0. -1.
         11    1    3    3    0    0  0.45350384949E+02  0.18297710477E+02 -0.81884404249E+02  0.95375674482E+02  0.00000000000E+00 0. -1.
        -12    1    3    3    0    0 -0.26090018698E+00 -0.44407492179E+02 -0.56193148608E+02  0.71622366486E+02  0.00000000000E+00 0.  1.
          5    1    4    4  501    0  0.15061986428E+02 -0.38488258280E+01  0.16164319654E+03  0.16244282773E+03  0.41800000000E+01 0.  1.
         -5    1    4    4    0  501 -0.99355791829E+02  0.46361224182E+02  0.14401073315E+03  0.18104557476E+03  0.41800000000E+01 0.  1.
</event>
<event>
11    1  0.6930157E-009  0.2035216E+03  0.7561462E-02  0.1052061E+00
         22   -1    0    0    0    0  0.00000000000E+00  0.00000000000E+00  0.62996170270E+03  0.62996170270E+03  0.00000000000E+00 0.  1.
         22   -1    0    0    0    0 -0.00000000000E+00 -0.00000000000E+00 -0.69627349984E+03  0.69627349984E+03  0.00000000000E+00 0. -1.
        -24    2    1    2    0    0  0.14827672898E+03 -0.55642438727E+02 -0.53734462990E+03  0.56523794755E+03  0.75316775910E+02 0.  0.
         25    2    1    2    0    0 -0.17134290956E+03  0.35425254969E+02 -0.60022166903E+02  0.22330510282E+03  0.12509663097E+03 0.  0.
         24    2    1    2    0    0  0.23066180588E+02  0.20217183758E+02  0.53105499966E+03  0.53769215217E+03  0.78438859227E+02 0.  0.
        -13    1    5    5    0    0  0.12348375907E+02  0.50197508324E+02  0.29423777037E+03  0.29874426813E+03  0.00000000000E+00 0.  1.
         14    1    5    5    0    0  0.10717804680E+02 -0.29980324566E+02  0.23681722929E+03  0.23894788404E+03  0.00000000000E+00 0. -1.
         11    1    3    3    0    0  0.13712374550E+03 -0.62898458389E+02 -0.40429602084E+03  0.43152567724E+03  0.00000000000E+00 0. -1.
        -12    1    3    3    0    0  0.11152983478E+02  0.72560196624E+01 -0.13304860905E+03  0.13371227031E+03  0.00000000000E+00 0.  1.
          5    1    4    4  501    0 -0.15337707505E+03 -0.21698650788E+02 -0.40222642373E+02  0.16009588364E+03  0.41800000000E+01 0. -1.
         -5    1    4    4    0  501 -0.17965834512E+02  0.57123905756E+02 -0.19799524531E+02  0.63209219187E+02  0.41800000000E+01 0. -1.
</event>
<event>
11    1  0.6930157E-009  0.1422542E+03  0.7561462E-02  0.1105067E+00
         22   -1    0    0    0    0  0.00000000000E+00  0.00000000000E+00  0.70682687367E+03  0.70682687367E+03  0.00000000000E+00 0. -1.
         22   -1    0    0    0    0 -0.00000000000E+00 -0.00000000000E+00 -0.17974168738E+04  0.17974168738E+04  0.00000000000E+00 0. -1.
         24    2    1    2    0    0 -0.44173470727E+01  0.11190468766E+02 -0.15136144403E+04  0.15159186606E+04  0.82679937494E+02 0.  0.
         25    2    1    2    0    0 -0.62657317531E+02 -0.11487533994E+01 -0.26113684092E+03  0.29625583768E+03  0.12509121710E+03 0.  0.
        -24    2    1    2    0    0  0.67074664604E+02 -0.10041715367E+02  0.68416128110E+03  0.69206924921E+03  0.79267524737E+02 0.  0.
        -11    1    3    3    0    0 -0.27040273983E+02 -0.14481551954E+02 -0.25486572175E+03  0.25670494325E+03  0.00000000000E+00 0.  1.
         12    1    3    3    0    0  0.22622926910E+02  0.25672020720E+02 -0.12587487186E+04  0.12592137174E+04  0.00000000000E+00 0. -1.
         13    1    5    5    0    0  0.37204049886E+02  0.10049367222E+02  0.59006275787E+03  0.59131987058E+03  0.00000000000E+00 0. -1.
        -14    1    5    5    0    0  0.29870614717E+02 -0.20091082589E+02  0.94098523220E+02  0.10074937864E+03  0.00000000000E+00 0.  1.
          5    1    4    4  501    0 -0.80888444710E+02  0.18277991955E+02 -0.25556949468E+03  0.26871967641E+03  0.41800000000E+01 0.  1.
         -5    1    4    4    0  501  0.18231127179E+02 -0.19426745355E+02 -0.55673462430E+01  0.27536161270E+02  0.41800000000E+01 0.  1.
</event>
<event>
11    1  0.6930157E-009  0.2444139E+03  0.7561462E-02  0.1026918E+00
         22   -1    0    0    0    0  0.00000000000E+00  0.00000000000E+00  0.77054056293E+03  0.77054056293E+03  0.00000000000E+00 0. -1.
         22   -1    0    0    0    0 -0.00000000000E+00 -0.00000000000E+00 -0.11516445952E+04  0.11516445952E+04  0.00000000000E+00 0.  1.
        -24    2    1    2    0    0 -0.15019300171E+03  0.12845515792E+03 -0.80871503273E+03  0.83657417430E+03  0.82326663949E+02 0.  0.
         25    2    1    2    0    0  0.22923632577E+03 -0.14950325721E+03 -0.25440102663E+03  0.39403834726E+03  0.12508325145E+03 0.  0.
         24    2    1    2    0    0 -0.79043324055E+02  0.21048099290E+02  0.68201202707E+03  0.69157263657E+03  0.80258563509E+02 0.  0.
        -11    1    5    5    0    0 -0.43567376944E+02  0.37882982153E+02  0.20581525301E+03  0.21375957299E+03  0.00000000000E+00 0.  1.
         12    1    5    5    0    0 -0.35475947111E+02 -0.16834882863E+02  0.47619677406E+03  0.47781306358E+03  0.00000000000E+00 0. -1.
         13    1    3    3    0    0 -0.12650994556E+03  0.62514843641E+02 -0.47180550012E+03  0.49245639599E+03  0.00000000000E+00 0. -1.
        -14    1    3    3    0    0 -0.23683056148E+02  0.65940314276E+02 -0.33690953260E+03  0.34411777832E+03  0.00000000000E+00 0.  1.
          5    1    4    4  501    0  0.32655794053E+01  0.16694291537E+02 -0.30220055387E+02  0.34929751307E+02  0.41800000000E+01 0.  1.
         -5    1    4    4    0  501  0.22597074636E+03 -0.16619754874E+03 -0.22418097124E+03  0.35910859595E+03  0.41800000000E+01 0.  1.
</event>
<event>
11    1  0.6930157E-009  0.1429918E+03  0.7561462E-02  0.1104263E+00
         22   -1    0    0    0    0  0.00000000000E+00  0.00000000000E+00  0.14450589493E+04  0.14450589493E+04  0.00000000000E+00 0.  1.
         22   -1    0    0    0    0 -0.00000000000E+00 -0.00000000000E+00 -0.12975605756E+04  0.12975605756E+04  0.00000000000E+00 0. -1.
        -24    2    1    2    0    0  0.14704530789E+01  0.30256683245E+02 -0.12590978553E+04  0.12620697613E+04  0.81086645618E+02 0.  0.
         25    2    1    2    0    0 -0.45982519010E+01  0.40747065497E+02  0.89776849582E+02  0.15933666878E+03  0.12508726566E+03 0.  0.
         24    2    1    2    0    0  0.31277988220E+01 -0.71003748742E+02  0.13168193795E+04  0.13212130948E+04  0.80866855192E+02 0.  0.
        -11    1    5    5    0    0 -0.39388322111E+01 -0.30817479300E+02  0.11085036455E+04  0.11089389359E+04  0.00000000000E+00 0.  1.
         12    1    5    5    0    0  0.70666310332E+01 -0.40186269443E+02  0.20831573400E+03  0.21227415895E+03  0.00000000000E+00 0. -1.
         13    1    3    3    0    0  0.34652434329E+02  0.28097608400E+02 -0.97714492134E+03  0.97816280041E+03  0.00000000000E+00 0. -1.
        -14    1    3    3    0    0 -0.33181981250E+02  0.21590748451E+01 -0.28195293398E+03  0.28390696093E+03  0.00000000000E+00 0.  1.
          5    1    4    4  501    0 -0.56295667317E+02 -0.15106330916E+01  0.69251707920E+02  0.89357459794E+02  0.41800000000E+01 0.  1.
         -5    1    4    4    0  501  0.51697415416E+02  0.42257698589E+02  0.20525141662E+02  0.69979208991E+02  0.41800000000E+01 0.  1.
</event>
<event>
11    1  0.6930157E-009  0.1695605E+03  0.7561462E-02  0.1078415E+00
         22   -1    0    0    0    0  0.00000000000E+00  0.00000000000E+00  0.87699298078E+03  0.87699298078E+03  0.00000000000E+00 0.  1.
         22   -1    0    0    0    0 -0.00000000000E+00 -0.00000000000E+00 -0.64654469468E+03  0.64654469468E+03  0.00000000000E+00 0.  1.
         24    2    1    2    0    0 -0.13029723093E+02  0.11338701150E+03 -0.60252416837E+03  0.61860589641E+03  0.81311091140E+02 0.  0.
         25    2    1    2    0    0 -0.62824879248E+00 -0.12492047193E+03  0.20119985254E+03  0.26783577377E+03  0.12509637103E+03 0.  0.
        -24    2    1    2    0    0  0.13657971886E+02  0.11533460431E+02  0.63177260192E+03  0.63709600529E+03  0.80219315064E+02 0.  0.
        -11    1    3    3    0    0  0.25516346855E+02  0.75782797668E+02 -0.44510859393E+03  0.45223420567E+03  0.00000000000E+00 0.  1.
         12    1    3    3    0    0 -0.38546069948E+02  0.37604213831E+02 -0.15741557443E+03  0.16637169074E+03  0.00000000000E+00 0. -1.
         13    1    5    5    0    0  0.31121171987E+02 -0.23309243460E+02  0.21351629933E+03  0.21702778222E+03  0.00000000000E+00 0. -1.
        -14    1    5    5    0    0 -0.17463200102E+02  0.34842703891E+02  0.41825630259E+03  0.42006822306E+03  0.00000000000E+00 0.  1.
          5    1    4    4  501    0 -0.25185948607E+02 -0.77456981975E+02  0.19799784032E+03  0.21413671622E+03  0.41800000000E+01 0. -1.
         -5    1    4    4    0  501  0.24557699815E+02 -0.47463489954E+02  0.32020122165E+01  0.53699057543E+02  0.41800000000E+01 0. -1.
</event>
<event>
11    1  0.6930157E-009  0.1991896E+03  0.7561462E-02  0.1055098E+00
         22   -1    0    0    0    0  0.00000000000E+00  0.00000000000E+00  0.32664464045E+03  0.32664464045E+03  0.00000000000E+00 0. -1.
         22   -1    0    0    0    0 -0.00000000000E+00 -0.00000000000E+00 -0.25778691658E+04  0.25778691658E+04  0.00000000000E+00 0. -1.
        -24    2    1    2    0    0 -0.14576212186E+03 -0.51693072435E+02 -0.24887962306E+04  0.24947003057E+04  0.74190080664E+02 0.  0.
         25    2    1    2    0    0  0.15390568913E+03  0.82759139920E+02  0.75493846840E+02  0.22778504914E+03  0.12510264311E+03 0.  0.
         24    2    1    2    0    0 -0.81435672699E+01 -0.31066067485E+02  0.16207785845E+03  0.18202845134E+03  0.76378705543E+02 0.  0.
        -13    1    5    5    0    0 -0.32730397685E+02  0.65122182419E+01  0.40839173509E+02  0.52740174554E+02  0.00000000000E+00 0.  1.
         14    1    5    5    0    0  0.24586830415E+02 -0.37578285727E+02  0.12123868494E+03  0.12928827679E+03  0.00000000000E+00 0. -1.
         11    1    3    3    0    0 -0.72399420186E+02 -0.34780608195E+02 -0.18021485280E+04  0.18039375498E+04  0.00000000000E+00 0. -1.
        -12    1    3    3    0    0 -0.73362701675E+02 -0.16912464240E+02 -0.68664770265E+03  0.69076275595E+03  0.00000000000E+00 0.  1.
          5    1    4    4  501    0  0.47833498818E+01 -0.27325970251E+01  0.54074445728E+02  0.54514820035E+02  0.41800000000E+01 0.  1.
         -5    1    4    4    0  501  0.14912233925E+03  0.85491736945E+02  0.21419401111E+02  0.17327022910E+03  0.41800000000E+01 0.  1.
</event>
<event>
11    1  0.6930157E-009  0.1819429E+03  0.7561462E-02  0.1068082E+00
         22   -1    0    0    0    0  0.00000000000E+00  0.00000000000E+00  0.11570014399E+03  0.11570014399E+03  0.00000000000E+00 0.  1.
         22   -1    0    0    0    0 -0.00000000000E+00 -0.00000000000E+00 -0.16061179632E+04  0.16061179632E+04  0.00000000000E+00 0.  1.
        -24    2    1    2    0    0  0.61643383316E+02  0.11486265947E+03 -0.13685984437E+04  0.13772129410E+04  0.81611565646E+02 0.  0.
         25    2    1    2    0    0 -0.19206563389E+02 -0.17285092774E+03 -0.81851514488E+02  0.22933318676E+03  0.12509078634E+03 0.  0.
         24    2    1    2    0    0 -0.42436819927E+02  0.57988268263E+02 -0.39967861059E+02  0.11527197942E+03  0.80787847973E+02 0.  0.
        -13    1    5    5    0    0 -0.39981940406E+02  0.41063413807E+02  0.13714859223E+02  0.58930950065E+02  0.00000000000E+00 0.  1.
         14    1    5    5    0    0 -0.24548795208E+01  0.16924854456E+02 -0.53682720283E+02  0.56341029355E+02  0.00000000000E+00 0. -1.
         11    1    3    3    0    0 -0.75436050251E+01 -0.87970514833E+01 -0.77424393677E+02  0.78286849648E+02  0.00000000000E+00 0. -1.
        -12    1    3    3    0    0  0.69186988341E+02  0.12365971096E+03 -0.12911740500E+04  0.12989260914E+04  0.00000000000E+00 0.  1.
          5    1    4    4  501    0 -0.40633305644E+02 -0.18105063586E+02  0.12986957575E+02  0.46529477990E+02  0.41800000000E+01 0.  1.
         -5    1    4    4    0  501  0.21426742254E+02 -0.15474586415E+03 -0.94838472063E+02  0.18280370877E+03  0.41800000000E+01 0.  1.
</event>
<event>
11    1  0.6930157E-009  0.1690239E+03  0.7561462E-02  0.1078884E+00
         22   -1    0    0    0    0  0.00000000000E+00  0.00000000000E+00  0.18136063785E+03  0.18136063785E+03  0.00000000000E+00 0. -1.
         22   -1    0    0    0    0 -0.00000000000E+00 -0.00000000000E+00 -0.69708653862E+03  0.69708653862E+03  0.00000000000E+00 0. -1.
         24    2    1    2    0    0  0.70877020746E+02 -0.49275996833E+02 -0.49564580774E+03  0.50920076819E+03  0.78542852434E+02 0.  0.
         25    2    1    2    0    0 -0.13074653649E+03  0.12462271928E+03 -0.75546040707E+02  0.23234904696E+03  0.12511353402E+03 0.  0.
        -24    2    1    2    0    0  0.59869515748E+02 -0.75346722443E+02  0.55465947668E+02  0.13689736131E+03  0.80018302179E+02 0.  0.
        -13    1    3    3    0    0  0.40613537324E+01 -0.28791051595E+02 -0.47902628952E+02  0.56036426605E+02  0.00000000000E+00 0.  1.
         14    1    3    3    0    0  0.66815667014E+02 -0.20484945238E+02 -0.44774317878E+03  0.45316434159E+03  0.00000000000E+00 0. -1.
         13    1    5    5    0    0  0.67543458818E+02 -0.77182989801E+02  0.67300796194E+02  0.12267326486E+03  0.00000000000E+00 0. -1.
        -14    1    5    5    0    0 -0.76739430702E+01  0.18362673581E+01 -0.11834848526E+02  0.14224096445E+02  0.00000000000E+00 0.  1.
          5    1    4    4  501    0 -0.99179036781E+02  0.13843988691E+03 -0.92361710586E+02  0.19377884716E+03  0.41800000000E+01 0. -1.
         -5    1    4    4    0  501 -0.31567499713E+02 -0.13817167632E+02  0.16815669879E+02  0.38570199805E+02  0.41800000000E+01 0. -1.
</event>
<event>
11    1  0.6930157E-009  0.1302848E+03  0.7561462E-02  0.1118920E+00
         22   -1    0    0    0    0  0.00000000000E+00  0.00000000000E+00  0.44048008881E+03  0.44048008881E+03  0.00000000000E+00 0. -1.
         22   -1    0    0    0    0 -0.00000000000E+00 -0.00000000000E+00 -0.42171003715E+04  0.42171003715E+04  0.00000000000E+00 0.  1.
         24    2    1    2    0    0 -0.13042053980E+02 -0.33866479891E+02 -0.41324356592E+04  0.41334393459E+04  0.83542298872E+02 0.  0.
         25    2    1    2    0    0  0.51838251092E+02  0.38760737319E+02 -0.15747156380E+02  0.14171785180E+03  0.12508548098E+03 0.  0.
        -24    2    1    2    0    0 -0.38796197112E+02 -0.48942574283E+01  0.37156253281E+03  0.38242326263E+03  0.81607213824E+02 0.  0.
        -13    1    3    3    0    0 -0.12934469106E+02 -0.41239837731E+02 -0.40977754114E+04  0.40980033366E+04  0.00000000000E+00 0.  1.
         14    1    3    3    0    0 -0.10758487465E+00  0.73733578404E+01 -0.34660247788E+02  0.35436009328E+02  0.00000000000E+00 0. -1.
         11    1    5    5    0    0 -0.19768245671E+02  0.38088679632E+02  0.19888880686E+03  0.20346569379E+03  0.00000000000E+00 0. -1.
        -12    1    5    5    0    0 -0.19027951441E+02 -0.42982937061E+02  0.17267372594E+03  0.17895756884E+03  0.00000000000E+00 0.  1.
          5    1    4    4  501    0 -0.24108561334E+02  0.20745603852E+02  0.35811928955E+02  0.48078783931E+02  0.41800000000E+01 0.  1.
         -5    1    4    4    0  501  0.75946812426E+02  0.18015133468E+02 -0.51559085335E+02  0.93639067873E+02  0.41800000000E+01 0.  1.
</event>
<event>
11    1  0.6930157E-009  0.1489613E+03  0.7561462E-02  0.1097945E+00
         22   -1    0    0    0    0  0.00000000000E+00  0.00000000000E+00  0.11944925164E+04  0.11944925164E+04  0.00000000000E+00 0.  1.
         22   -1    0    0    0    0 -0.00000000000E+00 -0.00000000000E+00 -0.53257677156E+02  0.53257677156E+02  0.00000000000E+00 0. -1.
         24    2    1    2    0    0  0.23535079501E+02 -0.24842315165E+01  0.35477357223E+02  0.99602495746E+02  0.90010793297E+02 0.  0.
         25    2    1    2    0    0  0.32185931111E+02 -0.60593018086E+02  0.28118010874E+03  0.31531878753E+03  0.12512488248E+03 0.  0.
        -24    2    1    2    0    0 -0.55721010612E+02  0.63077249602E+02  0.82457737330E+03  0.83282891030E+03  0.81194697063E+02 0.  0.
        -13    1    3    3    0    0  0.11084334055E+02 -0.27934288429E+02  0.56720708724E+02  0.64190542369E+02  0.00000000000E+00 0.  1.
         14    1    3    3    0    0  0.12450745446E+02  0.25450056913E+02 -0.21243351500E+02  0.35411953377E+02  0.00000000000E+00 0. -1.
         11    1    5    5    0    0 -0.44210635681E+01  0.31018129416E+02  0.81846341271E+02  0.87638426133E+02  0.00000000000E+00 0. -1.
        -12    1    5    5    0    0 -0.51299947044E+02  0.32059120186E+02  0.74273103203E+03  0.74519048417E+03  0.00000000000E+00 0.  1.
          5    1    4    4  501    0 -0.41115576810E+02  0.73366468122E+01  0.97953374845E+02  0.10656759867E+03  0.41800000000E+01 0.  1.
         -5    1    4    4    0  501  0.73301507921E+02 -0.67929664898E+02  0.18322673389E+03  0.20875118886E+03  0.41800000000E+01 0.  1.
</event>
<event>
11    1  0.6930157E-009  0.1360483E+03  0.7561462E-02  0.1112053E+00
         22   -1    0    0    0    0  0.00000000000E+00  0.00000000000E+00  0.30329555533E+03  0.30329555533E+03  0.00000000000E+00 0. -1.
         22   -1    0    0    0    0 -0.00000000000E+00 -0.00000000000E+00 -0.79436439471E+03  0.79436439471E+03  0.00000000000E+00 0. -1.
         24    2    1    2    0    0 -0.39614061066E+02  0.38217331551E+02 -0.59582813697E+03  0.60334292719E+03  0.77341326105E+02 0.  0.
         25    2    1    2    0    0  0.91331041366E+02 -0.37620543928E+02 -0.15197784646E+03  0.22023078874E+03  0.12509064734E+03 0.  0.
        -24    2    1    2    0    0 -0.51716980300E+02 -0.59678762393E+00  0.25673714404E+03  0.27408623411E+03  0.80835019598E+02 0.  0.
        -13    1    3    3    0    0 -0.39315554445E+02  0.32061184512E+02 -0.16852147118E+03  0.17599181408E+03  0.00000000000E+00 0.  1.
         14    1    3    3    0    0 -0.29850662128E+00  0.61561470395E+01 -0.42730666579E+03  0.42735111311E+03  0.00000000000E+00 0. -1.
         11    1    5    5    0    0 -0.60832537621E+02 -0.27061961708E+02  0.20054488737E+03  0.21130830380E+03  0.00000000000E+00 0. -1.
        -12    1    5    5    0    0  0.91155573208E+01  0.26465174084E+02  0.56192256672E+02  0.62777930313E+02  0.00000000000E+00 0.  1.
          5    1    4    4  501    0 -0.31326784479E+02 -0.71822412759E+01 -0.24061595422E+02  0.40365638727E+02  0.41800000000E+01 0.  1.
         -5    1    4    4    0  501  0.12265782584E+03 -0.30438302652E+02 -0.12791625103E+03  0.17986515001E+03  0.41800000000E+01 0.  1.
</event>
<event>
11    1  0.6930157E-009  0.1298462E+03  0.7561462E-02  0.1119458E+00
         22   -1    0    0    0    0  0.00000000000E+00  0.00000000000E+00  0.47664952354E+03  0.47664952354E+03  0.00000000000E+00 0. -1.
         22   -1    0    0    0    0 -0.00000000000E+00 -0.00000000000E+00 -0.12059536957E+03  0.12059536957E+03  0.00000000000E+00 0.  1.
         24    2    1    2    0    0  0.17020361701E+02 -0.12586710950E+01 -0.75953278321E+02  0.11087229790E+03  0.78946114459E+02 0.  0.
         25    2    1    2    0    0 -0.28287343945E+01 -0.32521325131E+02  0.19812895092E+03  0.23659981909E+03  0.12513494666E+03 0.  0.
        -24    2    1    2    0    0 -0.14191627307E+02  0.33779996226E+02  0.23387848137E+03  0.24977277611E+03  0.79654285561E+02 0.  0.
        -11    1    3    3    0    0 -0.80876710465E+01 -0.18276900873E+01 -0.84070667767E+02  0.84478565641E+02  0.00000000000E+00 0.  1.
         12    1    3    3    0    0  0.25108032748E+02  0.56901899239E+00  0.81173894456E+01  0.26393732258E+02  0.00000000000E+00 0. -1.
         11    1    5    5    0    0  0.14216986702E+02 -0.69728994647E+01  0.15977994282E+03  0.16056267987E+03  0.00000000000E+00 0. -1.
        -12    1    5    5    0    0 -0.28408614009E+02  0.40752895691E+02  0.74098538546E+02  0.89210096244E+02  0.00000000000E+00 0.  1.
          5    1    4    4  501    0  0.23834879959E+02  0.29562167826E+02  0.14453114263E+02  0.40845907765E+02  0.41800000000E+01 0.  1.
         -5    1    4    4    0  501 -0.26663614354E+02 -0.62083492957E+02  0.18367583666E+03  0.19575391133E+03  0.41800000000E+01 0.  1.
</event>
<event>
11    1  0.6930157E-009  0.1331931E+03  0.7561462E-02  0.1115407E+00
         22   -1    0    0    0    0  0.00000000000E+00  0.00000000000E+00  0.18437848789E+04  0.18437848789E+04  0.00000000000E+00 0.  1.
         22   -1    0    0    0    0 -0.00000000000E+00 -0.00000000000E+00 -0.88660334779E+02  0.88660334779E+02  0.00000000000E+00 0. -1.
        -24    2    1    2    0    0 -0.39498264898E+02 -0.29512769931E+02 -0.35038651422E+02  0.10271870598E+03  0.83019931019E+02 0.  0.
         25    2    1    2    0    0  0.28367053102E+01  0.31797348233E+02  0.20621049643E+03  0.24328877908E+03  0.12509013925E+03 0.  0.
         24    2    1    2    0    0  0.36661559588E+02 -0.22845783021E+01  0.15839526991E+04  0.15864377286E+04  0.80803616820E+02 0.  0.
        -11    1    5    5    0    0  0.19950553895E+00  0.25977802736E+01  0.13126159776E+04  0.13126185634E+04  0.00000000000E+00 0.  1.
         12    1    5    5    0    0  0.36462054049E+02 -0.48823585757E+01  0.27133672153E+03  0.27381916526E+03  0.00000000000E+00 0. -1.
         11    1    3    3    0    0 -0.16128122841E+02 -0.57529393149E+02 -0.17631106857E+02  0.62294488933E+02  0.00000000000E+00 0. -1.
        -12    1    3    3    0    0 -0.23370142057E+02  0.28016623218E+02 -0.17407544565E+02  0.40424217050E+02  0.00000000000E+00 0.  1.
          5    1    4    4  501    0  0.53104585029E+02 -0.17589781894E+02  0.11498260184E+03  0.12793736165E+03  0.41800000000E+01 0.  1.
         -5    1    4    4    0  501 -0.50267879719E+02  0.49387130127E+02  0.91227894586E+02  0.11535141743E+03  0.41800000000E+01 0.  1.
</event>
<event>
11    1  0.6930157E-009  0.1400132E+03  0.7561462E-02  0.1107544E+00
         22   -1    0    0    0    0  0.00000000000E+00  0.00000000000E+00  0.91158912537E+03  0.91158912537E+03  0.00000000000E+00 0. -1.
         22   -1    0    0    0    0 -0.00000000000E+00 -0.00000000000E+00 -0.42750211092E+03  0.42750211092E+03  0.00000000000E+00 0.  1.
         24    2    1    2    0    0 -0.46695328649E+02 -0.47253538775E+02 -0.33847081079E+03  0.35807200885E+03  0.96123478528E+02 0.  0.
         25    2    1    2    0    0 -0.56903958635E+01  0.58869335538E+02 -0.12722847028E+02  0.13895400233E+03  0.12509342371E+03 0.  0.
        -24    2    1    2    0    0  0.52385724513E+02 -0.11615796763E+02  0.83528067226E+03  0.84206522511E+03  0.92200059730E+02 0.  0.
        -11    1    3    3    0    0 -0.35786372648E+02 -0.74253511791E+02 -0.29037408333E+03  0.30184657816E+03  0.00000000000E+00 0.  1.
         12    1    3    3    0    0 -0.10908956001E+02  0.26999973016E+02 -0.48096727462E+02  0.56225430691E+02  0.00000000000E+00 0. -1.
         13    1    5    5    0    0  0.70008942623E+01  0.34020200870E+02  0.45965491977E+03  0.46096532609E+03  0.00000000000E+00 0. -1.
        -14    1    5    5    0    0  0.45384830250E+02 -0.45635997633E+02  0.37562575249E+03  0.38109989902E+03  0.00000000000E+00 0.  1.
          5    1    4    4  501    0  0.29066512271E+02  0.41453119902E+02 -0.59336782974E+02  0.78112415779E+02  0.41800000000E+01 0.  1.
         -5    1    4    4    0  501 -0.34756908134E+02  0.17416215636E+02  0.46613935945E+02  0.60841586554E+02  0.41800000000E+01 0.  1.
</event>
<event>
11    1  0.6930157E-009  0.2061574E+03  0.7561462E-02  0.1050253E+00
         22   -1    0    0    0    0  0.00000000000E+00  0.00000000000E+00  0.21969375008E+03  0.21969375008E+03  0.00000000000E+00 0. -1.
         22   -1    0    0    0    0 -0.00000000000E+00 -0.00000000000E+00 -0.16256109765E+04  0.16256109765E+04  0.00000000000E+00 0. -1.
         24    2    1    2    0    0 -0.44055079055E+02 -0.15442134160E+03 -0.13676792886E+04  0.13793987218E+04  0.80046214402E+02 0.  0.
         25    2    1    2    0    0  0.15269048702E+02  0.19990122478E+03 -0.17851432696E+03  0.29615633767E+03  0.12509023902E+03 0.  0.
        -24    2    1    2    0    0  0.28786030352E+02 -0.45479883174E+02  0.14027638917E+03  0.16974966710E+03  0.78996384765E+02 0.  0.
        -13    1    3    3    0    0  0.78342572277E+01  0.57577120336E+01 -0.44502443201E+02  0.45552105165E+02  0.00000000000E+00 0.  1.
         14    1    3    3    0    0 -0.51889336282E+02 -0.16017905364E+03 -0.13231768454E+04  0.13338466166E+04  0.00000000000E+00 0. -1.
         13    1    5    5    0    0  0.27954438062E+02 -0.39032536140E+02  0.15031163436E+03  0.15779282908E+03  0.00000000000E+00 0. -1.
        -14    1    5    5    0    0  0.83159229096E+00 -0.64473470338E+01 -0.10035245190E+02  0.11956838024E+02  0.00000000000E+00 0.  1.
          5    1    4    4  501    0 -0.24855730950E+02  0.16291124941E+03 -0.79492905935E+02  0.18301496398E+03  0.41800000000E+01 0.  1.
         -5    1    4    4    0  501  0.40124779652E+02  0.36989975367E+02 -0.99021421027E+02  0.11314137370E+03  0.41800000000E+01 0.  1.
</event>
<event>
11    1  0.6930157E-009  0.1630802E+03  0.7561462E-02  0.1084216E+00
         22   -1    0    0    0    0  0.00000000000E+00  0.00000000000E+00  0.31049666805E+04  0.31049666805E+04  0.00000000000E+00 0.  1.
         22   -1    0    0    0    0 -0.00000000000E+00 -0.00000000000E+00 -0.21009167592E+03  0.21009167592E+03  0.00000000000E+00 0.  1.
        -24    2    1    2    0    0 -0.10363805672E+03 -0.37476322889E+02 -0.14404302438E+03  0.19871006024E+03  0.81190969882E+02 0.  0.
         25    2    1    2    0    0  0.83564666854E+02 -0.18640011592E+02  0.11326087940E+03  0.18922419091E+03  0.12508902448E+03 0.  0.
         24    2    1    2    0    0  0.20073389862E+02  0.56116334481E+02  0.29256571496E+04  0.29271241053E+04  0.70949185294E+02 0.  0.
        -13    1    5    5    0    0  0.28244010512E+01  0.55125778507E+02  0.27631149887E+04  0.27636662731E+04  0.00000000000E+00 0.  1.
         14    1    5    5    0    0  0.17248988811E+02  0.99055597405E+00  0.16254216090E+03  0.16345783213E+03  0.00000000000E+00 0. -1.
         13    1    3    3    0    0 -0.61588492139E+02  0.20573761486E+02 -0.62243045234E+02  0.89947866599E+02  0.00000000000E+00 0. -1.
        -14    1    3    3    0    0 -0.42049564577E+02 -0.58050084375E+02 -0.81799979144E+02  0.10876219364E+03  0.00000000000E+00 0.  1.
          5    1    4    4  501    0  0.85523767077E+02  0.18384837857E+02  0.21514864906E+02  0.90181366201E+02  0.41800000000E+01 0.  1.
         -5    1    4    4    0  501 -0.19591002230E+01 -0.37024849449E+02  0.91746014497E+02  0.99042824710E+02  0.41800000000E+01 0.  1.
</event>
<event>
11    1  0.6930157E-009  0.2290426E+03  0.7561462E-02  0.1035696E+00
         22   -1    0    0    0    0  0.00000000000E+00  0.00000000000E+00  0.19714491514E+04  0.19714491514E+04  0.00000000000E+00 0. -1.
         22   -1    0    0    0    0 -0.00000000000E+00 -0.00000000000E+00 -0.76950014796E+03  0.76950014796E+03  0.00000000000E+00 0. -1.
         24    2    1    2    0    0  0.10449890999E+03 -0.16047127725E+03 -0.73703424854E+03  0.76608352823E+03  0.83626764241E+02 0.  0.
         25    2    1    2    0    0 -0.95863359480E+02  0.20210258509E+03  0.11483362335E+04  0.11765874115E+04  0.12508634279E+03 0.  0.
        -24    2    1    2    0    0 -0.86355505145E+01 -0.41631307840E+02  0.79064701857E+03  0.79827835971E+03  0.10157703032E+03 0.  0.
        -13    1    3    3    0    0  0.66441313762E+02 -0.35441264071E+02 -0.21023254459E+03  0.22331201082E+03  0.00000000000E+00 0.  1.
         14    1    3    3    0    0  0.38057596233E+02 -0.12503001318E+03 -0.52680170395E+03  0.54277151741E+03  0.00000000000E+00 0. -1.
         13    1    5    5    0    0 -0.32616335434E+02 -0.23697492195E+02  0.72504561882E+03  0.72616564628E+03  0.00000000000E+00 0. -1.
        -14    1    5    5    0    0  0.23980784919E+02 -0.17933815644E+02  0.65601399747E+02  0.72112713426E+02  0.00000000000E+00 0.  1.
          5    1    4    4  501    0 -0.67274529469E+02  0.11162779444E+03  0.36656627078E+03  0.38906931269E+03  0.41800000000E+01 0. -1.
         -5    1    4    4    0  501 -0.28588830011E+02  0.90474790650E+02  0.78176996268E+03  0.78751809877E+03  0.41800000000E+01 0. -1.
</event>
<event>
11    1  0.6930157E-009  0.1320878E+03  0.7561462E-02  0.1116730E+00
         22   -1    0    0    0    0  0.00000000000E+00  0.00000000000E+00  0.15290660012E+04  0.15290660012E+04  0.00000000000E+00 0. -1.
         22   -1    0    0    0    0 -0.00000000000E+00 -0.00000000000E+00 -0.11511259899E+04  0.11511259899E+04  0.00000000000E+00 0.  1.
        -24    2    1    2    0    0  0.39360977002E+02  0.15446681980E+02 -0.11261970115E+04  0.11306265191E+04  0.90602043945E+02 0.  0.
         25    2    1    2    0    0 -0.41741344483E+02 -0.45731051642E+02  0.20749145869E+03  0.25006961234E+03  0.12509371153E+03 0.  0.
         24    2    1    2    0    0  0.23803674812E+01  0.30284369662E+02  0.12966455641E+04  0.12994958596E+04  0.80479568695E+02 0.  0.
        -13    1    5    5    0    0  0.36442862009E+02  0.35737172361E+01  0.84156626928E+03  0.84236253433E+03  0.00000000000E+00 0.  1.
         14    1    5    5    0    0 -0.34062494528E+02  0.26710652425E+02  0.45507929487E+03  0.45713332530E+03  0.00000000000E+00 0. -1.
         13    1    3    3    0    0  0.26627874378E+02 -0.12419012260E+02 -0.10676094666E+03  0.11073019141E+03  0.00000000000E+00 0. -1.
        -14    1    3    3    0    0  0.12733102624E+02  0.27865694240E+02 -0.10194360649E+04  0.10198963277E+04  0.00000000000E+00 0.  1.
          5    1    4    4  501    0  0.24982361924E+02 -0.61900859329E+02  0.72976373196E+02  0.98989182428E+02  0.41800000000E+01 0.  1.
         -5    1    4    4    0  501 -0.66723706407E+02  0.16169807687E+02  0.13451508549E+03  0.15108042991E+03  0.41800000000E+01 0.  1.
</event>
<event>
11    1  0.6930157E-009  0.2585211E+03  0.7561462E-02  0.1019455E+00
         22   -1    0    0    0    0  0.00000000000E+00  0.00000000000E+00  0.15354327739E+04  0.15354327739E+04  0.00000000000E+00 0. -1.
         22   -1    0    0    0    0 -0.00000000000E+00 -0.00000000000E+00 -0.24193955796E+04  0.24193955796E+04  0.00000000000E+00 0. -1.
        -24    2    1    2    0    0 -0.11443015168E+03 -0.99129484798E+02 -0.17064060853E+04  0.17140966860E+04  0.58179091146E+02 0.  0.
         25    2    1    2    0    0  0.33896999960E+03  0.89455401585E+02 -0.65002144630E+03  0.74905124631E+03  0.12508780691E+03 0.  0.
         24    2    1    2    0    0 -0.22453984792E+03  0.96740832139E+01  0.14724647259E+04  0.14916804212E+04  0.80289344279E+02 0.  0.
        -13    1    5    5    0    0 -0.19160057916E+03 -0.49872655718E+01  0.13635097401E+04  0.13769148362E+04  0.00000000000E+00 0.  1.
         14    1    5    5    0    0 -0.32939268763E+02  0.14661348786E+02  0.10895498572E+03  0.11476558495E+03  0.00000000000E+00 0. -1.
         13    1    3    3    0    0 -0.10373842898E+03 -0.64336124512E+02 -0.11385060973E+04  0.11450314110E+04  0.00000000000E+00 0. -1.
        -14    1    3    3    0    0 -0.10691722692E+02 -0.34793360286E+02 -0.56789998801E+03  0.56906527502E+03  0.00000000000E+00 0.  1.
          5    1    4    4  501    0  0.16819756306E+03  0.94114785343E+02 -0.26400605412E+03  0.32690163972E+03  0.41800000000E+01 0.  1.
         -5    1    4    4    0  501  0.17077243654E+03 -0.46593837586E+01 -0.38601539219E+03  0.42214960659E+03  0.41800000000E+01 0.  1.
</event>
<event>
11    1  0.6930157E-009  0.1361579E+03  0.7561462E-02  0.1111926E+00
         22   -1    0    0    0    0  0.00000000000E+00  0.00000000000E+00  0.90291775953E+03  0.90291775953E+03  0.00000000000E+00 0. -1.
         22   -1    0    0    0    0 -0.00000000000E+00 -0.00000000000E+00 -0.10720089478E+04  0.10720089478E+04  0.00000000000E+00 0.  1.
        -24    2    1    2    0    0 -0.32862164611E+02 -0.47644722522E+02 -0.83846431750E+03  0.84440052013E+03  0.81485490871E+02 0.  0.
         25    2    1    2    0    0 -0.18362133677E+02  0.43087862875E+02 -0.20844034938E+03  0.24755811541E+03  0.12507561462E+03 0.  0.
         24    2    1    2    0    0  0.51224298288E+02  0.45568596470E+01  0.87781347861E+03  0.88296807180E+03  0.80196127607E+02 0.  0.
        -13    1    5    5    0    0  0.17104394319E+02 -0.37433797353E+02  0.38453215756E+03  0.38672836680E+03  0.00000000000E+00 0.  1.
         14    1    5    5    0    0  0.34119903969E+02  0.41990657000E+02  0.49328132105E+03  0.49623970500E+03  0.00000000000E+00 0. -1.
         11    1    3    3    0    0  0.79061778524E+01  0.93804562192E+01 -0.24272451187E+02  0.27196552975E+02  0.00000000000E+00 0. -1.
        -12    1    3    3    0    0 -0.40768342463E+02 -0.57025178741E+02 -0.81419186632E+03  0.81720396715E+03  0.00000000000E+00 0.  1.
          5    1    4    4  501    0 -0.19633910209E+02 -0.14051401274E+02  0.63022686985E+01  0.25300658067E+02  0.41800000000E+01 0. -1.
         -5    1    4    4    0  501  0.12717765324E+01  0.57139264149E+02 -0.21474261808E+03  0.22225745734E+03  0.41800000000E+01 0. -1.
</event>
<event>
11    1  0.6930157E-009  0.1959159E+03  0.7561462E-02  0.1057450E+00
         22   -1    0    0    0    0  0.00000000000E+00  0.00000000000E+00  0.48109978918E+03  0.48109978918E+03  0.00000000000E+00 0. -1.
         22   -1    0    0    0    0 -0.00000000000E+00 -0.00000000000E+00 -0.50184706451E+03  0.50184706451E+03  0.00000000000E+00 0.  1.
         24    2    1    2    0    0  0.14495650361E+03  0.17859340954E+02 -0.30717434625E+03  0.34934538581E+03  0.79716846367E+02 0.  0.
         25    2    1    2    0    0 -0.14527608985E+03 -0.13903124734E+03 -0.71557502949E+02  0.24739121932E+03  0.12508840534E+03 0.  0.
        -24    2    1    2    0    0  0.31958623229E+00  0.12117190639E+03  0.35798457387E+03  0.38621024855E+03  0.79515205639E+02 0.  0.
        -13    1    3    3    0    0  0.22527471131E+02  0.23176814646E+02 -0.12974843156E+03  0.13371352656E+03  0.00000000000E+00 0.  1.
         14    1    3    3    0    0  0.12242903248E+03 -0.53174736914E+01 -0.17742591469E+03  0.21563185925E+03  0.00000000000E+00 0. -1.
         11    1    5    5    0    0 -0.35983075358E+02  0.74478939340E+02  0.24650543147E+03  0.26001311864E+03  0.00000000000E+00 0. -1.
        -12    1    5    5    0    0  0.36302661590E+02  0.46692967050E+02  0.11147914239E+03  0.12619712992E+03  0.00000000000E+00 0.  1.
          5    1    4    4  501    0 -0.96086841166E+01  0.52577619688E+01 -0.46216087722E+02  0.47679870340E+02  0.41800000000E+01 0.  1.
         -5    1    4    4    0  501 -0.13566740573E+03 -0.14428900931E+03 -0.25341415228E+02  0.19971134898E+03  0.41800000000E+01 0.  1.
</event>
<event>
11    1  0.6930157E-009  0.1529107E+03  0.7561462E-02  0.1093941E+00
         22   -1    0    0    0    0  0.00000000000E+00  0.00000000000E+00  0.81182919886E+03  0.81182919886E+03  0.00000000000E+00 0. -1.
         22   -1    0    0    0    0 -0.00000000000E+00 -0.00000000000E+00 -0.22274940089E+04  0.22274940089E+04  0.00000000000E+00 0. -1.
         24    2    1    2    0    0  0.24268742678E+02 -0.84593285686E+02 -0.21977045695E+04  0.22008962784E+04  0.79335096094E+02 0.  0.
         25    2    1    2    0    0 -0.55625655834E+02  0.65328232748E+02  0.20643276930E+03  0.25617379952E+03  0.12509410753E+03 0.  0.
        -24    2    1    2    0    0  0.31356913156E+02  0.19265052938E+02  0.57560699021E+03  0.58225312981E+03  0.79629779127E+02 0.  0.
        -11    1    3    3    0    0  0.90586098712E+01 -0.19473253477E+02 -0.10761635408E+03  0.10973853325E+03  0.00000000000E+00 0.  1.
         12    1    3    3    0    0  0.15210132807E+02 -0.65120032209E+02 -0.20900882155E+04  0.20911577452E+04  0.00000000000E+00 0. -1.
         13    1    5    5    0    0  0.25481710041E+02 -0.16800863323E+02  0.45993411945E+03  0.46094574603E+03  0.00000000000E+00 0. -1.
        -14    1    5    5    0    0  0.58752031145E+01  0.36065916261E+02  0.11567287077E+03  0.12130738378E+03  0.00000000000E+00 0.  1.
          5    1    4    4  501    0 -0.64017144726E+02  0.97893367601E+02  0.17024184099E+03  0.20659395699E+03  0.41800000000E+01 0. -1.
         -5    1    4    4    0  501  0.83914888927E+01 -0.32565134853E+02  0.36190928313E+02  0.49579842537E+02  0.41800000000E+01 0. -1.
</event>
<event>
11    1  0.6930157E-009  0.1529406E+03  0.7561462E-02  0.1093911E+00
         22   -1    0    0    0    0  0.00000000000E+00  0.00000000000E+00  0.82497682698E+03  0.82497682698E+03  0.00000000000E+00 0. -1.
         22   -1    0    0    0    0 -0.00000000000E+00 -0.00000000000E+00 -0.28400491786E+03  0.28400491786E+03  0.00000000000E+00 0.  1.
         24    2    1    2    0    0 -0.31010726178E+02 -0.25281957543E+02 -0.22683227041E+03  0.24465458087E+03  0.82475102458E+02 0.  0.
         25    2    1    2    0    0 -0.60368350007E+02  0.25651379468E+02  0.73306430300E+02  0.15913227323E+03  0.12508763612E+03 0.  0.
        -24    2    1    2    0    0  0.91379076185E+02 -0.36942192415E+00  0.69449774923E+03  0.70519489074E+03  0.81378364443E+02 0.  0.
        -13    1    3    3    0    0  0.18025097052E+02 -0.22695827861E+01 -0.14737437941E+03  0.14848994187E+03  0.00000000000E+00 0.  1.
         14    1    3    3    0    0 -0.49035823230E+02 -0.23012374757E+02 -0.79457891001E+02  0.96164639001E+02  0.00000000000E+00 0. -1.
         11    1    5    5    0    0  0.10252176360E+03  0.14647967393E+02  0.57759529871E+03  0.58680627472E+03  0.00000000000E+00 0. -1.
        -12    1    5    5    0    0 -0.11142687412E+02 -0.15017389318E+02  0.11690245052E+03  0.11838861602E+03  0.00000000000E+00 0.  1.
          5    1    4    4  501    0  0.95302361867E+00 -0.46319750522E+02  0.21664179840E+02  0.51315072158E+02  0.41800000000E+01 0. -1.
         -5    1    4    4    0  501 -0.61321373626E+02  0.71971129990E+02  0.51642250460E+02  0.10781720108E+03  0.41800000000E+01 0. -1.
</event>
<event>
11    1  0.6930157E-009  0.1669159E+03  0.7561462E-02  0.1080747E+00
         22   -1    0    0    0    0  0.00000000000E+00  0.00000000000E+00  0.13867231332E+04  0.13867231332E+04  0.00000000000E+00 0. -1.
         22   -1    0    0    0    0 -0.00000000000E+00 -0.00000000000E+00 -0.41111831761E+03  0.41111831761E+03  0.00000000000E+00 0.  1.
        -24    2    1    2    0    0 -0.73585981864E+02  0.82995148406E+02 -0.38653120106E+03  0.41030594024E+03  0.81495422095E+02 0.  0.
         25    2    1    2    0    0  0.53453532873E+02 -0.74137317742E+02  0.56117545877E+03  0.58216789912E+03  0.12509174702E+03 0.  0.
         24    2    1    2    0    0  0.20132448991E+02 -0.88578306643E+01  0.80096055790E+03  0.80536761148E+03  0.81212053523E+02 0.  0.
        -13    1    5    5    0    0 -0.16337710387E+02  0.25344611877E+02  0.19149316421E+03  0.19385278453E+03  0.00000000000E+00 0.  1.
         14    1    5    5    0    0  0.36470159378E+02 -0.34202442542E+02  0.60946739369E+03  0.61151482695E+03  0.00000000000E+00 0. -1.
         11    1    3    3    0    0 -0.25961200259E+02  0.69657292546E+02 -0.13649408739E+03  0.15542444536E+03  0.00000000000E+00 0. -1.
        -12    1    3    3    0    0 -0.47624781605E+02  0.13337855860E+02 -0.25003711367E+03  0.25488149488E+03  0.00000000000E+00 0.  1.
          5    1    4    4  501    0  0.30461299375E+02 -0.13214869386E+02  0.46347423367E+03  0.46468092409E+03  0.41800000000E+01 0. -1.
         -5    1    4    4    0  501  0.22992233498E+02 -0.60922448356E+02  0.97701225103E+02  0.11748697503E+03  0.41800000000E+01 0. -1.
</event>
<event>
11    1  0.6930157E-009  0.2649752E+03  0.7561462E-02  0.1016211E+00
         22   -1    0    0    0    0  0.00000000000E+00  0.00000000000E+00  0.85169497058E+03  0.85169497058E+03  0.00000000000E+00 0. -1.
         22   -1    0    0    0    0 -0.00000000000E+00 -0.00000000000E+00 -0.49139835010E+03  0.49139835010E+03  0.00000000000E+00 0.  1.
        -24    2    1    2    0    0  0.45653972100E+02 -0.22946375996E+03 -0.40881006932E+03  0.47608800998E+03  0.69254733899E+02 0.  0.
         25    2    1    2    0    0 -0.50845062204E+02  0.22377913578E+03  0.33364251276E+03  0.42382470126E+03  0.12509088344E+03 0.  0.
         24    2    1    2    0    0  0.51910901032E+01  0.56846241738E+01  0.43546417705E+03  0.44318060943E+03  0.81980123898E+02 0.  0.
        -13    1    5    5    0    0  0.36702062822E+02  0.50465523607E+01  0.10748409134E+03  0.11368966091E+03  0.00000000000E+00 0.  1.
         14    1    5    5    0    0 -0.31510972719E+02  0.63807181310E+00  0.32798008571E+03  0.32949094852E+03  0.00000000000E+00 0. -1.
         11    1    3    3    0    0  0.18629177902E+02 -0.52905638211E+02 -0.49401786978E+02  0.74743490556E+02  0.00000000000E+00 0. -1.
        -12    1    3    3    0    0  0.27024794199E+02 -0.17655812175E+03 -0.35940828234E+03  0.40134451943E+03  0.00000000000E+00 0.  1.
          5    1    4    4  501    0 -0.77517676052E+01  0.18369639183E+03  0.17221307583E+03  0.25195092808E+03  0.41800000000E+01 0.  1.
         -5    1    4    4    0  501 -0.43093294598E+02  0.40082743951E+02  0.16142943693E+03  0.17187377319E+03  0.41800000000E+01 0.  1.
</event>
<event>
11    1  0.6930157E-009  0.1306046E+03  0.7561462E-02  0.1118528E+00
         22   -1    0    0    0    0  0.00000000000E+00  0.00000000000E+00  0.67873972786E+03  0.67873972786E+03  0.00000000000E+00 0.  1.
         22   -1    0    0    0    0 -0.00000000000E+00 -0.00000000000E+00 -0.30728716635E+04  0.30728716635E+04  0.00000000000E+00 0.  1.
        -24    2    1    2    0    0  0.14231429310E+01 -0.11942932593E+02 -0.22934261278E+04  0.22948675944E+04  0.80431420090E+02 0.  0.
         25    2    1    2    0    0 -0.26610677101E+02 -0.15957114435E+02 -0.77046391508E+03  0.78116858461E+03  0.12508779113E+03 0.  0.
         24    2    1    2    0    0  0.25187534170E+02  0.27900047028E+02  0.66975810720E+03  0.67557521236E+03  0.80081963551E+02 0.  0.
        -11    1    5    5    0    0  0.37067148130E+02  0.28457465868E+02  0.65480042014E+03  0.65646583388E+03  0.00000000000E+00 0.  1.
         12    1    5    5    0    0 -0.11879613960E+02 -0.55741884005E+00  0.14957687065E+02  0.19109378482E+02  0.00000000000E+00 0. -1.
         13    1    3    3    0    0  0.86438900466E+01 -0.27362012844E+02 -0.30009898295E+03  0.30146773650E+03  0.00000000000E+00 0. -1.
        -14    1    3    3    0    0 -0.72207471156E+01  0.15419080251E+02 -0.19933271448E+04  0.19933998579E+04  0.00000000000E+00 0.  1.
          5    1    4    4  501    0 -0.26259702849E+02 -0.19424592359E+02 -0.77398587090E+03  0.77468605741E+03  0.41800000000E+01 0. -1.
         -5    1    4    4    0  501 -0.35097425193E+00  0.34674779238E+01  0.35219558200E+01  0.64825271982E+01  0.41800000000E+01 0. -1.
</event>
<event>
11    1  0.6930157E-009  0.1388655E+03  0.7561462E-02  0.1108832E+00
         22   -1    0    0    0    0  0.00000000000E+00  0.00000000000E+00  0.57367203309E+02  0.57367203309E+02  0.00000000000E+00 0. -1.
         22   -1    0    0    0    0 -0.00000000000E+00 -0.00000000000E+00 -0.12004640008E+04  0.12004640008E+04  0.00000000000E+00 0.  1.
        -24    2    1    2    0    0  0.48916595964E+01 -0.65154009655E+02 -0.68807519816E+03  0.69575420773E+03  0.79733718919E+02 0.  0.
         25    2    1    2    0    0 -0.43651582756E+02  0.39775316893E+02 -0.44986045470E+03  0.47064872983E+03  0.12509301208E+03 0.  0.
         24    2    1    2    0    0  0.38759923159E+02  0.25378692762E+02 -0.51611446110E+01  0.91428266544E+02  0.78651642195E+02 0.  0.
        -11    1    5    5    0    0  0.61376223523E+01 -0.24130030628E+02  0.14682968803E+02  0.28905334441E+02  0.00000000000E+00 0.  1.
         12    1    5    5    0    0  0.32622300807E+02  0.49508723390E+02 -0.19844113413E+02  0.62522932104E+02  0.00000000000E+00 0. -1.
         13    1    3    3    0    0 -0.29269467498E+02 -0.36042406833E+02 -0.18719558583E+03  0.19286768566E+03  0.00000000000E+00 0. -1.
        -14    1    3    3    0    0  0.34161127094E+02 -0.29111602822E+02 -0.50087961234E+03  0.50288652207E+03  0.00000000000E+00 0.  1.
          5    1    4    4  501    0 -0.14537538806E+02 -0.29143866575E+02 -0.31214275517E+03  0.31386506177E+03  0.41800000000E+01 0. -1.
         -5    1    4    4    0  501 -0.29114043950E+02  0.68919183468E+02 -0.13771769953E+03  0.15678366806E+03  0.41800000000E+01 0. -1.
</event>
<event>
11    1  0.6930157E-009  0.2692341E+03  0.7561462E-02  0.1014124E+00
         22   -1    0    0    0    0  0.00000000000E+00  0.00000000000E+00  0.33813608085E+03  0.33813608085E+03  0.00000000000E+00 0.  1.
         22   -1    0    0    0    0 -0.00000000000E+00 -0.00000000000E+00 -0.52869298876E+03  0.52869298876E+03  0.00000000000E+00 0. -1.
         24    2    1    2    0    0 -0.10855687088E+03  0.81010312123E+02 -0.21687759916E+03  0.26863525414E+03  0.82351331870E+02 0.  0.
         25    2    1    2    0    0  0.31600738191E+03 -0.26624901189E+02 -0.72365476910E+02  0.34850290522E+03  0.12509181395E+03 0.  0.
        -24    2    1    2    0    0 -0.20745051103E+03 -0.54385410934E+02  0.98686168166E+02  0.24969091024E+03  0.81320990043E+02 0.  0.
        -13    1    3    3    0    0 -0.31948813312E+02  0.49868832576E+02 -0.34885266415E+02  0.68735790876E+02  0.00000000000E+00 0.  1.
         14    1    3    3    0    0 -0.76608057566E+02  0.31141479547E+02 -0.18199233275E+03  0.19989946326E+03  0.00000000000E+00 0. -1.
         11    1    5    5    0    0 -0.17237412725E+01 -0.99128098279E+00  0.24488831865E+02  0.24569428322E+02  0.00000000000E+00 0. -1.
        -12    1    5    5    0    0 -0.20572676976E+03 -0.53394129951E+02  0.74197336301E+02  0.22512148192E+03  0.00000000000E+00 0.  1.
          5    1    4    4  501    0  0.30353773493E+02 -0.30353532247E+02 -0.43635985482E+02  0.61353566433E+02  0.41800000000E+01 0. -1.
         -5    1    4    4    0  501  0.28565360842E+03  0.37286310580E+01 -0.28729491428E+02  0.28714933879E+03  0.41800000000E+01 0. -1.
</event>
<event>
11    1  0.6930157E-009  0.1504662E+03  0.7561462E-02  0.1096403E+00
         22   -1    0    0    0    0  0.00000000000E+00  0.00000000000E+00  0.18164869629E+04  0.18164869629E+04  0.00000000000E+00 0.  1.
         22   -1    0    0    0    0 -0.00000000000E+00 -0.00000000000E+00 -0.22406194363E+04  0.22406194363E+04  0.00000000000E+00 0.  1.
        -24    2    1    2    0    0 -0.12669903268E+02 -0.16785103044E+02 -0.22240148178E+04  0.22255918571E+04  0.81085994262E+02 0.  0.
         25    2    1    2    0    0 -0.63408963919E+02 -0.23406390971E+02  0.35253344390E+03  0.38012674054E+03  0.12509178215E+03 0.  0.
         24    2    1    2    0    0  0.76078867188E+02  0.40191494015E+02  0.14473489005E+04  0.14513878015E+04  0.65607625540E+02 0.  0.
        -11    1    5    5    0    0  0.16601904217E+02  0.29248179374E+02  0.91447778553E+03  0.91509600559E+03  0.00000000000E+00 0.  1.
         12    1    5    5    0    0  0.59476962971E+02  0.10943314641E+02  0.53287111494E+03  0.53629179594E+03  0.00000000000E+00 0. -1.
         11    1    3    3    0    0 -0.18529006169E+01  0.21408370885E+02 -0.19357457198E+03  0.19476361698E+03  0.00000000000E+00 0. -1.
        -12    1    3    3    0    0 -0.10817002651E+02 -0.38193473929E+02 -0.20304402458E+04  0.20308282401E+04  0.00000000000E+00 0.  1.
          5    1    4    4  501    0 -0.68343693292E+02 -0.49830251662E+02  0.33961046583E+03  0.35000950743E+03  0.41800000000E+01 0.  1.
         -5    1    4    4    0  501  0.49347293721E+01  0.26423860691E+02  0.12922978072E+02  0.30117233108E+02  0.41800000000E+01 0.  1.
</event>
<event>
11    1  0.6930157E-009  0.2488644E+03  0.7561462E-02  0.1024506E+00
         22   -1    0    0    0    0  0.00000000000E+00  0.00000000000E+00  0.25121809703E+03  0.25121809703E+03  0.00000000000E+00 0.  1.
         22   -1    0    0    0    0 -0.00000000000E+00 -0.00000000000E+00 -0.34777807793E+04  0.34777807793E+04  0.00000000000E+00 0. -1.
        -24    2    1    2    0    0  0.11331000956E+03  0.33825526927E+02 -0.28019830755E+04  0.28055520386E+04  0.77651537159E+02 0.  0.
         25    2    1    2    0    0 -0.15595081122E+03 -0.23927295704E+03 -0.57302089032E+03  0.65235899846E+03  0.12508844330E+03 0.  0.
         24    2    1    2    0    0  0.42640801651E+02  0.20544743011E+03  0.14844128351E+03  0.27108783933E+03  0.86179565315E+02 0.  0.
        -13    1    5    5    0    0 -0.16981737006E+02  0.64359690920E+02  0.77875578900E+02  0.10244586373E+03  0.00000000000E+00 0.  1.
         14    1    5    5    0    0  0.59622538657E+02  0.14108773919E+03  0.70565704606E+02  0.16864197559E+03  0.00000000000E+00 0. -1.
         11    1    3    3    0    0  0.11660350611E+03  0.26527562117E+02 -0.27700668011E+04  0.27726467809E+04  0.00000000000E+00 0. -1.
        -12    1    3    3    0    0 -0.32934965431E+01  0.72979648104E+01 -0.31916274447E+02  0.32905257702E+02  0.00000000000E+00 0.  1.
          5    1    4    4  501    0 -0.45908859760E+01  0.10764356419E+02 -0.47291551707E+01  0.13296048728E+02  0.41800000000E+01 0.  1.
         -5    1    4    4    0  501 -0.15135992524E+03 -0.25003731345E+03 -0.56829173515E+03  0.63906294974E+03  0.41800000000E+01 0.  1.
</event>
<event>
11    1  0.6930157E-009  0.1608500E+03  0.7561462E-02  0.1086281E+00
         22   -1    0    0    0    0  0.00000000000E+00  0.00000000000E+00  0.10500067088E+04  0.10500067088E+04  0.00000000000E+00 0.  1.
         22   -1    0    0    0    0 -0.00000000000E+00 -0.00000000000E+00 -0.37919054039E+03  0.37919054039E+03  0.00000000000E+00 0.  1.
         24    2    1    2    0    0  0.75599392903E+02  0.68808953992E+02 -0.32015245278E+03  0.34611672486E+03  0.82760219005E+02 0.  0.
         25    2    1    2    0    0 -0.85159222406E+02 -0.38657450532E+02  0.94814705023E+02  0.18271041413E+03  0.12508707167E+03 0.  0.
        -24    2    1    2    0    0  0.95598295022E+01 -0.30151503460E+02  0.89615391616E+03  0.90037011019E+03  0.81080147836E+02 0.  0.
        -11    1    3    3    0    0  0.90294083217E+02  0.46850998533E+02 -0.28132952642E+03  0.29915604618E+03  0.00000000000E+00 0.  1.
         12    1    3    3    0    0 -0.14694690314E+02  0.21957955459E+02 -0.38822926361E+02  0.46960678685E+02  0.00000000000E+00 0. -1.
         11    1    5    5    0    0 -0.98911813605E+01 -0.81798915370E+01  0.20252454717E+02  0.23977239547E+02  0.00000000000E+00 0. -1.
        -12    1    5    5    0    0  0.19451010863E+02 -0.21971611923E+02  0.87590146144E+03  0.87639287064E+03  0.00000000000E+00 0.  1.
          5    1    4    4  501    0  0.15941883924E+02 -0.48568579236E+02  0.14953352341E+02  0.53424017991E+02  0.41800000000E+01 0.  1.
         -5    1    4    4    0  501 -0.10110110633E+03  0.99111287041E+01  0.79861352682E+02  0.12928639613E+03  0.41800000000E+01 0.  1.
</event>
<event>
11    1  0.6930157E-009  0.1389847E+03  0.7561462E-02  0.1108698E+00
         22   -1    0    0    0    0  0.00000000000E+00  0.00000000000E+00  0.40374036288E+03  0.40374036288E+03  0.00000000000E+00 0.  1.
         22   -1    0    0    0    0 -0.00000000000E+00 -0.00000000000E+00 -0.24369939962E+03  0.24369939962E+03  0.00000000000E+00 0. -1.
         24    2    1    2    0    0  0.40720862913E+01 -0.29904073567E+02 -0.18022695925E+03  0.19864363610E+03  0.77889035288E+02 0.  0.
         25    2    1    2    0    0 -0.62134916665E+02  0.38741827548E+02  0.74204724848E+02  0.16285380619E+03  0.12511332435E+03 0.  0.
        -24    2    1    2    0    0  0.58062830374E+02 -0.88377539812E+01  0.26606319766E+03  0.28594232021E+03  0.86740919834E+02 0.  0.
        -13    1    3    3    0    0  0.29878411050E+02 -0.49555740432E+01 -0.24855829731E+02  0.39180217363E+02  0.00000000000E+00 0.  1.
         14    1    3    3    0    0 -0.25806324758E+02 -0.24948499523E+02 -0.15537112952E+03  0.15946341874E+03  0.00000000000E+00 0. -1.
         13    1    5    5    0    0  0.30759344579E+01 -0.40957374187E+02  0.10476719815E+03  0.11253058998E+03  0.00000000000E+00 0. -1.
        -14    1    5    5    0    0  0.54986895916E+02  0.32119620206E+02  0.16129599951E+03  0.17341173023E+03  0.00000000000E+00 0.  1.
          5    1    4    4  501    0 -0.11066754294E+02 -0.52731932642E+01  0.92075241498E+02  0.92981730005E+02  0.41800000000E+01 0. -1.
         -5    1    4    4    0  501 -0.51068162371E+02  0.44015020812E+02 -0.17870516650E+02  0.69872076185E+02  0.41800000000E+01 0. -1.
</event>
<event>
11    1  0.6930157E-009  0.1803591E+03  0.7561462E-02  0.1069353E+00
         22   -1    0    0    0    0  0.00000000000E+00  0.00000000000E+00  0.84998886448E+03  0.84998886448E+03  0.00000000000E+00 0.  1.
         22   -1    0    0    0    0 -0.00000000000E+00 -0.00000000000E+00 -0.30446583200E+03  0.30446583200E+03  0.00000000000E+00 0.  1.
         24    2    1    2    0    0  0.70539965346E+01 -0.49171719653E+02 -0.24923377668E+03  0.26539473389E+03  0.76480536474E+02 0.  0.
         25    2    1    2    0    0  0.66385298362E+02 -0.68834766132E+02  0.12679046428E+03  0.20216281272E+03  0.12509495653E+03 0.  0.
        -24    2    1    2    0    0 -0.73439294897E+02  0.11800648578E+03  0.66796634487E+03  0.68689714986E+03  0.79560014335E+02 0.  0.
        -13    1    3    3    0    0  0.23466513173E+01 -0.89954947340E+01 -0.20591897480E+03  0.20612872163E+03  0.00000000000E+00 0.  1.
         14    1    3    3    0    0  0.47073452172E+01 -0.40176224919E+02 -0.43314801878E+02  0.59266012262E+02  0.00000000000E+00 0. -1.
         13    1    5    5    0    0  0.64316192132E+01  0.45454295078E+02  0.12158628492E+03  0.12996416178E+03  0.00000000000E+00 0. -1.
        -14    1    5    5    0    0 -0.79870914110E+02  0.72552190707E+02  0.54638005995E+03  0.55693298808E+03  0.00000000000E+00 0.  1.
          5    1    4    4  501    0  0.19528348077E+02  0.52372133381E+01  0.11112600759E+03  0.11302763709E+03  0.41800000000E+01 0.  1.
         -5    1    4    4    0  501  0.46856950286E+02 -0.74071979470E+02  0.15664456690E+02  0.89135175638E+02  0.41800000000E+01 0.  1.
</event>
<event>
11    1  0.6930157E-009  0.1796229E+03  0.7561462E-02  0.1069948E+00
         22   -1    0    0    0    0  0.00000000000E+00  0.00000000000E+00  0.65817912941E+03  0.65817912941E+03  0.00000000000E+00 0. -1.
         22   -1    0    0    0    0 -0.00000000000E+00 -0.00000000000E+00 -0.35286089460E+03  0.35286089460E+03  0.00000000000E+00 0.  1.
         24    2    1    2    0    0  0.63497370125E+02  0.10702466149E+03 -0.27749215846E+03  0.31433492979E+03  0.79488086520E+02 0.  0.
         25    2    1    2    0    0 -0.91688133970E+02 -0.19377364575E+03  0.30457532065E+03  0.39289570421E+03  0.12508384683E+03 0.  0.
        -24    2    1    2    0    0  0.28190763845E+02  0.86748984265E+02  0.27823507262E+03  0.30380939000E+03  0.81026442473E+02 0.  0.
        -13    1    3    3    0    0  0.39221522227E+02  0.76210272522E+01 -0.12039572077E+03  0.12685242387E+03  0.00000000000E+00 0.  1.
         14    1    3    3    0    0  0.24275847898E+02  0.99403634234E+02 -0.15709643770E+03  0.18748250592E+03  0.00000000000E+00 0. -1.
         13    1    5    5    0    0 -0.11181787427E+02  0.75619552455E+02  0.21781532611E+03  0.23083947967E+03  0.00000000000E+00 0. -1.
        -14    1    5    5    0    0  0.39372551272E+02  0.11129431811E+02  0.60419746504E+02  0.72969910331E+02  0.00000000000E+00 0.  1.
          5    1    4    4  501    0  0.24569431365E+02 -0.84748124462E+02  0.97758946671E+02  0.13175805710E+03  0.41800000000E+01 0.  1.
         -5    1    4    4    0  501 -0.11625756534E+03 -0.10902552129E+03  0.20681637398E+03  0.26113764711E+03  0.41800000000E+01 0.  1.
</event>
<event>
11    1  0.6930157E-009  0.1757729E+03  0.7561462E-02  0.1073114E+00
         22   -1    0    0    0    0  0.00000000000E+00  0.00000000000E+00  0.42521341560E+03  0.42521341560E+03  0.00000000000E+00 0.  1.
         22   -1    0    0    0    0 -0.00000000000E+00 -0.00000000000E+00 -0.79296699597E+03  0.79296699597E+03  0.00000000000E+00 0. -1.
         24    2    1    2    0    0 -0.12367104056E+03  0.40323516809E+00 -0.62497512720E+03  0.64221919835E+03  0.80974688927E+02 0.  0.
         25    2    1    2    0    0  0.11956653199E+03 -0.68118725354E+02 -0.94795703364E+02  0.20873595173E+03  0.12509258911E+03 0.  0.
        -24    2    1    2    0    0  0.41045085661E+01  0.67715490186E+02  0.35201725019E+03  0.36722526149E+03  0.79599080642E+02 0.  0.
        -11    1    3    3    0    0 -0.13198829405E+02  0.91862412859E+00 -0.80638769208E+01  0.15494485437E+02  0.00000000000E+00 0.  1.
         12    1    3    3    0    0 -0.11047221115E+03 -0.51538896050E+00 -0.61691125027E+03  0.62672471291E+03  0.00000000000E+00 0. -1.
         11    1    5    5    0    0 -0.20658933447E+01  0.45716047987E+01 -0.34834899015E+01  0.61075516896E+01  0.00000000000E+00 0. -1.
        -12    1    5    5    0    0  0.61704019108E+01  0.63143885388E+02  0.35550074010E+03  0.36111770980E+03  0.00000000000E+00 0.  1.
          5    1    4    4  501    0  0.55260153171E+02  0.12927224360E+02  0.13938695850E+02  0.58588030348E+02  0.41800000000E+01 0.  1.
         -5    1    4    4    0  501  0.64306378819E+02 -0.81045949715E+02 -0.10873439921E+03  0.15014792138E+03  0.41800000000E+01 0.  1.
</event>
<event>
11    1  0.6930157E-009  0.1481666E+03  0.7561462E-02  0.1098767E+00
         22   -1    0    0    0    0  0.00000000000E+00  0.00000000000E+00  0.14471545516E+04  0.14471545516E+04  0.00000000000E+00 0. -1.
         22   -1    0    0    0    0 -0.00000000000E+00 -0.00000000000E+00 -0.72449430009E+03  0.72449430009E+03  0.00000000000E+00 0. -1.
        -24    2    1    2    0    0 -0.89017387661E+00  0.32152971218E+02 -0.69470847915E+03  0.69999352469E+03  0.79601869580E+02 0.  0.
         25    2    1    2    0    0 -0.27211306461E+02  0.45161438668E+02  0.16261804330E+03  0.21182848233E+03  0.12508663869E+03 0.  0.
         24    2    1    2    0    0  0.28101480337E+02 -0.77314409886E+02  0.12547506874E+04  0.12598268447E+04  0.77441461323E+02 0.  0.
        -11    1    5    5    0    0  0.60356685832E-01  0.98488170079E+01  0.28334855348E+02  0.29997781035E+02  0.00000000000E+00 0.  1.
         12    1    5    5    0    0  0.28041123652E+02 -0.87163226894E+02  0.12264158321E+04  0.12298290637E+04  0.00000000000E+00 0. -1.
         11    1    3    3    0    0  0.18143244988E+02  0.45102804120E+02 -0.61789388576E+03  0.61980343201E+03  0.00000000000E+00 0. -1.
        -12    1    3    3    0    0 -0.19033418865E+02 -0.12949832902E+02 -0.76814593388E+02  0.80190092676E+02  0.00000000000E+00 0.  1.
          5    1    4    4  501    0 -0.13594179944E+02  0.34449272642E+02  0.18183719331E+03  0.18561732512E+03  0.41800000000E+01 0.  1.
         -5    1    4    4    0  501 -0.13617126516E+02  0.10712166026E+02 -0.19219150008E+02  0.26211157215E+02  0.41800000000E+01 0.  1.
</event>
<event>
11    1  0.6930157E-009  0.1449809E+03  0.7561462E-02  0.1102120E+00
         22   -1    0    0    0    0  0.00000000000E+00  0.00000000000E+00  0.49472349620E+03  0.49472349620E+03  0.00000000000E+00 0.  1.
         22   -1    0    0    0    0 -0.00000000000E+00 -0.00000000000E+00 -0.17585983893E+04  0.17585983893E+04  0.00000000000E+00 0.  1.
         24    2    1    2    0    0 -0.13144523097E+02  0.41578257369E+02 -0.17169347334E+04  0.17194219339E+04  0.81519188639E+02 0.  0.
         25    2    1    2    0    0  0.45582582973E+02 -0.95935436125E+02  0.18665088827E+03  0.24853117266E+03  0.12509120640E+03 0.  0.
        -24    2    1    2    0    0 -0.32438059876E+02  0.54357178756E+02  0.26640895210E+03  0.28536877885E+03  0.80341020485E+02 0.  0.
        -13    1    3    3    0    0 -0.21036272323E+02  0.60111134419E+02 -0.15448742371E+04  0.15461863670E+04  0.00000000000E+00 0.  1.
         14    1    3    3    0    0  0.78917492257E+01 -0.18532877049E+02 -0.17206049637E+03  0.17323556692E+03  0.00000000000E+00 0. -1.
         13    1    5    5    0    0 -0.57697678484E+02  0.50362126826E+02  0.19350218427E+03  0.20810685053E+03  0.00000000000E+00 0. -1.
        -14    1    5    5    0    0  0.25259618608E+02  0.39950519303E+01  0.72906767831E+02  0.77261928320E+02  0.00000000000E+00 0.  1.
          5    1    4    4  501    0 -0.75749054766E+01 -0.57430500828E+02  0.85884905328E+01  0.58710102947E+02  0.41800000000E+01 0. -1.
         -5    1    4    4    0  501  0.53157488450E+02 -0.38504935297E+02  0.17806239773E+03  0.18982106971E+03  0.41800000000E+01 0. -1.
</event>
<event>
11    1  0.1797537E-008  0.2184565E+03  0.7561462E-02  0.1042189E+00
         22   -1    0    0    0    0  0.00000000000E+00  0.00000000000E+00  0.62280765694E+03  0.62280765694E+03  0.00000000000E+00 0. -1.
         22   -1    0    0    0    0 -0.00000000000E+00 -0.00000000000E+00 -0.20124825391E+04  0.20124825391E+04  0.00000000000E+00 0. -1.
         24    2    1    2    0    0  0.56056819284E+02 -0.30583711546E+02 -0.16442556530E+04  0.16475305470E+04  0.81868923476E+02 0.  0.
         25    2    1    2    0    0  0.12239447374E+03 -0.43193234227E+01 -0.32823156921E+03  0.37199736392E+03  0.12508801695E+03 0.  0.
        -24    2    1    2    0    0 -0.17845129302E+03  0.34903034968E+02  0.58281234003E+03  0.61576228509E+03  0.80186546359E+02 0.  0.
        -13    1    3    3    0    0  0.29298212940E+02 -0.23215516481E+02 -0.23120754297E+03  0.23420989179E+03  0.00000000000E+00 0.  1.
         14    1    3    3    0    0  0.26758606344E+02 -0.73681950647E+01 -0.14130481100E+04  0.14133206552E+04  0.00000000000E+00 0. -1.
         11    1    5    5    0    0 -0.75613854533E+02 -0.63102039155E+01  0.13932856246E+03  0.15864968323E+03  0.00000000000E+00 0. -1.
        -12    1    5    5    0    0 -0.10283743849E+03  0.41213238884E+02  0.44348377757E+03  0.45711260187E+03  0.00000000000E+00 0.  1.
          5    1    4    4  501    0  0.19778991221E+02 -0.39891061409E+01  0.67048335128E+01  0.21669071369E+02  0.41800000000E+01 0.  1.
         -5    1    4    4    0  501  0.10261548251E+03 -0.33021728176E+00 -0.33493640272E+03  0.35032829255E+03  0.41800000000E+01 0.  1.
</event>
<event>
11    1  0.6930157E-009  0.1485462E+03  0.7561462E-02  0.1098374E+00
         22   -1    0    0    0    0  0.00000000000E+00  0.00000000000E+00  0.25566014926E+03  0.25566014926E+03  0.00000000000E+00 0.  1.
         22   -1    0    0    0    0 -0.00000000000E+00 -0.00000000000E+00 -0.12829958115E+04  0.12829958115E+04  0.00000000000E+00 0.  1.
         24    2    1    2    0    0 -0.29497403886E+02 -0.75876907033E+02 -0.11478386519E+04  0.11535781471E+04  0.81126867956E+02 0.  0.
         25    2    1    2    0    0 -0.39413944266E+02  0.76371594604E+02 -0.70602836566E+02  0.16738551892E+03  0.12508825663E+03 0.  0.
        -24    2    1    2    0    0  0.68911348153E+02 -0.49468757168E+00  0.19110582630E+03  0.21769229472E+03  0.78227103445E+02 0.  0.
        -13    1    3    3    0    0 -0.56735734990E+02 -0.62033486037E+02 -0.80295410567E+03  0.80734279759E+03  0.00000000000E+00 0.  1.
         14    1    3    3    0    0  0.27238331104E+02 -0.13843420996E+02 -0.34488454626E+03  0.34623534949E+03  0.00000000000E+00 0. -1.
         13    1    5    5    0    0  0.12583274738E+02  0.20166913308E+02  0.81166682198E+01  0.25118190590E+02  0.00000000000E+00 0. -1.
        -14    1    5    5    0    0  0.56328073415E+02 -0.20661600880E+02  0.18298915808E+03  0.19257410413E+03  0.00000000000E+00 0.  1.
          5    1    4    4  501    0 -0.54868672889E+02  0.20078797308E+02 -0.88549299378E+02  0.10617052409E+03  0.41800000000E+01 0.  1.
         -5    1    4    4    0  501  0.15454728622E+02  0.56292797296E+02  0.17946462812E+02  0.61214994827E+02  0.41800000000E+01 0.  1.
</event>
<event>
11    1  0.6930157E-009  0.1651884E+03  0.7561462E-02  0.1082296E+00
         22   -1    0    0    0    0  0.00000000000E+00  0.00000000000E+00  0.39558029260E+03  0.39558029260E+03  0.00000000000E+00 0. -1.
         22   -1    0    0    0    0 -0.00000000000E+00 -0.00000000000E+00 -0.13028943063E+04  0.13028943063E+04  0.00000000000E+00 0.  1.
         24    2    1    2    0    0 -0.35966892749E+01 -0.24017286970E+02 -0.11712049740E+04  0.11742098114E+04  0.80360585694E+02 0.  0.
         25    2    1    2    0    0  0.85991377246E+02 -0.47691830473E+02 -0.62295491128E+02  0.17087255294E+03  0.12509066104E+03 0.  0.
        -24    2    1    2    0    0 -0.82394687971E+02  0.71709117442E+02  0.32618645140E+03  0.35339223463E+03  0.80977702419E+02 0.  0.
        -11    1    3    3    0    0 -0.97692982839E+00  0.16731927207E+01 -0.10616761274E+04  0.10616778953E+04  0.00000000000E+00 0.  1.
         12    1    3    3    0    0 -0.26197594465E+01 -0.25690479690E+02 -0.10952884663E+03  0.11253191606E+03  0.00000000000E+00 0. -1.
         13    1    5    5    0    0  0.10895527625E+01 -0.14624475387E+02  0.52618298516E+02  0.54623692152E+02  0.00000000000E+00 0. -1.
        -14    1    5    5    0    0 -0.83484240734E+02  0.86333592830E+02  0.27356815288E+03  0.29876854248E+03  0.00000000000E+00 0.  1.
          5    1    4    4  501    0 -0.49730615846E+01  0.18671140486E+02  0.22427979152E+02  0.29896981075E+02  0.41800000000E+01 0. -1.
         -5    1    4    4    0  501  0.90964438831E+02 -0.66362970959E+02 -0.84723470280E+02  0.14097557187E+03  0.41800000000E+01 0. -1.
</event>
<event>
11    1  0.6930157E-009  0.1297904E+03  0.7561462E-02  0.1119527E+00
         22   -1    0    0    0    0  0.00000000000E+00  0.00000000000E+00  0.37447888038E+03  0.37447888038E+03  0.00000000000E+00 0.  1.
         22   -1    0    0    0    0 -0.00000000000E+00 -0.00000000000E+00 -0.45813775574E+03  0.45813775574E+03  0.00000000000E+00 0. -1.
         24    2    1    2    0    0 -0.36620924942E+02 -0.18404858046E+02 -0.26271147607E+03  0.27768640407E+03  0.80078638850E+02 0.  0.
         25    2    1    2    0    0  0.21726313978E+02 -0.11677460082E+02 -0.15998867317E+03  0.20457743167E+03  0.12508858547E+03 0.  0.
        -24    2    1    2    0    0  0.14894610964E+02  0.30082318128E+02  0.33904127388E+03  0.35035280039E+03  0.81678051171E+02 0.  0.
        -11    1    3    3    0    0  0.18492671429E+02 -0.25858638935E+02 -0.65890982992E+02  0.73159208196E+02  0.00000000000E+00 0.  1.
         12    1    3    3    0    0 -0.55113596371E+02  0.74537808889E+01 -0.19682049308E+03  0.20452719587E+03  0.00000000000E+00 0. -1.
         13    1    5    5    0    0  0.20535697574E+02 -0.14041985131E+02  0.34244302315E+02  0.42326876359E+02  0.00000000000E+00 0. -1.
        -14    1    5    5    0    0 -0.56410866097E+01  0.44124303259E+02  0.30479697157E+03  0.30802592403E+03  0.00000000000E+00 0.  1.
          5    1    4    4  501    0  0.57942113412E+01 -0.26727483240E+02  0.12708329539E+02  0.30445119233E+02  0.41800000000E+01 0.  1.
         -5    1    4    4    0  501  0.15932102637E+02  0.15050023158E+02 -0.17269700271E+03  0.17413231244E+03  0.41800000000E+01 0.  1.
</event>
<event>
11    1  0.6930157E-009  0.1347570E+03  0.7561462E-02  0.1113559E+00
         22   -1    0    0    0    0  0.00000000000E+00  0.00000000000E+00  0.80643075434E+03  0.80643075434E+03  0.00000000000E+00 0.  1.
         22   -1    0    0    0    0 -0.00000000000E+00 -0.00000000000E+00 -0.20973979787E+04  0.20973979787E+04  0.00000000000E+00 0.  1.
        -24    2    1    2    0    0 -0.50036091575E+02 -0.29223905630E+01 -0.20784131733E+04  0.20805646467E+04  0.80223308259E+02 0.  0.
         25    2    1    2    0    0  0.51411533436E+02 -0.21767206119E+02  0.31963646780E+03  0.34775240723E+03  0.12508920079E+03 0.  0.
         24    2    1    2    0    0 -0.13754418612E+01  0.24689596682E+02  0.46780948111E+03  0.47551167916E+03  0.81573147402E+02 0.  0.
        -13    1    5    5    0    0  0.22735768179E+02  0.26514027333E+02  0.42429599546E+03  0.42573113647E+03  0.00000000000E+00 0.  1.
         14    1    5    5    0    0 -0.24111210040E+02 -0.18244306503E+01  0.43513485654E+02  0.49780542691E+02  0.00000000000E+00 0. -1.
         13    1    3    3    0    0 -0.11601680461E+02 -0.19663447095E+02 -0.15289859944E+03  0.15459376395E+03  0.00000000000E+00 0. -1.
        -14    1    3    3    0    0 -0.38434411113E+02  0.16741056532E+02 -0.19255145739E+04  0.19259708827E+04  0.00000000000E+00 0.  1.
          5    1    4    4  501    0  0.87939938873E+01  0.11780963091E+02 -0.68616965643E+01  0.16753527974E+02  0.41800000000E+01 0. -1.
         -5    1    4    4    0  501  0.42617539548E+02 -0.33548169210E+02  0.32649816437E+03  0.33099887926E+03  0.41800000000E+01 0. -1.
</event>
<event>
11    1  0.6930157E-009  0.1953717E+03  0.7561462E-02  0.1057846E+00
         22   -1    0    0    0    0  0.00000000000E+00  0.00000000000E+00  0.50594734492E+04  0.50594734492E+04  0.00000000000E+00 0.  1.
         22   -1    0    0    0    0 -0.00000000000E+00 -0.00000000000E+00 -0.68017905998E+03  0.68017905998E+03  0.00000000000E+00 0.  1.
        -24    2    1    2    0    0 -0.88383199772E+02 -0.12128816499E+03 -0.66085560652E+03  0.68597083884E+03  0.10631768480E+03 0.  0.
         25    2    1    2    0    0  0.11868505115E+03  0.99356276218E+02  0.15901466591E+04  0.16025515648E+04  0.12508920491E+03 0.  0.
         24    2    1    2    0    0 -0.30301851379E+02  0.21931888774E+02  0.34500033366E+04  0.34511301056E+04  0.79854699839E+02 0.  0.
        -11    1    5    5    0    0 -0.46965756945E+02 -0.13605469281E+02  0.19615700867E+04  0.19621794251E+04  0.00000000000E+00 0.  1.
         12    1    5    5    0    0  0.16663905565E+02  0.35537358055E+02  0.14884332499E+04  0.14889506805E+04  0.00000000000E+00 0. -1.
         11    1    3    3    0    0 -0.43800615269E+02  0.74578002033E+01 -0.11283625164E+03  0.12126884335E+03  0.00000000000E+00 0. -1.
        -12    1    3    3    0    0 -0.44582584503E+02 -0.12874596520E+03 -0.54801935488E+03  0.56470199549E+03  0.00000000000E+00 0.  1.
          5    1    4    4  501    0  0.36712323234E+02  0.10230481409E+03  0.11214820147E+04  0.11267446256E+04  0.41800000000E+01 0.  1.
         -5    1    4    4    0  501  0.81972727918E+02 -0.29485378711E+01  0.46866464442E+03  0.47580693913E+03  0.41800000000E+01 0.  1.
</event>
<event>
11    1  0.6930157E-009  0.2509326E+03  0.7561462E-02  0.1023404E+00
         22   -1    0    0    0    0  0.00000000000E+00  0.00000000000E+00  0.12560282187E+04  0.12560282187E+04  0.00000000000E+00 0. -1.
         22   -1    0    0    0    0 -0.00000000000E+00 -0.00000000000E+00 -0.74425480756E+03  0.74425480756E+03  0.00000000000E+00 0. -1.
        -24    2    1    2    0    0 -0.13794733814E+03 -0.17214305465E+03 -0.62739137769E+03  0.67003351314E+03  0.81622720904E+02 0.  0.
         25    2    1    2    0    0  0.13551906009E+03  0.14329010209E+03  0.51360880893E+02  0.23913057291E+03  0.12509205335E+03 0.  0.
         24    2    1    2    0    0  0.24282780534E+01  0.28852952557E+02  0.10878039079E+04  0.10911189402E+04  0.79905007016E+02 0.  0.
        -13    1    5    5    0    0  0.25981952933E+02 -0.72224880363E+01  0.15557044989E+03  0.15789044015E+03  0.00000000000E+00 0.  1.
         14    1    5    5    0    0 -0.23553674879E+02  0.36075440593E+02  0.93223345802E+03  0.93322850003E+03  0.00000000000E+00 0. -1.
         11    1    3    3    0    0 -0.37180682504E+02 -0.34715908096E+02 -0.26153345820E+03  0.26643450825E+03  0.00000000000E+00 0. -1.
        -12    1    3    3    0    0 -0.10076665564E+03 -0.13742714655E+03 -0.36585791949E+03  0.40359900489E+03  0.00000000000E+00 0.  1.
          5    1    4    4  501    0 -0.10083512454E+02  0.20621110515E+02 -0.24782692321E+02  0.34037650638E+02  0.41800000000E+01 0.  1.
         -5    1    4    4    0  501  0.14560257254E+03  0.12266899158E+03  0.76143573214E+02  0.20509292228E+03  0.41800000000E+01 0.  1.
</event>
<event>
11    1  0.6930157E-009  0.1519718E+03  0.7561462E-02  0.1094881E+00
         22   -1    0    0    0    0  0.00000000000E+00  0.00000000000E+00  0.23316995093E+03  0.23316995093E+03  0.00000000000E+00 0.  1.
         22   -1    0    0    0    0 -0.00000000000E+00 -0.00000000000E+00 -0.11079197843E+04  0.11079197843E+04  0.00000000000E+00 0. -1.
         24    2    1    2    0    0  0.36217536734E+01 -0.77160851513E+02 -0.58463981610E+03  0.59532983389E+03  0.81529028237E+02 0.  0.
         25    2    1    2    0    0  0.34304913718E+02  0.10966182670E+03 -0.49279801624E+03  0.52124851190E+03  0.12509029944E+03 0.  0.
        -24    2    1    2    0    0 -0.37926667391E+02 -0.32500975182E+02  0.20268799899E+03  0.22451138942E+03  0.82632884233E+02 0.  0.
        -13    1    3    3    0    0 -0.21531010290E+02 -0.38204446802E+02 -0.10983743796E+03  0.11826845284E+03  0.00000000000E+00 0.  1.
         14    1    3    3    0    0  0.25152763964E+02 -0.38956404711E+02 -0.47480237814E+03  0.47706138105E+03  0.00000000000E+00 0. -1.
         13    1    5    5    0    0 -0.48292748270E+02  0.91921763269E+01  0.73995649815E+02  0.88837164704E+02  0.00000000000E+00 0. -1.
        -14    1    5    5    0    0  0.10366080879E+02 -0.41693151509E+02  0.12869234917E+03  0.13567422471E+03  0.00000000000E+00 0.  1.
          5    1    4    4  501    0  0.52817292644E+02  0.94583285211E+01 -0.28183180321E+03  0.28692466621E+03  0.41800000000E+01 0. -1.
         -5    1    4    4    0  501 -0.18512378926E+02  0.10020349817E+03 -0.21096621303E+03  0.23432384569E+03  0.41800000000E+01 0. -1.
</event>
<event>
11    1  0.6930157E-009  0.1350248E+03  0.7561462E-02  0.1113245E+00
         22   -1    0    0    0    0  0.00000000000E+00  0.00000000000E+00  0.57765174481E+02  0.57765174481E+02  0.00000000000E+00 0.  1.
         22   -1    0    0    0    0 -0.00000000000E+00 -0.00000000000E+00 -0.22074759083E+04  0.22074759083E+04  0.00000000000E+00 0.  1.
         24    2    1    2    0    0 -0.51103948621E+02  0.11796968657E+02 -0.18644307252E+04  0.18669069891E+04  0.80554299080E+02 0.  0.
         25    2    1    2    0    0  0.29369401466E+02  0.39251227019E+02 -0.26901015708E+03  0.30069510138E+03  0.12509140185E+03 0.  0.
        -24    2    1    2    0    0  0.21734547155E+02 -0.51048195676E+02 -0.16269851612E+02  0.97638992305E+02  0.78678814970E+02 0.  0.
        -11    1    3    3    0    0 -0.29809650470E+02  0.17298411467E+02 -0.17523430047E+04  0.17526819040E+04  0.00000000000E+00 0.  1.
         12    1    3    3    0    0 -0.21294298151E+02 -0.55014428096E+01 -0.11208772044E+03  0.11422508516E+03  0.00000000000E+00 0. -1.
         13    1    5    5    0    0  0.39394491887E+02 -0.85555864371E+00  0.61847691455E+01  0.39886204896E+02  0.00000000000E+00 0. -1.
        -14    1    5    5    0    0 -0.17659944732E+02 -0.50192637032E+02 -0.22454620758E+02  0.57752787410E+02  0.00000000000E+00 0.  1.
          5    1    4    4  501    0 -0.22816862882E+02  0.67664327038E+02 -0.17896792455E+03  0.19273313365E+03  0.41800000000E+01 0.  1.
         -5    1    4    4    0  501  0.52186264348E+02 -0.28413100019E+02 -0.90042232523E+02  0.10796196773E+03  0.41800000000E+01 0.  1.
</event>
<event>
11    1  0.6930157E-009  0.1866410E+03  0.7561462E-02  0.1064394E+00
         22   -1    0    0    0    0  0.00000000000E+00  0.00000000000E+00  0.24535160808E+04  0.24535160808E+04  0.00000000000E+00 0.  1.
         22   -1    0    0    0    0 -0.00000000000E+00 -0.00000000000E+00 -0.66310985401E+02  0.66310985401E+02  0.00000000000E+00 0. -1.
        -24    2    1    2    0    0  0.92162467815E+02 -0.86088431081E+02  0.86843212600E+02  0.17275207766E+03  0.79977486340E+02 0.  0.
         25    2    1    2    0    0 -0.15109227075E+03  0.13180403641E+03  0.62629100244E+03  0.66939489973E+03  0.12509170138E+03 0.  0.
         24    2    1    2    0    0  0.58929802939E+02 -0.45715605334E+02  0.16740708804E+04  0.16776800888E+04  0.80836437757E+02 0.  0.
        -13    1    5    5    0    0  0.67210682760E+02 -0.25050561138E+02  0.76960607553E+03  0.77294134188E+03  0.00000000000E+00 0.  1.
         14    1    5    5    0    0 -0.82808798209E+01 -0.20665044196E+02  0.90446480485E+03  0.90473874695E+03  0.00000000000E+00 0. -1.
         13    1    3    3    0    0  0.90703015007E+02 -0.39665939442E+02  0.39959257923E+02  0.10675751017E+03  0.00000000000E+00 0. -1.
        -14    1    3    3    0    0  0.14594528078E+01 -0.46422491639E+02  0.46883954677E+02  0.65994567493E+02  0.00000000000E+00 0.  1.
          5    1    4    4  501    0 -0.55375698760E+02  0.21675024629E+01  0.30401026669E+03  0.30904834692E+03  0.41800000000E+01 0.  1.
         -5    1    4    4    0  501 -0.95716571994E+02  0.12963653395E+03  0.32228073574E+03  0.36034655281E+03  0.41800000000E+01 0.  1.
</event>
<event>
11    1  0.6930157E-009  0.1812280E+03  0.7561462E-02  0.1068654E+00
         22   -1    0    0    0    0  0.00000000000E+00  0.00000000000E+00  0.28319150693E+03  0.28319150693E+03  0.00000000000E+00 0. -1.
         22   -1    0    0    0    0 -0.00000000000E+00 -0.00000000000E+00 -0.65352200573E+03  0.65352200573E+03  0.00000000000E+00 0.  1.
        -24    2    1    2    0    0 -0.13751718110E+03  0.17886253846E+02 -0.56662645046E+03  0.58891000625E+03  0.80737648798E+02 0.  0.
         25    2    1    2    0    0  0.61050847882E+02 -0.46695515856E+02  0.37561688371E+02  0.15154338890E+03  0.12508733373E+03 0.  0.
         24    2    1    2    0    0  0.76466333220E+02  0.28809262010E+02  0.15873426328E+03  0.19626011750E+03  0.81513150416E+02 0.  0.
        -11    1    5    5    0    0  0.30033705233E+01 -0.23914154370E+02  0.24146429589E+02  0.34116815144E+02  0.00000000000E+00 0.  1.
         12    1    5    5    0    0  0.73462962697E+02  0.52723416379E+02  0.13458783369E+03  0.16214330236E+03  0.00000000000E+00 0. -1.
         13    1    3    3    0    0 -0.10079556244E+02  0.14897381753E+02 -0.17190310505E+02  0.24880438349E+02  0.00000000000E+00 0. -1.
        -14    1    3    3    0    0 -0.12743762486E+03  0.29888720929E+01 -0.54943613995E+03  0.56402956790E+03  0.00000000000E+00 0.  1.
          5    1    4    4  501    0  0.44373715925E+02 -0.88493312871E+02  0.38597081902E+02  0.10633578993E+03  0.41800000000E+01 0.  1.
         -5    1    4    4    0  501  0.16677131956E+02  0.41797797015E+02 -0.10353935304E+01  0.45207598978E+02  0.41800000000E+01 0.  1.
</event>
<event>
11    1  0.6930157E-009  0.2343775E+03  0.7561462E-02  0.1032567E+00
         22   -1    0    0    0    0  0.00000000000E+00  0.00000000000E+00  0.34564057535E+03  0.34564057535E+03  0.00000000000E+00 0. -1.
         22   -1    0    0    0    0 -0.00000000000E+00 -0.00000000000E+00 -0.28086061974E+04  0.28086061974E+04  0.00000000000E+00 0.  1.
         24    2    1    2    0    0  0.88850516729E+02  0.11573466019E+03 -0.26400299763E+04  0.26452739161E+04  0.80167885422E+02 0.  0.
         25    2    1    2    0    0  0.11603196704E+03 -0.17217496122E+03  0.44565586206E+02  0.24645834977E+03  0.12509193441E+03 0.  0.
        -24    2    1    2    0    0 -0.20488248377E+03  0.56440301036E+02  0.13249876801E+03  0.26251450685E+03  0.78712153118E+02 0.  0.
        -11    1    3    3    0    0  0.71320793624E+02  0.33149274333E+02 -0.15412041698E+04  0.15432095849E+04  0.00000000000E+00 0.  1.
         12    1    3    3    0    0  0.17529723105E+02  0.82585385853E+02 -0.10988258065E+04  0.11020643312E+04  0.00000000000E+00 0. -1.
         11    1    5    5    0    0 -0.14546252834E+03  0.23111427481E+02  0.12644344409E+03  0.19411705176E+03  0.00000000000E+00 0. -1.
        -12    1    5    5    0    0 -0.59419955423E+02  0.33328873554E+02  0.60553239208E+01  0.68397455089E+02  0.00000000000E+00 0.  1.
          5    1    4    4  501    0  0.90591393950E+02 -0.78478914350E+02  0.78714533883E+02  0.14345449069E+03  0.41800000000E+01 0.  1.
         -5    1    4    4    0  501  0.25440573086E+02 -0.93696046872E+02 -0.34148947676E+02  0.10300385908E+03  0.41800000000E+01 0.  1.
</event>
<event>
11    1  0.6930157E-009  0.1486991E+03  0.7561462E-02  0.1098215E+00
         22   -1    0    0    0    0  0.00000000000E+00  0.00000000000E+00  0.17303565247E+03  0.17303565247E+03  0.00000000000E+00 0.  1.
         22   -1    0    0    0    0 -0.00000000000E+00 -0.00000000000E+00 -0.93666046630E+03  0.93666046630E+03  0.00000000000E+00 0.  1.
        -24    2    1    2    0    0 -0.20472109974E+02  0.93610765195E+01 -0.25254813456E+03  0.26603958670E+03  0.80559073852E+02 0.  0.
         25    2    1    2    0    0 -0.57349301924E+02 -0.31567092445E+02 -0.64905048639E+03  0.66422768263E+03  0.12508579749E+03 0.  0.
         24    2    1    2    0    0  0.77821411898E+02  0.22206015926E+02  0.13797380711E+03  0.17942884945E+03  0.81293673006E+02 0.  0.
        -11    1    5    5    0    0 -0.51892409882E+01  0.25872538320E+02  0.59715944656E+02  0.65286373060E+02  0.00000000000E+00 0.  1.
         12    1    5    5    0    0  0.83010652886E+02 -0.36665223947E+01  0.78257862459E+02  0.11414247639E+03  0.00000000000E+00 0. -1.
         11    1    3    3    0    0 -0.48273492570E+02 -0.88144553892E+01 -0.12638326156E+03  0.13557563760E+03  0.00000000000E+00 0. -1.
        -12    1    3    3    0    0  0.27801382595E+02  0.18175531909E+02 -0.12616487300E+03  0.13046394909E+03  0.00000000000E+00 0.  1.
          5    1    4    4  501    0 -0.74808560320E+02 -0.77672368914E+01 -0.61225400502E+03  0.61687039946E+03  0.41800000000E+01 0. -1.
         -5    1    4    4    0  501  0.17459258396E+02 -0.23799855554E+02 -0.36796481367E+02  0.47357283169E+02  0.41800000000E+01 0. -1.
</event>
<event>
11    1  0.6930157E-009  0.1337968E+03  0.7561462E-02  0.1114690E+00
         22   -1    0    0    0    0  0.00000000000E+00  0.00000000000E+00  0.20526820790E+04  0.20526820790E+04  0.00000000000E+00 0. -1.
         22   -1    0    0    0    0 -0.00000000000E+00 -0.00000000000E+00 -0.97275082695E+03  0.97275082695E+03  0.00000000000E+00 0.  1.
        -24    2    1    2    0    0 -0.81942896206E+01 -0.10552737047E+02 -0.94894264465E+03  0.95253242737E+03  0.81531440046E+02 0.  0.
         25    2    1    2    0    0 -0.34836060780E+02  0.30936142582E+02  0.19211268300E+03  0.23393524391E+03  0.12509124400E+03 0.  0.
         24    2    1    2    0    0  0.43030350401E+02 -0.20383405534E+02  0.18367612137E+04  0.18389652346E+04  0.76382484469E+02 0.  0.
        -13    1    5    5    0    0  0.22520622912E+02 -0.33708329990E+02  0.41104579299E+03  0.41304003910E+03  0.00000000000E+00 0.  1.
         14    1    5    5    0    0  0.20509727488E+02  0.13324924456E+02  0.14257154207E+04  0.14259251955E+04  0.00000000000E+00 0. -1.
         11    1    3    3    0    0 -0.99827766925E+01 -0.12209652588E+02 -0.32882429395E+02  0.36468967763E+02  0.00000000000E+00 0. -1.
        -12    1    3    3    0    0  0.17884870719E+01  0.16569155402E+01 -0.91606021525E+03  0.91606345960E+03  0.00000000000E+00 0.  1.
          5    1    4    4  501    0 -0.75612646382E+02  0.25515035042E+02  0.74445381720E+02  0.10921481843E+03  0.41800000000E+01 0. -1.
         -5    1    4    4    0  501  0.40776585602E+02  0.54211075392E+01  0.11766730128E+03  0.12472042547E+03  0.41800000000E+01 0. -1.
</event>
<event>
11    1  0.6930157E-009  0.1514131E+03  0.7561462E-02  0.1095444E+00
         22   -1    0    0    0    0  0.00000000000E+00  0.00000000000E+00  0.23437107276E+04  0.23437107276E+04  0.00000000000E+00 0.  1.
         22   -1    0    0    0    0 -0.00000000000E+00 -0.00000000000E+00 -0.22764438835E+03  0.22764438835E+03  0.00000000000E+00 0.  1.
         24    2    1    2    0    0 -0.47844970235E+02 -0.69800985316E+02 -0.17999612979E+03  0.21457302427E+03  0.80508740380E+02 0.  0.
         25    2    1    2    0    0  0.33211983412E+02  0.90525820498E+02  0.18171781977E+03  0.24076402719E+03  0.12509192919E+03 0.  0.
        -24    2    1    2    0    0  0.14632986823E+02 -0.20724835182E+02  0.21143446493E+04  0.21160180645E+04  0.80221632273E+02 0.  0.
        -13    1    3    3    0    0 -0.60219873934E+02 -0.42716396741E+02 -0.16598245390E+03  0.18166259595E+03  0.00000000000E+00 0.  1.
         14    1    3    3    0    0  0.12374903699E+02 -0.27084588575E+02 -0.14013675889E+02  0.32910428313E+02  0.00000000000E+00 0. -1.
         11    1    5    5    0    0  0.42757333970E+01  0.93302742960E+01  0.36107998389E+02  0.37538293277E+02  0.00000000000E+00 0. -1.
        -12    1    5    5    0    0  0.10357253426E+02 -0.30055109478E+02  0.20782366509E+04  0.20784797712E+04  0.00000000000E+00 0.  1.
          5    1    4    4  501    0 -0.68242821055E+01  0.66268084871E+02  0.18190553283E+03  0.19376564498E+03  0.41800000000E+01 0. -1.
         -5    1    4    4    0  501  0.40036265518E+02  0.24257735626E+02 -0.18771306558E+00  0.46998382212E+02  0.41800000000E+01 0. -1.
</event>
<event>
11    1  0.6930157E-009  0.3967568E+03  0.7561462E-02  0.9659376E-01
         22   -1    0    0    0    0  0.00000000000E+00  0.00000000000E+00  0.10406007211E+03  0.10406007211E+03  0.00000000000E+00 0.  1.
         22   -1    0    0    0    0 -0.00000000000E+00 -0.00000000000E+00 -0.19990758057E+04  0.19990758057E+04  0.00000000000E+00 0. -1.
         24    2    1    2    0    0 -0.28001180578E+03 -0.28511237895E+03 -0.78748426358E+03  0.88678418402E+03  0.80987922783E+02 0.  0.
         25    2    1    2    0    0  0.22609952145E+03  0.28142058852E+03 -0.10061776686E+04  0.10762721229E+04  0.12509852353E+03 0.  0.
        -24    2    1    2    0    0  0.53912284334E+02  0.36917904303E+01 -0.10135380142E+03  0.14007957085E+03  0.80184346281E+02 0.  0.
        -13    1    3    3    0    0 -0.23714583077E+03 -0.21968519577E+03 -0.56487768186E+03  0.65083525239E+03  0.00000000000E+00 0.  1.
         14    1    3    3    0    0 -0.42865975018E+02 -0.65427183184E+02 -0.22260658172E+03  0.23594893164E+03  0.00000000000E+00 0. -1.
         11    1    5    5    0    0  0.36781119384E+02 -0.31715889368E+02 -0.26027012272E+02  0.55101304425E+02  0.00000000000E+00 0. -1.
        -12    1    5    5    0    0  0.17131164950E+02  0.35407679798E+02 -0.75326789150E+02  0.84978266427E+02  0.00000000000E+00 0.  1.
          5    1    4    4  501    0  0.19030445441E+03  0.22127464204E+03 -0.63965845658E+03  0.70310644005E+03  0.41800000000E+01 0. -1.
         -5    1    4    4    0  501  0.35795067045E+02  0.60145946481E+02 -0.36651921202E+03  0.37316568288E+03  0.41800000000E+01 0. -1.
</event>
<event>
11    1  0.6930157E-009  0.1660589E+03  0.7561462E-02  0.1081513E+00
         22   -1    0    0    0    0  0.00000000000E+00  0.00000000000E+00  0.75844873917E+02  0.75844873917E+02  0.00000000000E+00 0.  1.
         22   -1    0    0    0    0 -0.00000000000E+00 -0.00000000000E+00 -0.30792862581E+04  0.30792862581E+04  0.00000000000E+00 0.  1.
         24    2    1    2    0    0  0.37373051473E+02 -0.50928997417E+02 -0.25768346612E+04  0.25788027001E+04  0.78460097893E+02 0.  0.
         25    2    1    2    0    0 -0.55714464604E+01  0.14878576717E+03 -0.39731579263E+03  0.44235161909E+03  0.12508745062E+03 0.  0.
        -24    2    1    2    0    0 -0.31801605012E+02 -0.97856769756E+02 -0.29290930320E+02  0.13397681283E+03  0.80650717971E+02 0.  0.
        -11    1    3    3    0    0  0.14927701653E+02 -0.62715709698E+02 -0.22723925065E+04  0.22733067985E+04  0.00000000000E+00 0.  1.
         12    1    3    3    0    0  0.22445349820E+02  0.11786712281E+02 -0.30444215469E+03  0.30549590155E+03  0.00000000000E+00 0. -1.
         13    1    5    5    0    0  0.30342248020E+01 -0.62028666415E+02 -0.50152705790E+02  0.79825158161E+02  0.00000000000E+00 0. -1.
        -14    1    5    5    0    0 -0.34835829814E+02 -0.35828103341E+02  0.20861775470E+02  0.54151654671E+02  0.00000000000E+00 0.  1.
          5    1    4    4  501    0 -0.55690728669E+02  0.12822563202E+03 -0.27548803893E+03  0.30895695810E+03  0.41800000000E+01 0.  1.
         -5    1    4    4    0  501  0.50119282208E+02  0.20560135155E+02 -0.12182775370E+03  0.13339466098E+03  0.41800000000E+01 0.  1.
</event>
<event>
11    1  0.6930157E-009  0.1438146E+03  0.7561462E-02  0.1103372E+00
         22   -1    0    0    0    0  0.00000000000E+00  0.00000000000E+00  0.11963043561E+04  0.11963043561E+04  0.00000000000E+00 0.  1.
         22   -1    0    0    0    0 -0.00000000000E+00 -0.00000000000E+00 -0.68171581961E+02  0.68171581961E+02  0.00000000000E+00 0. -1.
        -24    2    1    2    0    0  0.68929568111E+02 -0.24936289098E+02  0.20397055865E+02  0.10467511975E+03  0.71886973322E+02 0.  0.
         25    2    1    2    0    0 -0.62908024632E+02  0.11302560479E+02  0.18264502814E+03  0.23041891621E+03  0.12509397751E+03 0.  0.
         24    2    1    2    0    0 -0.60215434795E+01  0.13633728619E+02  0.92509069018E+03  0.92938190214E+03  0.87953382097E+02 0.  0.
        -13    1    5    5    0    0  0.25264592701E+02 -0.27164633945E+02  0.44610172488E+03  0.44764155965E+03  0.00000000000E+00 0.  1.
         14    1    5    5    0    0 -0.31286136180E+02  0.40798362564E+02  0.47898896530E+03  0.48174034249E+03  0.00000000000E+00 0. -1.
         13    1    3    3    0    0 -0.11453041616E+02 -0.14338170242E+02 -0.61617452705E+01  0.19357747620E+02  0.00000000000E+00 0. -1.
        -14    1    3    3    0    0  0.80382609727E+02 -0.10598118856E+02  0.26558801135E+02  0.85317372133E+02  0.00000000000E+00 0.  1.
          5    1    4    4  501    0  0.27058488121E+02  0.37630766149E+02  0.56376411584E+02  0.73102725828E+02  0.41800000000E+01 0. -1.
         -5    1    4    4    0  501 -0.89966512753E+02 -0.26328205671E+02  0.12626861655E+03  0.15731619038E+03  0.41800000000E+01 0. -1.
</event>
<event>
11    1  0.6930157E-009  0.1517728E+03  0.7561462E-02  0.1095081E+00
         22   -1    0    0    0    0  0.00000000000E+00  0.00000000000E+00  0.16912740192E+04  0.16912740192E+04  0.00000000000E+00 0.  1.
         22   -1    0    0    0    0 -0.00000000000E+00 -0.00000000000E+00 -0.47082112465E+02  0.47082112465E+02  0.00000000000E+00 0.  1.
         24    2    1    2    0    0  0.70032359186E+02 -0.42942987903E+02  0.10942616344E+03  0.15854937852E+03  0.80094872741E+02 0.  0.
         25    2    1    2    0    0 -0.96838133552E+02  0.18918505227E+02  0.28226854619E+03  0.32412557527E+03  0.12508526062E+03 0.  0.
        -24    2    1    2    0    0  0.26805774366E+02  0.24024482676E+02  0.12524971971E+04  0.12556811779E+04  0.81794048874E+02 0.  0.
        -13    1    3    3    0    0  0.79481457384E+02 -0.52305040944E+02  0.10973931372E+03  0.14524405789E+03  0.00000000000E+00 0.  1.
         14    1    3    3    0    0 -0.94490981989E+01  0.93620530410E+01 -0.31315027897E+00  0.13305320628E+02  0.00000000000E+00 0. -1.
         13    1    5    5    0    0  0.11844099465E+02  0.23408082974E+02  0.10996927194E+03  0.11305512731E+03  0.00000000000E+00 0. -1.
        -14    1    5    5    0    0  0.14961674901E+02  0.61639970210E+00  0.11425279252E+04  0.11426260506E+04  0.00000000000E+00 0.  1.
          5    1    4    4  501    0 -0.41751693877E+02 -0.94815781411E+01  0.25085521564E+03  0.25451702473E+03  0.41800000000E+01 0. -1.
         -5    1    4    4    0  501 -0.55086439675E+02  0.28400083368E+02  0.31413330555E+02  0.69608550538E+02  0.41800000000E+01 0. -1.
</event>
<event>
11    1  0.6930157E-009  0.4236168E+03  0.7561462E-02  0.9582535E-01
         22   -1    0    0    0    0  0.00000000000E+00  0.00000000000E+00  0.16773271618E+04  0.16773271618E+04  0.00000000000E+00 0.  1.
         22   -1    0    0    0    0 -0.00000000000E+00 -0.00000000000E+00 -0.75427475386E+03  0.75427475386E+03  0.00000000000E+00 0.  1.
         24    2    1    2    0    0  0.59170274644E+02  0.40171651032E+03 -0.65096413251E+03  0.77141231451E+03  0.80283130812E+02 0.  0.
         25    2    1    2    0    0 -0.32557266516E+02 -0.38153786446E+03  0.97739091217E+03  0.10571550181E+04  0.12511042928E+03 0.  0.
        -24    2    1    2    0    0 -0.26613008128E+02 -0.20178645857E+02  0.59662562827E+03  0.60303458302E+03  0.81074891711E+02 0.  0.
        -13    1    3    3    0    0  0.70421410245E+02  0.20785615197E+03 -0.35907493178E+03  0.42083032396E+03  0.00000000000E+00 0.  1.
         14    1    3    3    0    0 -0.11251135601E+02  0.19386035835E+03 -0.29188920073E+03  0.35058199055E+03  0.00000000000E+00 0. -1.
         13    1    5    5    0    0  0.22894015954E+02 -0.24580340687E+02  0.15362312314E+03  0.15725264092E+03  0.00000000000E+00 0. -1.
        -14    1    5    5    0    0 -0.49507024082E+02  0.44016948307E+01  0.44300250513E+03  0.44578194210E+03  0.00000000000E+00 0.  1.
          5    1    4    4  501    0 -0.13511593382E+02 -0.17967888582E+03  0.29920472008E+03  0.34929643869E+03  0.41800000000E+01 0.  1.
         -5    1    4    4    0  501 -0.19045673134E+02 -0.20185897864E+03  0.67818619209E+03  0.70785857943E+03  0.41800000000E+01 0.  1.
</event>
<event>
11    1  0.7151267E-009  0.1626926E+03  0.7561462E-02  0.1084572E+00
         22   -1    0    0    0    0  0.00000000000E+00  0.00000000000E+00  0.15997882346E+04  0.15997882346E+04  0.00000000000E+00 0.  1.
         22   -1    0    0    0    0 -0.00000000000E+00 -0.00000000000E+00 -0.26380060108E+03  0.26380060108E+03  0.00000000000E+00 0. -1.
         24    2    1    2    0    0 -0.40730836509E+02  0.10028016453E+02 -0.15796986093E+03  0.18246386025E+03  0.81111165556E+02 0.  0.
         25    2    1    2    0    0  0.65186542919E+02 -0.11053749216E+03 -0.23360712623E+01  0.17922109307E+03  0.12508765096E+03 0.  0.
        -24    2    1    2    0    0 -0.24455706410E+02  0.10050947570E+03  0.14962935657E+04  0.15019038824E+04  0.78234268793E+02 0.  0.
        -13    1    3    3    0    0  0.78146847882E+01  0.22060339584E+01  0.67512767635E+01  0.10560095743E+02  0.00000000000E+00 0.  1.
         14    1    3    3    0    0 -0.48545521298E+02  0.78219824949E+01 -0.16472113769E+03  0.17190376450E+03  0.00000000000E+00 0. -1.
         11    1    5    5    0    0 -0.12760507253E+02 -0.77400717973E+01  0.38503342785E+03  0.38532256593E+03  0.00000000000E+00 0. -1.
        -12    1    5    5    0    0 -0.11695199156E+02  0.10824954750E+03  0.11112601379E+04  0.11165813165E+04  0.00000000000E+00 0.  1.
          5    1    4    4  501    0  0.75782565911E+02 -0.72205932575E+02  0.47752478952E+02  0.11512804020E+03  0.41800000000E+01 0. -1.
         -5    1    4    4    0  501 -0.10596022992E+02 -0.38331559580E+02 -0.50088550214E+02  0.64093052866E+02  0.41800000000E+01 0. -1.
</event>
<event>
11    1  0.6930157E-009  0.1768372E+03  0.7561462E-02  0.1072230E+00
         22   -1    0    0    0    0  0.00000000000E+00  0.00000000000E+00  0.83830568332E+03  0.83830568332E+03  0.00000000000E+00 0. -1.
         22   -1    0    0    0    0 -0.00000000000E+00 -0.00000000000E+00 -0.11152839594E+04  0.11152839594E+04  0.00000000000E+00 0.  1.
         24    2    1    2    0    0 -0.12718701150E+03 -0.30551034037E+01 -0.10427337287E+04  0.10551804964E+04  0.99631226573E+02 0.  0.
         25    2    1    2    0    0  0.82438152727E+02  0.71177193427E+02  0.49447258794E+02  0.17307536923E+03  0.12509120730E+03 0.  0.
        -24    2    1    2    0    0  0.44748858771E+02 -0.68122090024E+02  0.71630819380E+03  0.72533377717E+03  0.79803385195E+02 0.  0.
        -11    1    3    3    0    0 -0.90346960955E+02 -0.14101967631E+02 -0.95523919062E+03  0.95960583061E+03  0.00000000000E+00 0.  1.
         12    1    3    3    0    0 -0.36840050543E+02  0.11046864228E+02 -0.87494538107E+02  0.95574665743E+02  0.00000000000E+00 0. -1.
         11    1    5    5    0    0  0.66458121274E+02 -0.52683063147E+02  0.47007838942E+03  0.47766712178E+03  0.00000000000E+00 0. -1.
        -12    1    5    5    0    0 -0.21709262503E+02 -0.15439026877E+02  0.24622980438E+03  0.24766665540E+03  0.00000000000E+00 0.  1.
          5    1    4    4  501    0  0.92041872068E+02  0.18890630625E+00  0.14535571495E+02  0.93276455433E+02  0.41800000000E+01 0. -1.
         -5    1    4    4    0  501 -0.96037193415E+01  0.70988287121E+02  0.34911687299E+02  0.79798913800E+02  0.41800000000E+01 0. -1.
</event>
<event>
11    1  0.8428268E-009  0.1582558E+03  0.7561462E-02  0.1088729E+00
         22   -1    0    0    0    0  0.00000000000E+00  0.00000000000E+00  0.37001502825E+03  0.37001502825E+03  0.00000000000E+00 0.  1.
         22   -1    0    0    0    0 -0.00000000000E+00 -0.00000000000E+00 -0.21171417343E+04  0.21171417343E+04  0.00000000000E+00 0. -1.
         24    2    1    2    0    0  0.29715311637E+02 -0.17710461017E+02 -0.16316988440E+04  0.16339863113E+04  0.79205351205E+02 0.  0.
         25    2    1    2    0    0 -0.25118922759E+02 -0.79533150408E+02 -0.46092808426E+03  0.48483565856E+03  0.12511768322E+03 0.  0.
        -24    2    1    2    0    0 -0.45963888772E+01  0.97243611425E+02  0.34550022225E+03  0.36833479271E+03  0.82599450304E+02 0.  0.
        -13    1    3    3    0    0  0.65926058729E+00 -0.10852543758E+02 -0.28408067943E+02  0.30417604357E+02  0.00000000000E+00 0.  1.
         14    1    3    3    0    0  0.29056051049E+02 -0.68579172591E+01 -0.16032907761E+04  0.16035687069E+04  0.00000000000E+00 0. -1.
         13    1    5    5    0    0 -0.19799770771E+02 -0.74296402441E+01  0.73872260873E+02  0.76839712410E+02  0.00000000000E+00 0. -1.
        -14    1    5    5    0    0  0.15203381894E+02  0.10467325167E+03  0.27162796138E+03  0.29149508030E+03  0.00000000000E+00 0.  1.
          5    1    4    4  501    0  0.14167812970E+02 -0.84087139927E+02 -0.16056860608E+03  0.18185467738E+03  0.41800000000E+01 0. -1.
         -5    1    4    4    0  501 -0.39286735730E+02  0.45539895190E+01 -0.30035947818E+03  0.30298098118E+03  0.41800000000E+01 0. -1.
</event>
<event>
11    1  0.6930157E-009  0.1977367E+03  0.7561462E-02  0.1056136E+00
         22   -1    0    0    0    0  0.00000000000E+00  0.00000000000E+00  0.10399414168E+04  0.10399414168E+04  0.00000000000E+00 0.  1.
         22   -1    0    0    0    0 -0.00000000000E+00 -0.00000000000E+00 -0.19369959456E+03  0.19369959456E+03  0.00000000000E+00 0. -1.
         24    2    1    2    0    0 -0.73067650256E+02 -0.31733450310E+02 -0.90701497092E+02  0.14572825609E+03  0.81633753220E+02 0.  0.
         25    2    1    2    0    0  0.17838965654E+03  0.13037300371E+03  0.17528234567E+03  0.30853302723E+03  0.12509491809E+03 0.  0.
        -24    2    1    2    0    0 -0.10532200629E+03 -0.98639553397E+02  0.76166097366E+03  0.77937972803E+03  0.80516055343E+02 0.  0.
        -11    1    3    3    0    0 -0.48826260402E+02  0.12909383995E+02 -0.11761925201E+02  0.51855556928E+02  0.00000000000E+00 0.  1.
         12    1    3    3    0    0 -0.24241389854E+02 -0.44642834304E+02 -0.78939571891E+02  0.93872699158E+02  0.00000000000E+00 0. -1.
         11    1    5    5    0    0 -0.24938823320E+02 -0.11317109932E+02  0.42975920080E+02  0.50960294274E+02  0.00000000000E+00 0. -1.
        -12    1    5    5    0    0 -0.80383182967E+02 -0.87322443465E+02  0.71868505358E+03  0.72841943376E+03  0.00000000000E+00 0.  1.
          5    1    4    4  501    0  0.19016615014E+02 -0.23659774026E+02  0.33438252839E+02  0.45354224792E+02  0.41800000000E+01 0. -1.
         -5    1    4    4    0  501  0.15937304153E+03  0.15403277773E+03  0.14184409283E+03  0.26317880244E+03  0.41800000000E+01 0. -1.
</event>
<event>
11    1  0.6930157E-009  0.1650589E+03  0.7561462E-02  0.1082413E+00
         22   -1    0    0    0    0  0.00000000000E+00  0.00000000000E+00  0.10105328188E+03  0.10105328188E+03  0.00000000000E+00 0. -1.
         22   -1    0    0    0    0 -0.00000000000E+00 -0.00000000000E+00 -0.87841393545E+03  0.87841393545E+03  0.00000000000E+00 0.  1.
         24    2    1    2    0    0  0.36872804303E+02  0.39698813710E+02 -0.19978756769E+03  0.22237626411E+03  0.81243652865E+02 0.  0.
         25    2    1    2    0    0 -0.25884889360E+02 -0.14369003602E+03 -0.59452750529E+03  0.62483932360E+03  0.12507746329E+03 0.  0.
        -24    2    1    2    0    0 -0.10987914943E+02  0.10399122231E+03  0.16954419414E+02  0.13225162962E+03  0.79171539120E+02 0.  0.
        -11    1    3    3    0    0 -0.89919955194E+01  0.28606943774E+02 -0.15305306325E+03  0.15596298723E+03  0.00000000000E+00 0.  1.
         12    1    3    3    0    0  0.45864799822E+02  0.11091869936E+02 -0.46734504444E+02  0.66413276889E+02  0.00000000000E+00 0. -1.
         11    1    5    5    0    0  0.95488319690E+01  0.10029327082E+03 -0.63790160582E+01  0.10094856220E+03  0.00000000000E+00 0. -1.
        -12    1    5    5    0    0 -0.20536746912E+02  0.36979514881E+01  0.23333435472E+02  0.31303067419E+02  0.00000000000E+00 0.  1.
          5    1    4    4  501    0  0.83619143496E+01 -0.96394168843E+02 -0.16485730374E+03  0.19119926882E+03  0.41800000000E+01 0. -1.
         -5    1    4    4    0  501 -0.34246803709E+02 -0.47295867176E+02 -0.42967020155E+03  0.43364005478E+03  0.41800000000E+01 0. -1.
</event>
<event>
11    1  0.6930157E-009  0.1516060E+03  0.7561462E-02  0.1095249E+00
         22   -1    0    0    0    0  0.00000000000E+00  0.00000000000E+00  0.56517459220E+03  0.56517459220E+03  0.00000000000E+00 0. -1.
         22   -1    0    0    0    0 -0.00000000000E+00 -0.00000000000E+00 -0.86459324692E+03  0.86459324692E+03  0.00000000000E+00 0.  1.
        -24    2    1    2    0    0  0.61059386189E+02  0.41559034552E+02 -0.33431109881E+03  0.35178553892E+03  0.80831631222E+02 0.  0.
         25    2    1    2    0    0 -0.10240133680E+03 -0.28024335650E+02 -0.50413806556E+03  0.53016417467E+03  0.12508983085E+03 0.  0.
         24    2    1    2    0    0  0.41341950612E+02 -0.13534698902E+02  0.53903050965E+03  0.54781812554E+03  0.87512646955E+02 0.  0.
        -11    1    5    5    0    0  0.36525819304E+02 -0.24790036619E+02  0.10881161055E+03  0.11742507390E+03  0.00000000000E+00 0.  1.
         12    1    5    5    0    0  0.48161313076E+01  0.11255337717E+02  0.43021889911E+03  0.43039305164E+03  0.00000000000E+00 0. -1.
         13    1    3    3    0    0 -0.18038369283E+02 -0.32019178909E+01 -0.47089835697E+02  0.50528087936E+02  0.00000000000E+00 0. -1.
        -14    1    3    3    0    0  0.79097755472E+02  0.44760952443E+02 -0.28722126312E+03  0.30125745098E+03  0.00000000000E+00 0.  1.
          5    1    4    4  501    0 -0.46755736870E+02  0.46319336163E+02 -0.14678544651E+03  0.16091929511E+03  0.41800000000E+01 0.  1.
         -5    1    4    4    0  501 -0.55645599931E+02 -0.74343671813E+02 -0.35735261906E+03  0.36924487955E+03  0.41800000000E+01 0.  1.
</event>
<event>
11    1  0.6930157E-009  0.1872899E+03  0.7561462E-02  0.1063894E+00
         22   -1    0    0    0    0  0.00000000000E+00  0.00000000000E+00  0.65446917920E+03  0.65446917920E+03  0.00000000000E+00 0.  1.
         22   -1    0    0    0    0 -0.00000000000E+00 -0.00000000000E+00 -0.56517746032E+03  0.56517746032E+03  0.00000000000E+00 0.  1.
         24    2    1    2    0    0 -0.18277986632E+01 -0.10418240661E+02 -0.49575726897E+03  0.50218599628E+03  0.79395368489E+02 0.  0.
         25    2    1    2    0    0  0.98938618183E+02  0.10795770724E+03  0.12257388825E+03  0.22828757356E+03  0.12508853441E+03 0.  0.
        -24    2    1    2    0    0 -0.97110819520E+02 -0.97539466576E+02  0.46247509960E+03  0.48917306967E+03  0.80390394543E+02 0.  0.
        -11    1    3    3    0    0  0.29085350199E+02 -0.20061108010E+02 -0.38961896708E+03  0.39121777204E+03  0.00000000000E+00 0.  1.
         12    1    3    3    0    0 -0.30913148863E+02  0.96428673484E+01 -0.10613830190E+03  0.11096822425E+03  0.00000000000E+00 0. -1.
         13    1    5    5    0    0 -0.61135102960E+02 -0.66030543474E+02  0.16559200044E+03  0.18846284540E+03  0.00000000000E+00 0. -1.
        -14    1    5    5    0    0 -0.35975716560E+02 -0.31508923102E+02  0.29688309916E+03  0.30071022427E+03  0.00000000000E+00 0.  1.
          5    1    4    4  501    0  0.60970304054E+02  0.13214760614E+03  0.79714169128E+02  0.16598852052E+03  0.41800000000E+01 0.  1.
         -5    1    4    4    0  501  0.37968314129E+02 -0.24189898899E+02  0.42859719119E+02  0.62299053039E+02  0.41800000000E+01 0.  1.
</event>
<event>
11    1  0.6930157E-009  0.1477748E+03  0.7561462E-02  0.1099174E+00
         22   -1    0    0    0    0  0.00000000000E+00  0.00000000000E+00  0.56194816483E+03  0.56194816483E+03  0.00000000000E+00 0.  1.
         22   -1    0    0    0    0 -0.00000000000E+00 -0.00000000000E+00 -0.17339405811E+03  0.17339405811E+03  0.00000000000E+00 0.  1.
         24    2    1    2    0    0 -0.80059245982E+02 -0.73886753302E+01 -0.11274324654E+03  0.15906830598E+03  0.78279058095E+02 0.  0.
         25    2    1    2    0    0  0.66602530027E+02 -0.53445181574E+02  0.17272819284E+03  0.22972697327E+03  0.12508864539E+03 0.  0.
        -24    2    1    2    0    0  0.13456715955E+02  0.60833856905E+02  0.32856916042E+03  0.34654694369E+03  0.90858404423E+02 0.  0.
        -13    1    3    3    0    0 -0.43259385215E+02 -0.14617537234E+02 -0.11266330296E+03  0.12156507162E+03  0.00000000000E+00 0.  1.
         14    1    3    3    0    0 -0.36799860767E+02  0.72288619040E+01 -0.79943587886E-01  0.37503234365E+02  0.00000000000E+00 0. -1.
         11    1    5    5    0    0 -0.32749409941E+02  0.38549658557E+01  0.14831663922E+03  0.15193817849E+03  0.00000000000E+00 0. -1.
        -12    1    5    5    0    0  0.46206125896E+02  0.56978891049E+02  0.18025252120E+03  0.19460876521E+03  0.00000000000E+00 0.  1.
          5    1    4    4  501    0  0.44766307968E+01 -0.63480445972E+02  0.23935011647E+02  0.68118752386E+02  0.41800000000E+01 0. -1.
         -5    1    4    4    0  501  0.62125899230E+02  0.10035264398E+02  0.14879318119E+03  0.16160822088E+03  0.41800000000E+01 0. -1.
</event>
<event>
11    1  0.1118324E-008  0.1520950E+03  0.7561462E-02  0.1094757E+00
         22   -1    0    0    0    0  0.00000000000E+00  0.00000000000E+00  0.22511363976E+04  0.22511363976E+04  0.00000000000E+00 0. -1.
         22   -1    0    0    0    0 -0.00000000000E+00 -0.00000000000E+00 -0.12331204738E+04  0.12331204738E+04  0.00000000000E+00 0. -1.
        -24    2    1    2    0    0 -0.21410618704E+01  0.69302591848E+02 -0.10213898983E+04  0.10268746602E+04  0.80167388178E+02 0.  0.
         25    2    1    2    0    0  0.72647005024E+02 -0.18663419046E+02 -0.18181086738E+03  0.23308333569E+03  0.12508692709E+03 0.  0.
         24    2    1    2    0    0 -0.70505943154E+02 -0.50639172802E+02  0.22212166895E+04  0.22242988755E+04  0.78527013982E+02 0.  0.
        -11    1    5    5    0    0 -0.26813488995E+02  0.12828605924E+02  0.28419301186E+03  0.28574324894E+03  0.00000000000E+00 0.  1.
         12    1    5    5    0    0 -0.43692454159E+02 -0.63467778725E+02  0.19370236776E+04  0.19385556265E+04  0.00000000000E+00 0. -1.
         13    1    3    3    0    0 -0.67895202034E+01  0.73565944031E+02 -0.10156899252E+04  0.10183732468E+04  0.00000000000E+00 0. -1.
        -14    1    3    3    0    0  0.46484583330E+01 -0.42633521830E+01 -0.56999730894E+01  0.85014134077E+01  0.00000000000E+00 0.  1.
          5    1    4    4  501    0  0.23148005027E+02 -0.34792308768E+02  0.19515767814E+01  0.42043024844E+02  0.41800000000E+01 0.  1.
         -5    1    4    4    0  501  0.49498999997E+02  0.16128889721E+02 -0.18376244416E+03  0.19104031084E+03  0.41800000000E+01 0.  1.
</event>
<event>
11    1  0.6930157E-009  0.2411386E+03  0.7561462E-02  0.1028729E+00
         22   -1    0    0    0    0  0.00000000000E+00  0.00000000000E+00  0.15426365219E+04  0.15426365219E+04  0.00000000000E+00 0.  1.
         22   -1    0    0    0    0 -0.00000000000E+00 -0.00000000000E+00 -0.33713191945E+03  0.33713191945E+03  0.00000000000E+00 0. -1.
         24    2    1    2    0    0  0.82928781156E+01  0.54183941063E+02 -0.26542140242E+03  0.28349428508E+03  0.83161394354E+02 0.  0.
         25    2    1    2    0    0 -0.20558398829E+03  0.97578613352E+01  0.22304814343E+03  0.32826188214E+03  0.12508156092E+03 0.  0.
        -24    2    1    2    0    0  0.19729111017E+03 -0.63941802398E+02  0.12478778614E+04  0.12680122741E+04  0.87427879015E+02 0.  0.
        -11    1    3    3    0    0  0.24802035194E+01 -0.17112280151E+02 -0.14470023697E+02  0.22546909483E+02  0.00000000000E+00 0.  1.
         12    1    3    3    0    0  0.58126745962E+01  0.71296221213E+02 -0.25095137872E+03  0.26094737559E+03  0.00000000000E+00 0. -1.
         11    1    5    5    0    0  0.24449523378E+02 -0.11760536614E+02  0.52693526107E+02  0.59268010836E+02  0.00000000000E+00 0. -1.
        -12    1    5    5    0    0  0.17284158680E+03 -0.52181265784E+02  0.11951843353E+04  0.12087442633E+04  0.00000000000E+00 0.  1.
          5    1    4    4  501    0 -0.10624126065E+03 -0.46077925763E+02  0.63458687762E+02  0.13211683526E+03  0.41800000000E+01 0. -1.
         -5    1    4    4    0  501 -0.99342727639E+02  0.55835787098E+02  0.15958945567E+03  0.19614504688E+03  0.41800000000E+01 0. -1.
</event>
<event>
11    1  0.6930157E-009  0.1406554E+03  0.7561462E-02  0.1106829E+00
         22   -1    0    0    0    0  0.00000000000E+00  0.00000000000E+00  0.15311350415E+03  0.15311350415E+03  0.00000000000E+00 0. -1.
         22   -1    0    0    0    0 -0.00000000000E+00 -0.00000000000E+00 -0.44938427529E+03  0.44938427529E+03  0.00000000000E+00 0. -1.
        -24    2    1    2    0    0 -0.18050751200E+02 -0.18144580978E+02 -0.29190469853E+03  0.30326920851E+03  0.78158840618E+02 0.  0.
         25    2    1    2    0    0  0.76309787144E+02 -0.45796795517E+01 -0.84762688353E+02  0.16934127994E+03  0.12509036204E+03 0.  0.
         24    2    1    2    0    0 -0.58259035944E+02  0.22724260530E+02  0.80396615745E+02  0.12988729100E+03  0.80601397349E+02 0.  0.
        -11    1    5    5    0    0  0.33123886101E+01  0.24417896291E+02 -0.44503400665E+01  0.25040189781E+02  0.00000000000E+00 0.  1.
         12    1    5    5    0    0 -0.61571424554E+02 -0.16936357607E+01  0.84846955811E+02  0.10484710122E+03  0.00000000000E+00 0. -1.
         11    1    3    3    0    0  0.10036966388E+02 -0.40294988572E+02 -0.20721434647E+03  0.21133436109E+03  0.00000000000E+00 0. -1.
        -12    1    3    3    0    0 -0.28087717588E+02  0.22150407593E+02 -0.84690352063E+02  0.91934847411E+02  0.00000000000E+00 0.  1.
          5    1    4    4  501    0  0.87835091537E+02  0.38442305265E+02 -0.78868980280E+02  0.12421997661E+03  0.41800000000E+01 0.  1.
         -5    1    4    4    0  501 -0.11525304393E+02 -0.43021984816E+02 -0.58937080731E+01  0.45121303325E+02  0.41800000000E+01 0.  1.
</event>
<event>
11    1  0.6930157E-009  0.1908505E+03  0.7561462E-02  0.1061189E+00
         22   -1    0    0    0    0  0.00000000000E+00  0.00000000000E+00  0.10866062479E+04  0.10866062479E+04  0.00000000000E+00 0. -1.
         22   -1    0    0    0    0 -0.00000000000E+00 -0.00000000000E+00 -0.14333028784E+03  0.14333028784E+03  0.00000000000E+00 0.  1.
         24    2    1    2    0    0 -0.42766540362E+02  0.77801826963E+02 -0.19939437634E+02  0.12081058046E+03  0.79470207781E+02 0.  0.
         25    2    1    2    0    0  0.17909326578E+03 -0.99729202119E+02  0.15629288554E+03  0.28652225893E+03  0.12508887715E+03 0.  0.
        -24    2    1    2    0    0 -0.13632672542E+03  0.21927375156E+02  0.80692251210E+03  0.82260369631E+03  0.80542627233E+02 0.  0.
        -11    1    3    3    0    0 -0.54437007924E+02  0.27053750941E+02  0.86573496376E+01  0.61402304309E+02  0.00000000000E+00 0.  1.
         12    1    3    3    0    0  0.11670467562E+02  0.50748076023E+02 -0.28596787272E+02  0.59408276152E+02  0.00000000000E+00 0. -1.
         13    1    5    5    0    0 -0.61828275202E+02 -0.25805824126E+02  0.25601129295E+03  0.26463268560E+03  0.00000000000E+00 0. -1.
        -14    1    5    5    0    0 -0.74498450214E+02  0.47733199281E+02  0.55091121916E+03  0.55797101071E+03  0.00000000000E+00 0.  1.
          5    1    4    4  501    0 -0.14906885805E+02  0.67078089689E+01  0.26011474261E+01  0.17071857353E+02  0.41800000000E+01 0. -1.
         -5    1    4    4    0  501  0.19400015158E+03 -0.10643701109E+03  0.15369173811E+03  0.26945040157E+03  0.41800000000E+01 0. -1.
</event>
<event>
11    1  0.6930157E-009  0.2164247E+03  0.7561462E-02  0.1043480E+00
         22   -1    0    0    0    0  0.00000000000E+00  0.00000000000E+00  0.33121980004E+03  0.33121980004E+03  0.00000000000E+00 0. -1.
         22   -1    0    0    0    0 -0.00000000000E+00 -0.00000000000E+00 -0.31157906306E+03  0.31157906306E+03  0.00000000000E+00 0. -1.
         24    2    1    2    0    0 -0.32351363036E+02 -0.24114855075E+03 -0.22038183762E+02  0.25779236047E+03  0.82292073453E+02 0.  0.
         25    2    1    2    0    0  0.10243658793E+02  0.14118664481E+03 -0.81334372370E+02  0.20567504569E+03  0.12509333744E+03 0.  0.
        -24    2    1    2    0    0  0.22107704243E+02  0.99961905932E+02  0.12301329311E+03  0.17933145694E+03  0.80909628251E+02 0.  0.
        -13    1    3    3    0    0 -0.38710674856E+02 -0.69105785613E+02  0.17569908956E+02  0.81134626724E+02  0.00000000000E+00 0.  1.
         14    1    3    3    0    0  0.63593118197E+01 -0.17204276513E+03 -0.39608092718E+02  0.17665773374E+03  0.00000000000E+00 0. -1.
         13    1    5    5    0    0  0.29689532195E+02  0.51368088134E+02  0.11513456021E+03  0.12952264572E+03  0.00000000000E+00 0. -1.
        -14    1    5    5    0    0 -0.75818279523E+01  0.48593817798E+02  0.78787329016E+01  0.49808811223E+02  0.00000000000E+00 0.  1.
          5    1    4    4  501    0  0.32088109779E+02  0.65467250061E+02 -0.10072169648E+03  0.12441036999E+03  0.41800000000E+01 0. -1.
         -5    1    4    4    0  501 -0.21844450986E+02  0.75719394754E+02  0.19387324106E+02  0.81264675701E+02  0.41800000000E+01 0. -1.
</event>
<event>
11    1  0.7006243E-009  0.2138753E+03  0.7561462E-02  0.1045123E+00
         22   -1    0    0    0    0  0.00000000000E+00  0.00000000000E+00  0.69730677396E+03  0.69730677396E+03  0.00000000000E+00 0.  1.
         22   -1    0    0    0    0 -0.00000000000E+00 -0.00000000000E+00 -0.76908014267E+03  0.76908014267E+03  0.00000000000E+00 0. -1.
         24    2    1    2    0    0 -0.13369481676E+02  0.89207790126E+02 -0.61673202011E+03  0.62884061888E+03  0.83338865263E+02 0.  0.
         25    2    1    2    0    0  0.18517900514E+03 -0.70393034927E+02 -0.26078961615E+02  0.23574702811E+03  0.12510038254E+03 0.  0.
        -24    2    1    2    0    0 -0.17180952346E+03 -0.18814755198E+02  0.57103761302E+03  0.60179926964E+03  0.78777522779E+02 0.  0.
        -13    1    3    3    0    0  0.17327759346E+02  0.88382643363E+02 -0.40502518973E+03  0.41491824159E+03  0.00000000000E+00 0.  1.
         14    1    3    3    0    0 -0.30697241021E+02  0.82514676298E+00 -0.21170683038E+03  0.21392237729E+03  0.00000000000E+00 0. -1.
         11    1    5    5    0    0 -0.29621439889E+02 -0.92782893973E+01  0.33405802032E+02  0.45601139949E+02  0.00000000000E+00 0. -1.
        -12    1    5    5    0    0 -0.14218808357E+03 -0.95364658011E+01  0.53763181099E+03  0.55619812969E+03  0.00000000000E+00 0.  1.
          5    1    4    4  501    0  0.74231923483E+02  0.28291027530E+02 -0.35056593657E+02  0.86932145157E+02  0.41800000000E+01 0. -1.
         -5    1    4    4    0  501  0.11094708165E+03 -0.98684062457E+02  0.89776320416E+01  0.14881488295E+03  0.41800000000E+01 0. -1.
</event>
<event>
11    1  0.6930157E-009  0.1401835E+03  0.7561462E-02  0.1107354E+00
         22   -1    0    0    0    0  0.00000000000E+00  0.00000000000E+00  0.22792256185E+04  0.22792256185E+04  0.00000000000E+00 0.  1.
         22   -1    0    0    0    0 -0.00000000000E+00 -0.00000000000E+00 -0.43280601511E+03  0.43280601511E+03  0.00000000000E+00 0.  1.
         24    2    1    2    0    0 -0.56154018962E+02  0.30491579762E+02 -0.40445199717E+03  0.41674205499E+03  0.77521042960E+02 0.  0.
         25    2    1    2    0    0  0.17545477880E+02 -0.52568917727E+02  0.20110743450E+03  0.24323441567E+03  0.12508975118E+03 0.  0.
        -24    2    1    2    0    0  0.38608541082E+02  0.22077337965E+02  0.20497641660E+04  0.20520551629E+04  0.86134934793E+02 0.  0.
        -11    1    3    3    0    0 -0.57606801195E+01 -0.45303703301E+00 -0.26756809193E+03  0.26763048125E+03  0.00000000000E+00 0.  1.
         12    1    3    3    0    0 -0.50393338842E+02  0.30944616795E+02 -0.13688390524E+03  0.14911157374E+03  0.00000000000E+00 0. -1.
         13    1    5    5    0    0 -0.14040080137E+02  0.10560027691E+02  0.99001024599E+02  0.10054770463E+03  0.00000000000E+00 0. -1.
        -14    1    5    5    0    0  0.52648621219E+02  0.11517310274E+02  0.19507631414E+04  0.19515074583E+04  0.00000000000E+00 0.  1.
          5    1    4    4  501    0  0.22461746948E+02 -0.78092854712E+02  0.63721083347E+02  0.10334830863E+03  0.41800000000E+01 0. -1.
         -5    1    4    4    0  501 -0.49162690678E+01  0.25523936986E+02  0.13738635115E+03  0.13988610704E+03  0.41800000000E+01 0. -1.
</event>
<event>
11    1  0.6930157E-009  0.3678017E+03  0.7561462E-02  0.9749849E-01
         22   -1    0    0    0    0  0.00000000000E+00  0.00000000000E+00  0.92994380616E+03  0.92994380616E+03  0.00000000000E+00 0.  1.
         22   -1    0    0    0    0 -0.00000000000E+00 -0.00000000000E+00 -0.65043737127E+03  0.65043737127E+03  0.00000000000E+00 0. -1.
         24    2    1    2    0    0 -0.36974175420E+03 -0.79719118682E+02 -0.42186198704E+03  0.57237390885E+03  0.81118757018E+02 0.  0.
         25    2    1    2    0    0  0.24493345937E+03  0.14483873647E+03  0.24421755823E+02  0.31179409239E+03  0.12509386392E+03 0.  0.
        -24    2    1    2    0    0  0.12480829483E+03 -0.65119617793E+02  0.67694666611E+03  0.69621317619E+03  0.81475903511E+02 0.  0.
        -11    1    3    3    0    0 -0.63018062833E+02 -0.10769088270E+02 -0.12293082400E+03  0.13856131132E+03  0.00000000000E+00 0.  1.
         12    1    3    3    0    0 -0.30672369137E+03 -0.68950030411E+02 -0.29893116304E+03  0.43381259753E+03  0.00000000000E+00 0. -1.
         11    1    5    5    0    0  0.16409225103E+02 -0.48362851045E+02  0.16848795955E+03  0.17605800334E+03  0.00000000000E+00 0. -1.
        -12    1    5    5    0    0  0.10839906973E+03 -0.16756766749E+02  0.50845870657E+03  0.52015517284E+03  0.00000000000E+00 0.  1.
          5    1    4    4  501    0  0.23668089974E+03  0.13731722965E+03  0.54857022244E+02  0.27910685257E+03  0.41800000000E+01 0.  1.
         -5    1    4    4    0  501  0.82525596298E+01  0.75215068296E+01 -0.30435266421E+02  0.32687239828E+02  0.41800000000E+01 0.  1.
</event>
<event>
11    1  0.6930157E-009  0.1719288E+03  0.7561462E-02  0.1076365E+00
         22   -1    0    0    0    0  0.00000000000E+00  0.00000000000E+00  0.27114219716E+03  0.27114219716E+03  0.00000000000E+00 0.  1.
         22   -1    0    0    0    0 -0.00000000000E+00 -0.00000000000E+00 -0.69179118775E+03  0.69179118775E+03  0.00000000000E+00 0.  1.
         24    2    1    2    0    0 -0.11509674598E+03 -0.10598943224E+02 -0.58085989396E+03  0.59763112996E+03  0.80032196957E+02 0.  0.
         25    2    1    2    0    0  0.14829255434E+03 -0.32782937448E+01  0.13892542139E+02  0.19452500741E+03  0.12508216059E+03 0.  0.
        -24    2    1    2    0    0 -0.33195808360E+02  0.13877236969E+02  0.14631836123E+03  0.17077724754E+03  0.80382000755E+02 0.  0.
        -11    1    3    3    0    0 -0.91135245220E+02  0.27584575748E+02 -0.37588742663E+03  0.38776010527E+03  0.00000000000E+00 0.  1.
         12    1    3    3    0    0 -0.23961500759E+02 -0.38183518972E+02 -0.20497246733E+03  0.20987102469E+03  0.00000000000E+00 0. -1.
         13    1    5    5    0    0  0.84739931254E+01 -0.26979767336E+02  0.34175571152E+02  0.44358607604E+02  0.00000000000E+00 0. -1.
        -14    1    5    5    0    0 -0.41669801486E+02  0.40857004305E+02  0.11214279008E+03  0.12641863994E+03  0.00000000000E+00 0.  1.
          5    1    4    4  501    0 -0.17380195723E+02 -0.57484618827E+01 -0.17691331351E+02  0.25798674818E+02  0.41800000000E+01 0.  1.
         -5    1    4    4    0  501  0.16567275006E+03  0.24701681379E+01  0.31583873491E+02  0.16872633259E+03  0.41800000000E+01 0.  1.
</event>
<event>
11    1  0.6930157E-009  0.1656703E+03  0.7561462E-02  0.1081862E+00
         22   -1    0    0    0    0  0.00000000000E+00  0.00000000000E+00  0.33325684818E+03  0.33325684818E+03  0.00000000000E+00 0. -1.
         22   -1    0    0    0    0 -0.00000000000E+00 -0.00000000000E+00 -0.47441952861E+03  0.47441952861E+03  0.00000000000E+00 0. -1.
        -24    2    1    2    0    0  0.14044921523E+02 -0.54918121420E+02 -0.33162939145E+03  0.34610232868E+03  0.81212737677E+02 0.  0.
         25    2    1    2    0    0 -0.76286312625E+02  0.13539063482E+03 -0.33168416829E+02  0.20222998148E+03  0.12508635435E+03 0.  0.
         24    2    1    2    0    0  0.62241391102E+02 -0.80472513398E+02  0.22363512785E+03  0.25934406664E+03  0.83047325725E+02 0.  0.
        -11    1    5    5    0    0  0.21449673601E+02  0.15400993684E+02  0.34956206848E+02  0.43808851859E+02  0.00000000000E+00 0.  1.
         12    1    5    5    0    0  0.40791717501E+02 -0.95873507082E+02  0.18867892101E+03  0.21553521478E+03  0.00000000000E+00 0. -1.
         11    1    3    3    0    0  0.29322453200E+02 -0.36281844103E+02 -0.31070562551E+03  0.31418810321E+03  0.00000000000E+00 0. -1.
        -12    1    3    3    0    0 -0.15277531677E+02 -0.18636277316E+02 -0.20923765947E+02  0.31914225476E+02  0.00000000000E+00 0.  1.
          5    1    4    4  501    0 -0.43673467345E+02  0.10002370648E+03  0.38501250742E+02  0.11580989731E+03  0.41800000000E+01 0. -1.
         -5    1    4    4    0  501 -0.32612845280E+02  0.35366928341E+02 -0.71669667571E+02  0.86420084166E+02  0.41800000000E+01 0. -1.
</event>
<event>
11    1  0.6930157E-009  0.1257592E+03  0.7561462E-02  0.1124592E+00
         22   -1    0    0    0    0  0.00000000000E+00  0.00000000000E+00  0.76496331443E+03  0.76496331443E+03  0.00000000000E+00 0.  1.
         22   -1    0    0    0    0 -0.00000000000E+00 -0.00000000000E+00 -0.26460706083E+03  0.26460706083E+03  0.00000000000E+00 0. -1.
        -24    2    1    2    0    0 -0.16932822584E+02  0.20199231173E+00 -0.21236164577E+03  0.22730492122E+03  0.79267252598E+02 0.  0.
         25    2    1    2    0    0  0.36317575072E+01 -0.37247209069E+01  0.50380813160E+02  0.13496424504E+03  0.12510019143E+03 0.  0.
         24    2    1    2    0    0  0.13301065077E+02  0.35227285952E+01  0.66233708621E+03  0.66730120899E+03  0.80069718417E+02 0.  0.
        -13    1    5    5    0    0 -0.11365401255E+02 -0.11590634713E+02  0.57634696246E+03  0.57657552523E+03  0.00000000000E+00 0.  1.
         14    1    5    5    0    0  0.24666466332E+02  0.15113363309E+02  0.85990123752E+02  0.90725683765E+02  0.00000000000E+00 0. -1.
         11    1    3    3    0    0 -0.15632395261E+02  0.33072084515E+01 -0.21914783973E+03  0.21972957258E+03  0.00000000000E+00 0. -1.
        -12    1    3    3    0    0 -0.13004273233E+01 -0.31052161398E+01  0.67861939594E+01  0.75753486357E+01  0.00000000000E+00 0.  1.
          5    1    4    4  501    0 -0.49710523960E+01  0.36628637012E+02  0.77117743371E+02  0.85621184025E+02  0.41800000000E+01 0. -1.
         -5    1    4    4    0  501  0.86028099032E+01 -0.40353357919E+02 -0.26736930210E+02  0.49343061018E+02  0.41800000000E+01 0. -1.
</event>
<event>
11    1  0.6930157E-009  0.2035021E+03  0.7561462E-02  0.1052074E+00
         22   -1    0    0    0    0  0.00000000000E+00  0.00000000000E+00  0.49571957248E+03  0.49571957248E+03  0.00000000000E+00 0.  1.
         22   -1    0    0    0    0 -0.00000000000E+00 -0.00000000000E+00 -0.75984344374E+03  0.75984344374E+03  0.00000000000E+00 0.  1.
         24    2    1    2    0    0  0.13474815298E+03 -0.83312054215E+02 -0.66395597772E+03  0.68727672137E+03  0.80086130373E+02 0.  0.
         25    2    1    2    0    0 -0.15651299204E+03  0.10878598765E+03  0.87872027233E+02  0.24433450272E+03  0.12508856168E+03 0.  0.
        -24    2    1    2    0    0  0.21764839068E+02 -0.25473933432E+02  0.31196007922E+03  0.32395179214E+03  0.80641447758E+02 0.  0.
        -13    1    3    3    0    0  0.12389683480E+03 -0.39177290761E+02 -0.53470282900E+03  0.55026575500E+03  0.00000000000E+00 0.  1.
         14    1    3    3    0    0  0.10851318172E+02 -0.44134763455E+02 -0.12925314872E+03  0.13701096637E+03  0.00000000000E+00 0. -1.
         11    1    5    5    0    0 -0.26581698387E+02 -0.32440071505E+01  0.50803322195E+02  0.57428980642E+02  0.00000000000E+00 0. -1.
        -12    1    5    5    0    0  0.48346537455E+02 -0.22229926282E+02  0.26115675703E+03  0.26652281149E+03  0.00000000000E+00 0.  1.
          5    1    4    4  501    0 -0.13774774930E+03  0.29097709275E+02  0.79998815404E+02  0.16198272126E+03  0.41800000000E+01 0.  1.
         -5    1    4    4    0  501 -0.18765242747E+02  0.79688278373E+02  0.78732118285E+01  0.82351781462E+02  0.41800000000E+01 0.  1.
</event>
<event>
11    1  0.6930157E-009  0.2507962E+03  0.7561462E-02  0.1023476E+00
         22   -1    0    0    0    0  0.00000000000E+00  0.00000000000E+00  0.15454537414E+04  0.15454537414E+04  0.00000000000E+00 0. -1.
         22   -1    0    0    0    0 -0.00000000000E+00 -0.00000000000E+00 -0.10203739334E+04  0.10203739334E+04  0.00000000000E+00 0. -1.
        -24    2    1    2    0    0  0.55663258405E+02  0.64605553074E+01 -0.60570797164E+03  0.61357938021E+03  0.80357773775E+02 0.  0.
         25    2    1    2    0    0  0.98471358093E+02  0.14816272847E+03 -0.37238392113E+03  0.43123777810E+03  0.12508970411E+03 0.  0.
         24    2    1    2    0    0 -0.15413461650E+03 -0.15462328377E+03  0.15031717007E+04  0.15210105165E+04  0.79259002904E+02 0.  0.
        -13    1    5    5    0    0 -0.44317125455E+02 -0.49653694867E+01  0.21922677449E+03  0.22371643023E+03  0.00000000000E+00 0.  1.
         14    1    5    5    0    0 -0.10981749104E+03 -0.14965791429E+03  0.12839449262E+04  0.12972940863E+04  0.00000000000E+00 0. -1.
         13    1    3    3    0    0  0.54259405408E+02  0.30574966766E+02 -0.53986151492E+03  0.54344214684E+03  0.00000000000E+00 0. -1.
        -14    1    3    3    0    0  0.14038529965E+01 -0.24114411459E+02 -0.65846456715E+02  0.70137233372E+02  0.00000000000E+00 0.  1.
          5    1    4    4  501    0  0.44493792858E+02 -0.45663036806E+01 -0.34962429520E+02  0.56924446507E+02  0.41800000000E+01 0. -1.
         -5    1    4    4    0  501  0.53977565235E+02  0.15272903215E+03 -0.33742149161E+03  0.37431333159E+03  0.41800000000E+01 0. -1.
</event>
<event>
11    1  0.6930157E-009  0.1574205E+03  0.7561462E-02  0.1089529E+00
         22   -1    0    0    0    0  0.00000000000E+00  0.00000000000E+00  0.25070570412E+04  0.25070570412E+04  0.00000000000E+00 0. -1.
         22   -1    0    0    0    0 -0.00000000000E+00 -0.00000000000E+00 -0.30822167839E+03  0.30822167839E+03  0.00000000000E+00 0. -1.
        -24    2    1    2    0    0 -0.21490979735E+02 -0.25873803987E+02 -0.28864019832E+03  0.30152441959E+03  0.80451821488E+02 0.  0.
         25    2    1    2    0    0  0.11346139785E+03  0.30667748734E+02  0.64738314689E+03  0.66975266303E+03  0.12509872562E+03 0.  0.
         24    2    1    2    0    0 -0.91970418110E+02 -0.47939447477E+01  0.18400924143E+04  0.18440016370E+04  0.76944164749E+02 0.  0.
        -11    1    5    5    0    0 -0.66487207572E+02  0.31515572874E+02  0.13055699540E+04  0.13076416501E+04  0.00000000000E+00 0.  1.
         12    1    5    5    0    0 -0.25483210538E+02 -0.36309517621E+02  0.53452246025E+03  0.53635998695E+03  0.00000000000E+00 0. -1.
         13    1    3    3    0    0 -0.52198915857E+02 -0.12382253106E+02 -0.17996444894E+03  0.18779044142E+03  0.00000000000E+00 0. -1.
        -14    1    3    3    0    0  0.30707936121E+02 -0.13491550881E+02 -0.10867574938E+03  0.11373397816E+03  0.00000000000E+00 0.  1.
          5    1    4    4  501    0  0.46889061332E+02 -0.48817937680E+02  0.26503854065E+03  0.27357754941E+03  0.41800000000E+01 0. -1.
         -5    1    4    4    0  501  0.66572336513E+02  0.79485686414E+02  0.38234460624E+03  0.39617511363E+03  0.41800000000E+01 0. -1.
</event>
<event>
11    1  0.6930157E-009  0.1735306E+03  0.7561462E-02  0.1074999E+00
         22   -1    0    0    0    0  0.00000000000E+00  0.00000000000E+00  0.14702225223E+04  0.14702225223E+04  0.00000000000E+00 0. -1.
         22   -1    0    0    0    0 -0.00000000000E+00 -0.00000000000E+00 -0.22121582061E+03  0.22121582061E+03  0.00000000000E+00 0.  1.
         24    2    1    2    0    0  0.23408561291E+02 -0.49431581224E+01 -0.17814912220E+03  0.19748216706E+03  0.81790592424E+02 0.  0.
         25    2    1    2    0    0 -0.12149672138E+02  0.12423506258E+03  0.24494394071E+03  0.30204005842E+03  0.12509475405E+03 0.  0.
        -24    2    1    2    0    0 -0.11258889153E+02 -0.11929190446E+03  0.11822118832E+04  0.11919161175E+04  0.93176033426E+02 0.  0.
        -13    1    3    3    0    0  0.27864495582E+02 -0.10296800942E+01 -0.18575576006E+03  0.18783687804E+03  0.00000000000E+00 0.  1.
         14    1    3    3    0    0 -0.44559342911E+01 -0.39134780282E+01  0.76066378590E+01  0.96452890160E+01  0.00000000000E+00 0. -1.
         13    1    5    5    0    0  0.20309974907E+02 -0.52307700730E+02  0.83562367369E+03  0.83750553112E+03  0.00000000000E+00 0. -1.
        -14    1    5    5    0    0 -0.31568864060E+02 -0.66984203732E+02  0.34658820952E+03  0.35441058634E+03  0.00000000000E+00 0.  1.
          5    1    4    4  501    0  0.48021734742E+01  0.41981585168E+02 -0.63305059613E+00  0.42466310369E+02  0.41800000000E+01 0.  1.
         -5    1    4    4    0  501 -0.16951845612E+02  0.82253477416E+02  0.24557699131E+03  0.25957374805E+03  0.41800000000E+01 0.  1.
</event>
<event>
11    1  0.6930157E-009  0.1332152E+03  0.7561462E-02  0.1115380E+00
         22   -1    0    0    0    0  0.00000000000E+00  0.00000000000E+00  0.16266006950E+03  0.16266006950E+03  0.00000000000E+00 0. -1.
         22   -1    0    0    0    0 -0.00000000000E+00 -0.00000000000E+00 -0.94811416036E+03  0.94811416036E+03  0.00000000000E+00 0.  1.
        -24    2    1    2    0    0 -0.31325329729E+02 -0.34818571419E+02 -0.77186277580E+03  0.77709132655E+03  0.76845142527E+02 0.  0.
         25    2    1    2    0    0  0.20598286834E+02  0.29239498955E+02 -0.13481245452E+03  0.18735287488E+03  0.12508982418E+03 0.  0.
         24    2    1    2    0    0  0.10727042895E+02  0.55790724646E+01  0.12122113946E+03  0.14633002843E+03  0.81066127754E+02 0.  0.
        -13    1    5    5    0    0  0.19685491057E+02  0.68957334803E+01 -0.36121503147E+01  0.21168781928E+02  0.00000000000E+00 0.  1.
         14    1    5    5    0    0 -0.89584481621E+01 -0.13166610157E+01  0.12483328977E+03  0.12516124650E+03  0.00000000000E+00 0. -1.
         13    1    3    3    0    0 -0.89091292773E+01  0.17295181134E+02 -0.62363866635E+02  0.65328001167E+02  0.00000000000E+00 0. -1.
        -14    1    3    3    0    0 -0.22416200452E+02 -0.52113752553E+02 -0.70949890917E+03  0.71176332538E+03  0.00000000000E+00 0.  1.
          5    1    4    4  501    0  0.31214573656E+02  0.69762643966E+02 -0.12075340078E+03  0.14296864097E+03  0.41800000000E+01 0. -1.
         -5    1    4    4    0  501 -0.10616286822E+02 -0.40523145012E+02 -0.14059053742E+02  0.44384233909E+02  0.41800000000E+01 0. -1.
</event>
<event>
11    1  0.6930157E-009  0.1258815E+03  0.7561462E-02  0.1124435E+00
         22   -1    0    0    0    0  0.00000000000E+00  0.00000000000E+00  0.31584845238E+03  0.31584845238E+03  0.00000000000E+00 0. -1.
         22   -1    0    0    0    0 -0.00000000000E+00 -0.00000000000E+00 -0.58631396425E+03  0.58631396425E+03  0.00000000000E+00 0.  1.
         24    2    1    2    0    0 -0.13153078977E+02  0.50095785130E+01 -0.51581774423E+03  0.52415299736E+03  0.92034341500E+02 0.  0.
         25    2    1    2    0    0  0.19922233250E+02  0.15946726688E+02  0.10859834639E+02  0.12813053940E+03  0.12509318786E+03 0.  0.
        -24    2    1    2    0    0 -0.67691542731E+01 -0.20956305201E+02  0.23449239772E+03  0.24987887987E+03  0.83473240252E+02 0.  0.
        -11    1    3    3    0    0 -0.32081699427E+01  0.44076057502E+02 -0.37757660969E+03  0.38015403113E+03  0.00000000000E+00 0.  1.
         12    1    3    3    0    0 -0.99449090340E+01 -0.39066478989E+02 -0.13824113454E+03  0.14399896622E+03  0.00000000000E+00 0. -1.
         13    1    5    5    0    0  0.12043379704E+02 -0.34819407624E+02  0.21844620666E+03  0.22153144099E+03  0.00000000000E+00 0. -1.
        -14    1    5    5    0    0 -0.18812533977E+02  0.13863102422E+02  0.16046191054E+02  0.28347438875E+02  0.00000000000E+00 0.  1.
          5    1    4    4  501    0  0.53361225627E+02  0.20637786039E+02 -0.37840538690E+02  0.68722029811E+02  0.41800000000E+01 0.  1.
         -5    1    4    4    0  501 -0.33438992377E+02 -0.46910593503E+01  0.48700373330E+02  0.59408509588E+02  0.41800000000E+01 0.  1.
</event>
<event>
11    1  0.8667516E-009  0.1944054E+03  0.7561462E-02  0.1058552E+00
         22   -1    0    0    0    0  0.00000000000E+00  0.00000000000E+00  0.18230500053E+03  0.18230500053E+03  0.00000000000E+00 0.  1.
         22   -1    0    0    0    0 -0.00000000000E+00 -0.00000000000E+00 -0.15917439470E+04  0.15917439470E+04  0.00000000000E+00 0. -1.
         24    2    1    2    0    0 -0.92287879560E+01  0.43140207314E+02 -0.79476967826E+03  0.80025986487E+03  0.82527339909E+02 0.  0.
         25    2    1    2    0    0 -0.11867301016E+03 -0.11771959025E+03 -0.73682276265E+03  0.76583008898E+03  0.12508699518E+03 0.  0.
        -24    2    1    2    0    0  0.12790179811E+03  0.74579382939E+02  0.12215349442E+03  0.20795899370E+03  0.80028198415E+02 0.  0.
        -13    1    3    3    0    0  0.31460684646E+02 -0.35011997802E+01 -0.27834818987E+03  0.28014237074E+03  0.00000000000E+00 0.  1.
         14    1    3    3    0    0 -0.40689472602E+02  0.46641407094E+02 -0.51642148839E+03  0.52011749414E+03  0.00000000000E+00 0. -1.
         11    1    5    5    0    0  0.80807348010E+02  0.12423548205E+01  0.65270452708E+02  0.10388264020E+03  0.00000000000E+00 0. -1.
        -12    1    5    5    0    0  0.47094450103E+02  0.73337028118E+02  0.56883041711E+02  0.10407635350E+03  0.00000000000E+00 0.  1.
          5    1    4    4  501    0 -0.54785691446E+02  0.80649105057E+01 -0.34328426785E+03  0.34774714337E+03  0.41800000000E+01 0.  1.
         -5    1    4    4    0  501 -0.63887318711E+02 -0.12578450076E+03 -0.39353849480E+03  0.41808294562E+03  0.41800000000E+01 0.  1.
</event>
<event>
11    1  0.6930157E-009  0.1295275E+03  0.7561462E-02  0.1119851E+00
         22   -1    0    0    0    0  0.00000000000E+00  0.00000000000E+00  0.63723254218E+03  0.63723254218E+03  0.00000000000E+00 0. -1.
         22   -1    0    0    0    0 -0.00000000000E+00 -0.00000000000E+00 -0.15352039168E+03  0.15352039168E+03  0.00000000000E+00 0. -1.
         24    2    1    2    0    0  0.11904776833E+02 -0.31493234526E+02 -0.11844382145E+03  0.14779757815E+03  0.81741285378E+02 0.  0.
         25    2    1    2    0    0  0.90122912678E+01  0.37785227049E+02  0.26492906916E+03  0.29554027690E+03  0.12509076227E+03 0.  0.
        -24    2    1    2    0    0 -0.20917068101E+02 -0.62919925224E+01  0.33722690279E+03  0.34741507881E+03  0.80611042155E+02 0.  0.
        -11    1    3    3    0    0  0.16665222464E+02 -0.17580696164E+02  0.39322437263E+01  0.24541252171E+02  0.00000000000E+00 0.  1.
         12    1    3    3    0    0 -0.47604456312E+01 -0.13912538362E+02 -0.12237606517E+03  0.12325632598E+03  0.00000000000E+00 0. -1.
         11    1    5    5    0    0  0.12388019150E+02  0.12325413905E+02  0.26633194440E+03  0.26690463363E+03  0.00000000000E+00 0. -1.
        -12    1    5    5    0    0 -0.33305087251E+02 -0.18617406427E+02  0.70894958384E+02  0.80510445180E+02  0.00000000000E+00 0.  1.
          5    1    4    4  501    0  0.14626963845E+02  0.72057108092E+02  0.24378710625E+03  0.25466802012E+03  0.41800000000E+01 0.  1.
         -5    1    4    4    0  501 -0.56146725777E+01 -0.34271881043E+02  0.21141962908E+02  0.40872256776E+02  0.41800000000E+01 0.  1.
</event>
<event>
11    1  0.6930157E-009  0.1397043E+03  0.7561462E-02  0.1107889E+00
         22   -1    0    0    0    0  0.00000000000E+00  0.00000000000E+00  0.24155332081E+04  0.24155332081E+04  0.00000000000E+00 0.  1.
         22   -1    0    0    0    0 -0.00000000000E+00 -0.00000000000E+00 -0.69107913222E+02  0.69107913222E+02  0.00000000000E+00 0.  1.
        -24    2    1    2    0    0 -0.19928850670E+02  0.43862701622E+02  0.64280616196E+02  0.11376386641E+03  0.80555099152E+02 0.  0.
         25    2    1    2    0    0 -0.41584264850E+02 -0.30326179219E+02  0.62860843639E+02  0.14915991462E+03  0.12509303033E+03 0.  0.
         24    2    1    2    0    0  0.61513115520E+02 -0.13536522403E+02  0.22192838351E+04  0.22217173403E+04  0.82704890204E+02 0.  0.
        -11    1    5    5    0    0  0.80307033672E+02 -0.46803857657E+01  0.19371656227E+04  0.19388351595E+04  0.00000000000E+00 0.  1.
         12    1    5    5    0    0 -0.18793918152E+02 -0.88561366371E+01  0.28211821231E+03  0.28288218084E+03  0.00000000000E+00 0. -1.
         11    1    3    3    0    0  0.14759133192E+02 -0.85081666017E+01  0.44903071513E+02  0.48026104805E+02  0.00000000000E+00 0. -1.
        -12    1    3    3    0    0 -0.34687983862E+02  0.52370868224E+02  0.19377544684E+02  0.65737761605E+02  0.00000000000E+00 0.  1.
          5    1    4    4  501    0 -0.58695426554E+02 -0.66558303364E+02  0.62934047478E+02  0.10887298828E+03  0.41800000000E+01 0. -1.
         -5    1    4    4    0  501  0.17111161704E+02  0.36232124145E+02 -0.73203839385E-01  0.40286926338E+02  0.41800000000E+01 0. -1.
</event>
<event>
11    1  0.6930157E-009  0.2436836E+03  0.7561462E-02  0.1027319E+00
         22   -1    0    0    0    0  0.00000000000E+00  0.00000000000E+00  0.21962295699E+03  0.21962295699E+03  0.00000000000E+00 0. -1.
         22   -1    0    0    0    0 -0.00000000000E+00 -0.00000000000E+00 -0.86242863447E+03  0.86242863447E+03  0.00000000000E+00 0. -1.
         24    2    1    2    0    0  0.37527454759E+02 -0.19749945657E+03 -0.48212458105E+03  0.52830689546E+03  0.79055163894E+02 0.  0.
         25    2    1    2    0    0 -0.13521084846E+02  0.22712614638E+03 -0.29480156456E+03  0.39284215534E+03  0.12509152824E+03 0.  0.
        -24    2    1    2    0    0 -0.24006369913E+02 -0.29626689804E+02  0.13412046813E+03  0.16090254065E+03  0.80294962938E+02 0.  0.
        -13    1    3    3    0    0  0.26334942815E+02 -0.12275394187E+03 -0.19921109241E+03  0.23547211894E+03  0.00000000000E+00 0.  1.
         14    1    3    3    0    0  0.11192511944E+02 -0.74745514707E+02 -0.28291348863E+03  0.29283477653E+03  0.00000000000E+00 0. -1.
         11    1    5    5    0    0 -0.36855965095E+02  0.15278081380E+02  0.80126369959E+02  0.89509871503E+02  0.00000000000E+00 0. -1.
        -12    1    5    5    0    0  0.12849595183E+02 -0.44904771184E+02  0.53994098168E+02  0.71392669151E+02  0.00000000000E+00 0.  1.
          5    1    4    4  501    0 -0.17265728047E+02  0.53809800052E+02 -0.73565355639E+01  0.57141849481E+02  0.41800000000E+01 0.  1.
         -5    1    4    4    0  501  0.37446432013E+01  0.17331634632E+03 -0.28744502900E+03  0.33570030585E+03  0.41800000000E+01 0.  1.
</event>
<event>
11    1  0.6930157E-009  0.1455603E+03  0.7561462E-02  0.1101504E+00
         22   -1    0    0    0    0  0.00000000000E+00  0.00000000000E+00  0.20070092140E+03  0.20070092140E+03  0.00000000000E+00 0. -1.
         22   -1    0    0    0    0 -0.00000000000E+00 -0.00000000000E+00 -0.73985798631E+03  0.73985798631E+03  0.00000000000E+00 0. -1.
        -24    2    1    2    0    0 -0.82805701601E+00  0.16113919385E+01 -0.63828018650E+03  0.64333052257E+03  0.80431850174E+02 0.  0.
         25    2    1    2    0    0 -0.24058758111E+01  0.73156920248E+02 -0.42129058250E+01  0.14499350288E+03  0.12509054354E+03 0.  0.
         24    2    1    2    0    0  0.32339328271E+01 -0.74768312187E+02  0.10333602741E+03  0.15223488227E+03  0.83044361573E+02 0.  0.
        -11    1    5    5    0    0  0.87487080098E+00  0.18055523406E+02  0.10367972426E+02  0.20838958146E+02  0.00000000000E+00 0.  1.
         12    1    5    5    0    0  0.23590620261E+01 -0.92823835593E+02  0.92968054985E+02  0.13139592412E+03  0.00000000000E+00 0. -1.
         13    1    3    3    0    0  0.22746489235E+02 -0.31917391284E+02 -0.28563722143E+03  0.28831362248E+03  0.00000000000E+00 0. -1.
        -14    1    3    3    0    0 -0.23574546251E+02  0.33528783222E+02 -0.35264296507E+03  0.35501690009E+03  0.00000000000E+00 0.  1.
          5    1    4    4  501    0 -0.15049270174E+02 -0.29956367679E+02 -0.20852307783E+02  0.39700826656E+02  0.41800000000E+01 0. -1.
         -5    1    4    4    0  501  0.12643394363E+02  0.10311328793E+03  0.16639401958E+02  0.10529267622E+03  0.41800000000E+01 0. -1.
</event>
<event>
11    1  0.6930157E-009  0.1270798E+03  0.7561462E-02  0.1122910E+00
         22   -1    0    0    0    0  0.00000000000E+00  0.00000000000E+00  0.59633539641E+02  0.59633539641E+02  0.00000000000E+00 0.  1.
         22   -1    0    0    0    0 -0.00000000000E+00 -0.00000000000E+00 -0.85951489251E+03  0.85951489251E+03  0.00000000000E+00 0.  1.
         24    2    1    2    0    0 -0.98668688214E+01  0.13810897000E+01 -0.48242916107E+03  0.48855005697E+03  0.76446060820E+02 0.  0.
         25    2    1    2    0    0 -0.13593216932E+02 -0.29913416770E+00 -0.32252483417E+03  0.34619813033E+03  0.12508401880E+03 0.  0.
        -24    2    1    2    0    0  0.23460085754E+02 -0.10819555323E+01  0.50726423643E+01  0.84400244848E+02  0.80908116889E+02 0.  0.
        -13    1    3    3    0    0 -0.30341142492E+01  0.14945628709E+02 -0.46571968989E+03  0.46596932004E+03  0.00000000000E+00 0.  1.
         14    1    3    3    0    0 -0.68327545722E+01 -0.13564539009E+02 -0.16709471173E+02  0.22580736933E+02  0.00000000000E+00 0. -1.
         13    1    5    5    0    0  0.41190744623E+02  0.22512706607E+02 -0.14329519627E+02  0.49079879117E+02  0.00000000000E+00 0. -1.
        -14    1    5    5    0    0 -0.17730658869E+02 -0.23594662140E+02  0.19402161992E+02  0.35320365731E+02  0.00000000000E+00 0.  1.
          5    1    4    4  501    0  0.13820874823E+02 -0.58987908714E+02 -0.14663846388E+03  0.15871641832E+03  0.41800000000E+01 0.  1.
         -5    1    4    4    0  501 -0.27414091755E+02  0.58688774547E+02 -0.17588637029E+03  0.18748171201E+03  0.41800000000E+01 0.  1.
</event>
<event>
11    1  0.6930157E-009  0.1404422E+03  0.7561462E-02  0.1107066E+00
         22   -1    0    0    0    0  0.00000000000E+00  0.00000000000E+00  0.12612563907E+04  0.12612563907E+04  0.00000000000E+00 0.  1.
         22   -1    0    0    0    0 -0.00000000000E+00 -0.00000000000E+00 -0.69485582394E+03  0.69485582394E+03  0.00000000000E+00 0. -1.
        -24    2    1    2    0    0 -0.52060591365E+02 -0.34387383862E+02 -0.61266026432E+03  0.62109120098E+03  0.80677649438E+02 0.  0.
         25    2    1    2    0    0  0.82373914511E+02  0.40251381967E+02  0.25449757896E+01  0.15511347517E+03  0.12509227688E+03 0.  0.
         24    2    1    2    0    0 -0.30313323146E+02 -0.58639981055E+01  0.11765158552E+04  0.11799075384E+04  0.83898495942E+02 0.  0.
        -13    1    5    5    0    0 -0.16253521478E+02  0.10412852350E+02  0.11063667087E+04  0.11065350869E+04  0.00000000000E+00 0.  1.
         14    1    5    5    0    0 -0.14059801668E+02 -0.16276850455E+02  0.70149146546E+02  0.73372451539E+02  0.00000000000E+00 0. -1.
         13    1    3    3    0    0 -0.72332266446E+02 -0.23619694273E+02 -0.52454830115E+03  0.53003845801E+03  0.00000000000E+00 0. -1.
        -14    1    3    3    0    0  0.20271675081E+02 -0.10767689589E+02 -0.88111963165E+02  0.91052742971E+02  0.00000000000E+00 0.  1.
          5    1    4    4  501    0  0.49688167526E+02  0.11583904597E+02 -0.59972811417E+02  0.78849929277E+02  0.41800000000E+01 0. -1.
         -5    1    4    4    0  501  0.32685746986E+02  0.28667477370E+02  0.62517787206E+02  0.76263545891E+02  0.41800000000E+01 0. -1.
</event>
<event>
11    1  0.7858126E-009  0.1830520E+03  0.7561462E-02  0.1067200E+00
         22   -1    0    0    0    0  0.00000000000E+00  0.00000000000E+00  0.51737956226E+03  0.51737956226E+03  0.00000000000E+00 0. -1.
         22   -1    0    0    0    0 -0.00000000000E+00 -0.00000000000E+00 -0.85379192397E+03  0.85379192397E+03  0.00000000000E+00 0. -1.
         24    2    1    2    0    0  0.31552657465E+02  0.21719816696E+02 -0.56505044666E+03  0.57265692551E+03  0.84773972622E+02 0.  0.
         25    2    1    2    0    0  0.92766957657E+02  0.31833144948E+02 -0.24866797561E+03  0.29513042560E+03  0.12508856252E+03 0.  0.
        -24    2    1    2    0    0 -0.12431961512E+03 -0.53552961644E+02  0.47730606057E+03  0.50338413512E+03  0.85154128686E+02 0.  0.
        -11    1    3    3    0    0  0.29994106399E+02 -0.23158394040E+02 -0.13342340605E+03  0.13870026285E+03  0.00000000000E+00 0.  1.
         12    1    3    3    0    0  0.15585510659E+01  0.44878210736E+02 -0.43162704061E+03  0.43395666265E+03  0.00000000000E+00 0. -1.
         11    1    5    5    0    0 -0.11173785777E+03 -0.29054269976E+02  0.45010095506E+03  0.46467232455E+03  0.00000000000E+00 0. -1.
        -12    1    5    5    0    0 -0.12581757356E+02 -0.24498691668E+02  0.27205105509E+02  0.38711810567E+02  0.00000000000E+00 0.  1.
          5    1    4    4  501    0  0.11490462650E+03 -0.47927131681E+01 -0.19417095283E+03  0.22571192838E+03  0.41800000000E+01 0.  1.
         -5    1    4    4    0  501 -0.22137668844E+02  0.36625858116E+02 -0.54497022779E+02  0.69418497221E+02  0.41800000000E+01 0.  1.
</event>
<event>
11    1  0.6930157E-009  0.1667975E+03  0.7561462E-02  0.1080853E+00
         22   -1    0    0    0    0  0.00000000000E+00  0.00000000000E+00  0.98685940249E+03  0.98685940249E+03  0.00000000000E+00 0.  1.
         22   -1    0    0    0    0 -0.00000000000E+00 -0.00000000000E+00 -0.76302403471E+03  0.76302403471E+03  0.00000000000E+00 0. -1.
        -24    2    1    2    0    0  0.19686727443E+02  0.63247996854E+02 -0.70506166543E+03  0.71256713676E+03  0.79070196552E+02 0.  0.
         25    2    1    2    0    0  0.78944382057E+02 -0.31236670212E+01  0.64447881318E+02  0.16137612854E+03  0.12508698054E+03 0.  0.
         24    2    1    2    0    0 -0.98631109500E+02 -0.60124329832E+02  0.86444915189E+03  0.87594017191E+03  0.81583195331E+02 0.  0.
        -11    1    5    5    0    0 -0.78011334058E+02 -0.72522572460E+02  0.52827288844E+03  0.53890401410E+03  0.00000000000E+00 0.  1.
         12    1    5    5    0    0 -0.20619775442E+02  0.12398242628E+02  0.33617626345E+03  0.33703615780E+03  0.00000000000E+00 0. -1.
         13    1    3    3    0    0  0.19810072794E+02  0.29379508194E+02 -0.61998518844E+03  0.62099696325E+03  0.00000000000E+00 0. -1.
        -14    1    3    3    0    0 -0.12334535103E+00  0.33868488660E+02 -0.85076476989E+02  0.91570173501E+02  0.00000000000E+00 0.  1.
          5    1    4    4  501    0 -0.26165054666E+02  0.26349309008E+02  0.72506377587E+01  0.38064948690E+02  0.41800000000E+01 0. -1.
         -5    1    4    4    0  501  0.10510943672E+03 -0.29472976029E+02  0.57197243559E+02  0.12331117985E+03  0.41800000000E+01 0. -1.
</event>
<event>
11    1  0.6930157E-009  0.1471989E+03  0.7561462E-02  0.1099776E+00
         22   -1    0    0    0    0  0.00000000000E+00  0.00000000000E+00  0.15729607923E+04  0.15729607923E+04  0.00000000000E+00 0. -1.
         22   -1    0    0    0    0 -0.00000000000E+00 -0.00000000000E+00 -0.62971510220E+02  0.62971510220E+02  0.00000000000E+00 0. -1.
         24    2    1    2    0    0  0.55030643178E+02  0.25957485679E+02  0.78986340577E+01  0.10087190242E+03  0.80066157187E+02 0.  0.
         25    2    1    2    0    0 -0.94224907591E+01 -0.90179120530E+02  0.42843139327E+03  0.45543530550E+03  0.12508717620E+03 0.  0.
        -24    2    1    2    0    0 -0.45608152419E+02  0.64221634851E+02  0.10736592548E+04  0.10796250946E+04  0.81496181596E+02 0.  0.
        -13    1    3    3    0    0 -0.12907479876E+01  0.24343689366E+01  0.34271129759E+02  0.34381717779E+02  0.00000000000E+00 0.  1.
         14    1    3    3    0    0  0.56321391165E+02  0.23523116742E+02 -0.26372495702E+02  0.66490184641E+02  0.00000000000E+00 0. -1.
         11    1    5    5    0    0 -0.24159891170E+02  0.63622893196E+02  0.10129872792E+04  0.10152708016E+04  0.00000000000E+00 0. -1.
        -12    1    5    5    0    0 -0.21448261249E+02  0.59874165506E+00  0.60671975585E+02  0.64354292969E+02  0.00000000000E+00 0.  1.
          5    1    4    4  501    0  0.17348428823E+02 -0.80490655044E+01  0.12813750282E+01  0.19618097769E+02  0.41800000000E+01 0. -1.
         -5    1    4    4    0  501 -0.26770919582E+02 -0.82130055026E+02  0.42715001824E+03  0.43581720773E+03  0.41800000000E+01 0. -1.
</event>
<event>
11    1  0.6930157E-009  0.3540992E+03  0.7561462E-02  0.9795830E-01
         22   -1    0    0    0    0  0.00000000000E+00  0.00000000000E+00  0.92172003282E+03  0.92172003282E+03  0.00000000000E+00 0. -1.
         22   -1    0    0    0    0 -0.00000000000E+00 -0.00000000000E+00 -0.50930637217E+03  0.50930637217E+03  0.00000000000E+00 0. -1.
        -24    2    1    2    0    0  0.34720176055E+02 -0.31304273136E+02 -0.30263133542E+03  0.31694384784E+03  0.81744904188E+02 0.  0.
         25    2    1    2    0    0  0.16207266296E+03  0.29648852553E+03  0.45341240747E+02  0.36314791391E+03  0.12509030902E+03 0.  0.
         24    2    1    2    0    0 -0.19679283902E+03 -0.26518425240E+03  0.66970375532E+03  0.75093464324E+03  0.79684435844E+02 0.  0.
        -13    1    5    5    0    0 -0.44898670277E+01 -0.49523835075E+02  0.12053385889E+03  0.13038857421E+03  0.00000000000E+00 0.  1.
         14    1    5    5    0    0 -0.19230297199E+03 -0.21566041732E+03  0.54916989643E+03  0.62054606903E+03  0.00000000000E+00 0. -1.
         11    1    3    3    0    0  0.11201562543E+02 -0.11437721634E+02 -0.27533204048E+03  0.27579707938E+03  0.00000000000E+00 0. -1.
        -12    1    3    3    0    0  0.23518613512E+02 -0.19866551502E+02 -0.27299294939E+02  0.41146768455E+02  0.00000000000E+00 0.  1.
          5    1    4    4  501    0  0.17925099993E+03  0.29010910122E+03  0.38791412027E+02  0.34324402053E+03  0.41800000000E+01 0. -1.
         -5    1    4    4    0  501 -0.17178336963E+02  0.63794243182E+01  0.65498287197E+01  0.19903893380E+02  0.41800000000E+01 0. -1.
</event>
<event>
11    1  0.6930157E-009  0.2541079E+03  0.7561462E-02  0.1021733E+00
         22   -1    0    0    0    0  0.00000000000E+00  0.00000000000E+00  0.20535909457E+04  0.20535909457E+04  0.00000000000E+00 0. -1.
         22   -1    0    0    0    0 -0.00000000000E+00 -0.00000000000E+00 -0.10123526805E+03  0.10123526805E+03  0.00000000000E+00 0. -1.
        -24    2    1    2    0    0  0.22892615876E+03 -0.14904188003E+02  0.17540007078E+03  0.29970323040E+03  0.80171818614E+02 0.  0.
         25    2    1    2    0    0 -0.20432632448E+03  0.44296667848E+02  0.35656425891E+03  0.43184370339E+03  0.12505787367E+03 0.  0.
         24    2    1    2    0    0 -0.24599834281E+02 -0.29392479846E+02  0.14203913480E+04  0.14232792800E+04  0.82117341016E+02 0.  0.
        -13    1    5    5    0    0  0.14048323149E+02  0.80237370291E+01  0.71154679865E+02  0.72970707862E+02  0.00000000000E+00 0.  1.
         14    1    5    5    0    0 -0.38648157430E+02 -0.37416216875E+02  0.13492366681E+04  0.13503085721E+04  0.00000000000E+00 0. -1.
         13    1    3    3    0    0  0.21754995025E+03 -0.31495228308E+02  0.14529948419E+03  0.26349927963E+03  0.00000000000E+00 0. -1.
        -14    1    3    3    0    0  0.11376208509E+02  0.16591040306E+02  0.30100586588E+02  0.36203950771E+02  0.00000000000E+00 0.  1.
          5    1    4    4  501    0 -0.19332030684E+03  0.70973197905E+02  0.26432107398E+03  0.33510153447E+03  0.41800000000E+01 0. -1.
         -5    1    4    4    0  501 -0.11006017640E+02 -0.26676530057E+02  0.92243184932E+02  0.96742168916E+02  0.41800000000E+01 0. -1.
</event>
<event>
11    1  0.6930157E-009  0.1366729E+03  0.7561462E-02  0.1111332E+00
         22   -1    0    0    0    0  0.00000000000E+00  0.00000000000E+00  0.18738211041E+03  0.18738211041E+03  0.00000000000E+00 0. -1.
         22   -1    0    0    0    0 -0.00000000000E+00 -0.00000000000E+00 -0.99650638368E+03  0.99650638368E+03  0.00000000000E+00 0. -1.
        -24    2    1    2    0    0  0.86794208257E+01  0.83031725615E+01 -0.87387698974E+03  0.87772064280E+03  0.81168088469E+02 0.  0.
         25    2    1    2    0    0 -0.62343333890E+02 -0.29866754635E+01 -0.56164363421E+02  0.15065743231E+03  0.12509042602E+03 0.  0.
         24    2    1    2    0    0  0.53663913064E+02 -0.53164970979E+01  0.12091707988E+03  0.15551041898E+03  0.81574931786E+02 0.  0.
        -11    1    5    5    0    0 -0.15256463818E+02 -0.14832876295E+02  0.77086067017E+01  0.22631759204E+02  0.00000000000E+00 0.  1.
         12    1    5    5    0    0  0.68920376882E+02  0.95163791970E+01  0.11320847318E+03  0.13287865977E+03  0.00000000000E+00 0. -1.
         11    1    3    3    0    0  0.23898280574E+02  0.49379640406E+01 -0.84081287574E+03  0.84116692951E+03  0.00000000000E+00 0. -1.
        -12    1    3    3    0    0 -0.15218859748E+02  0.33652085209E+01 -0.33064114003E+02  0.36553713289E+02  0.00000000000E+00 0.  1.
          5    1    4    4  501    0  0.95881413895E+01  0.47563617121E+02 -0.35449460311E+02  0.60235925869E+02  0.41800000000E+01 0.  1.
         -5    1    4    4    0  501 -0.71931475279E+02 -0.50550292584E+02 -0.20714903109E+02  0.90421506441E+02  0.41800000000E+01 0.  1.
</event>
<event>
11    1  0.6930157E-009  0.1389670E+03  0.7561462E-02  0.1108717E+00
         22   -1    0    0    0    0  0.00000000000E+00  0.00000000000E+00  0.50562305916E+03  0.50562305916E+03  0.00000000000E+00 0. -1.
         22   -1    0    0    0    0 -0.00000000000E+00 -0.00000000000E+00 -0.18282654979E+04  0.18282654979E+04  0.00000000000E+00 0. -1.
         24    2    1    2    0    0 -0.10304930144E+02 -0.34163993555E+02 -0.17812678298E+04  0.17836208766E+04  0.84350339335E+02 0.  0.
         25    2    1    2    0    0  0.64759593888E+02  0.60805583691E+01  0.88337482843E+02  0.16637994342E+03  0.12509195220E+03 0.  0.
        -24    2    1    2    0    0 -0.54454663744E+02  0.28083435186E+02  0.37028790820E+03  0.38388773710E+03  0.80639134423E+02 0.  0.
        -11    1    3    3    0    0  0.17320715717E+02 -0.27992702430E+02 -0.25818535659E+03  0.26027538673E+03  0.00000000000E+00 0.  1.
         12    1    3    3    0    0 -0.27625645861E+02 -0.61712911246E+01 -0.15230824732E+04  0.15233454898E+04  0.00000000000E+00 0. -1.
         13    1    5    5    0    0 -0.59281298342E+02 -0.12344851022E+02  0.22358297711E+03  0.23163768116E+03  0.00000000000E+00 0. -1.
        -14    1    5    5    0    0  0.48266345985E+01  0.40428286207E+02  0.14670493109E+03  0.15225005594E+03  0.00000000000E+00 0.  1.
          5    1    4    4  501    0  0.84717532252E+02 -0.85007978269E+01  0.12066828780E+02  0.86095322703E+02  0.41800000000E+01 0.  1.
         -5    1    4    4    0  501 -0.19957938364E+02  0.14581356196E+02  0.76270654063E+02  0.80284620715E+02  0.41800000000E+01 0.  1.
</event>
<event>
11    1  0.6930157E-009  0.1385785E+03  0.7561462E-02  0.1109156E+00
         22   -1    0    0    0    0  0.00000000000E+00  0.00000000000E+00  0.91750825035E+03  0.91750825035E+03  0.00000000000E+00 0.  1.
         22   -1    0    0    0    0 -0.00000000000E+00 -0.00000000000E+00 -0.35971416566E+03  0.35971416566E+03  0.00000000000E+00 0. -1.
         24    2    1    2    0    0 -0.53964997243E+02  0.48800243827E+02 -0.21936758091E+03  0.24894426209E+03  0.92506352998E+02 0.  0.
         25    2    1    2    0    0 -0.12676440930E+02 -0.47294712466E+02 -0.85579022887E+02  0.15927681344E+03  0.12509137524E+03 0.  0.
        -24    2    1    2    0    0  0.66641438173E+02 -0.15055313614E+01  0.86274068849E+03  0.86900134049E+03  0.79990538792E+02 0.  0.
        -11    1    3    3    0    0  0.10733663958E+01  0.57220902421E+02 -0.75957607133E+02  0.95104899299E+02  0.00000000000E+00 0.  1.
         12    1    3    3    0    0 -0.55038363639E+02 -0.84206585937E+01 -0.14340997378E+03  0.15383936279E+03  0.00000000000E+00 0. -1.
         11    1    5    5    0    0  0.38411157365E+02 -0.50804841199E+01  0.12861598186E+03  0.13432534801E+03  0.00000000000E+00 0. -1.
        -12    1    5    5    0    0  0.28230280808E+02  0.35749527585E+01  0.73412470663E+03  0.73467599248E+03  0.00000000000E+00 0.  1.
          5    1    4    4  501    0 -0.59741473952E+02 -0.22886046371E+02 -0.71392836147E+01  0.64507802621E+02  0.41800000000E+01 0. -1.
         -5    1    4    4    0  501  0.47065033021E+02 -0.24408666094E+02 -0.78439739273E+02  0.94769010816E+02  0.41800000000E+01 0. -1.
</event>
<event>
11    1  0.6930157E-009  0.1689141E+03  0.7561462E-02  0.1078981E+00
         22   -1    0    0    0    0  0.00000000000E+00  0.00000000000E+00  0.36324237651E+03  0.36324237651E+03  0.00000000000E+00 0.  1.
         22   -1    0    0    0    0 -0.00000000000E+00 -0.00000000000E+00 -0.68277314763E+03  0.68277314763E+03  0.00000000000E+00 0.  1.
        -24    2    1    2    0    0 -0.14358026265E+02  0.78522675361E+01 -0.56133287382E+03  0.56684119864E+03  0.77113800501E+02 0.  0.
         25    2    1    2    0    0 -0.69408981574E+02 -0.85507813630E+02 -0.33793673142E+02  0.17005307507E+03  0.12508734181E+03 0.  0.
         24    2    1    2    0    0  0.83767007839E+02  0.77655546094E+02  0.27559577583E+03  0.30912125043E+03  0.80966785589E+02 0.  0.
        -11    1    5    5    0    0  0.57874010041E+02  0.78681918510E+02  0.26250775466E+03  0.28009028294E+03  0.00000000000E+00 0.  1.
         12    1    5    5    0    0  0.25892997798E+02 -0.10263724159E+01  0.13088021170E+02  0.29030967491E+02  0.00000000000E+00 0. -1.
         11    1    3    3    0    0 -0.26791822148E+02  0.99286182871E+01 -0.73689861460E+02  0.79035276156E+02  0.00000000000E+00 0. -1.
        -12    1    3    3    0    0  0.12433795883E+02 -0.20763507510E+01 -0.48764301236E+03  0.48780592249E+03  0.00000000000E+00 0.  1.
          5    1    4    4  501    0 -0.55550972011E+02 -0.62491482783E+02  0.38993848560E+02  0.92353064580E+02  0.41800000000E+01 0.  1.
         -5    1    4    4    0  501 -0.13858009563E+02 -0.23016330848E+02 -0.72787521703E+02  0.77700010491E+02  0.41800000000E+01 0.  1.
</event>
<event>
11    1  0.6930157E-009  0.1410576E+03  0.7561462E-02  0.1106383E+00
         22   -1    0    0    0    0  0.00000000000E+00  0.00000000000E+00  0.61775035397E+03  0.61775035397E+03  0.00000000000E+00 0.  1.
         22   -1    0    0    0    0 -0.00000000000E+00 -0.00000000000E+00 -0.92372824887E+03  0.92372824887E+03  0.00000000000E+00 0.  1.
         24    2    1    2    0    0  0.24681217680E+01  0.13537251708E+02 -0.78627042162E+03  0.78999318383E+03  0.75357187877E+02 0.  0.
         25    2    1    2    0    0  0.21178210703E+02  0.47727572718E+02 -0.95659165949E+02  0.16590547417E+03  0.12509001767E+03 0.  0.
        -24    2    1    2    0    0 -0.23646332471E+02 -0.61264824426E+02  0.57595169267E+03  0.58557994485E+03  0.82891445710E+02 0.  0.
        -11    1    3    3    0    0  0.37039104071E+02  0.64325211429E+01 -0.52584744321E+03  0.52718953526E+03  0.00000000000E+00 0.  1.
         12    1    3    3    0    0 -0.34570982303E+02  0.71047305652E+01 -0.26042297842E+03  0.26280364857E+03  0.00000000000E+00 0. -1.
         11    1    5    5    0    0  0.63375922814E+01 -0.15213154986E+02  0.16105622572E+02  0.23043355636E+02  0.00000000000E+00 0. -1.
        -12    1    5    5    0    0 -0.29983924752E+02 -0.46051669440E+02  0.55984607010E+03  0.56253658922E+03  0.00000000000E+00 0.  1.
          5    1    4    4  501    0 -0.62131224725E+01  0.87014717574E+02 -0.65261909887E+02  0.10902638785E+03  0.41800000000E+01 0.  1.
         -5    1    4    4    0  501  0.27391333175E+02 -0.39287144856E+02 -0.30397256062E+02  0.56879086316E+02  0.41800000000E+01 0.  1.
</event>
<event>
11    1  0.6930157E-009  0.1491502E+03  0.7561462E-02  0.1097750E+00
         22   -1    0    0    0    0  0.00000000000E+00  0.00000000000E+00  0.56040515045E+03  0.56040515045E+03  0.00000000000E+00 0. -1.
         22   -1    0    0    0    0 -0.00000000000E+00 -0.00000000000E+00 -0.46172138128E+03  0.46172138128E+03  0.00000000000E+00 0.  1.
        -24    2    1    2    0    0 -0.14840913984E+02  0.52235672455E+02 -0.35340334170E+03  0.36631542237E+03  0.79650791175E+02 0.  0.
         25    2    1    2    0    0  0.78665885819E+02  0.91736478607E+00 -0.34081377432E+02  0.15164998678E+03  0.12508802921E+03 0.  0.
         24    2    1    2    0    0 -0.63824971835E+02 -0.53153037241E+02  0.48616848830E+03  0.50416112258E+03  0.10449768470E+03 0.  0.
        -11    1    5    5    0    0 -0.75779800532E+02 -0.52898438576E+02  0.23225760265E+03  0.24996883198E+03  0.00000000000E+00 0.  1.
         12    1    5    5    0    0  0.11954828697E+02 -0.25459866502E+00  0.25391088565E+03  0.25419229060E+03  0.00000000000E+00 0. -1.
         13    1    3    3    0    0  0.30715640591E+02  0.24788370023E+02 -0.10250231457E+03  0.10983914765E+03  0.00000000000E+00 0. -1.
        -14    1    3    3    0    0 -0.45556554574E+02  0.27447302432E+02 -0.25090102714E+03  0.25647627472E+03  0.00000000000E+00 0.  1.
          5    1    4    4  501    0  0.70829009437E+02  0.52336907981E+02  0.20335547526E+01  0.88190182332E+02  0.41800000000E+01 0.  1.
         -5    1    4    4    0  501  0.78368763818E+01 -0.51419543195E+02 -0.36114932184E+02  0.63459804447E+02  0.41800000000E+01 0.  1.
</event>
<event>
11    1  0.6930157E-009  0.1758051E+03  0.7561462E-02  0.1073087E+00
         22   -1    0    0    0    0  0.00000000000E+00  0.00000000000E+00  0.95200682776E+03  0.95200682776E+03  0.00000000000E+00 0.  1.
         22   -1    0    0    0    0 -0.00000000000E+00 -0.00000000000E+00 -0.74611867270E+03  0.74611867270E+03  0.00000000000E+00 0.  1.
         24    2    1    2    0    0  0.18364676425E+02 -0.12539879699E+03 -0.69976473914E+03  0.71498146582E+03  0.73930282656E+02 0.  0.
         25    2    1    2    0    0 -0.51646334183E+02  0.52261406878E+02  0.11674896461E+03  0.18622086063E+03  0.12509712112E+03 0.  0.
        -24    2    1    2    0    0  0.33281657759E+02  0.73137390110E+02  0.78890392959E+03  0.79692317402E+03  0.79122617422E+02 0.  0.
        -13    1    3    3    0    0  0.46331000139E+02 -0.67867984500E+02 -0.42466751474E+03  0.43254493751E+03  0.00000000000E+00 0.  1.
         14    1    3    3    0    0 -0.27966323715E+02 -0.57530812487E+02 -0.27509722440E+03  0.28243652830E+03  0.00000000000E+00 0. -1.
         13    1    5    5    0    0 -0.87354515238E+01  0.50845223435E+01  0.11077586564E+02  0.14995779568E+02  0.00000000000E+00 0. -1.
        -14    1    5    5    0    0  0.42017109283E+02  0.68052867767E+02  0.77782634303E+03  0.78192739445E+03  0.00000000000E+00 0.  1.
          5    1    4    4  501    0  0.26899777888E+02 -0.22468409792E+02  0.39858512747E+02  0.53240970384E+02  0.41800000000E+01 0. -1.
         -5    1    4    4    0  501 -0.78546112072E+02  0.74729816670E+02  0.76890451862E+02  0.13297989024E+03  0.41800000000E+01 0. -1.
</event>
<event>
11    1  0.6930157E-009  0.1327382E+03  0.7561462E-02  0.1115950E+00
         22   -1    0    0    0    0  0.00000000000E+00  0.00000000000E+00  0.28735514452E+04  0.28735514452E+04  0.00000000000E+00 0. -1.
         22   -1    0    0    0    0 -0.00000000000E+00 -0.00000000000E+00 -0.45813212778E+03  0.45813212778E+03  0.00000000000E+00 0. -1.
         24    2    1    2    0    0 -0.42692543011E+02  0.16251879170E+00 -0.43980793342E+03  0.44899902434E+03  0.79664458347E+02 0.  0.
         25    2    1    2    0    0  0.80103967117E+02 -0.15898355027E+02  0.43707303156E+03  0.46189949871E+03  0.12509559845E+03 0.  0.
        -24    2    1    2    0    0 -0.37411424107E+02  0.15735836235E+02  0.24181542193E+04  0.24207850499E+04  0.10527677131E+03 0.  0.
        -13    1    3    3    0    0 -0.40204268524E+01  0.86548018186E+01 -0.24499255109E+01  0.98524901219E+01  0.00000000000E+00 0.  1.
         14    1    3    3    0    0 -0.38672116158E+02 -0.84922830269E+01 -0.43735800791E+03  0.43914653422E+03  0.00000000000E+00 0. -1.
         13    1    5    5    0    0  0.12761418280E+02  0.48322706605E+02  0.13836370713E+04  0.13845394479E+04  0.00000000000E+00 0. -1.
        -14    1    5    5    0    0 -0.50172842386E+02 -0.32586870369E+02  0.10345171480E+04  0.10362456020E+04  0.00000000000E+00 0.  1.
          5    1    4    4  501    0 -0.13800501340E+02 -0.37395606055E+02  0.23013867157E+03  0.23360258077E+03  0.41800000000E+01 0. -1.
         -5    1    4    4    0  501  0.93904468457E+02  0.21497251028E+02  0.20693435999E+03  0.22829691794E+03  0.41800000000E+01 0. -1.
</event>
<event>
11    1  0.6930157E-009  0.2407622E+03  0.7561462E-02  0.1028939E+00
         22   -1    0    0    0    0  0.00000000000E+00  0.00000000000E+00  0.27067797873E+03  0.27067797873E+03  0.00000000000E+00 0. -1.
         22   -1    0    0    0    0 -0.00000000000E+00 -0.00000000000E+00 -0.92617526743E+03  0.92617526743E+03  0.00000000000E+00 0. -1.
        -24    2    1    2    0    0  0.13091313105E+03  0.15567378505E+03 -0.73968148016E+03  0.77135403295E+03  0.80534320765E+02 0.  0.
         25    2    1    2    0    0 -0.19610669142E+03 -0.12465079064E+03 -0.28380881979E+02  0.26542257135E+03  0.12509201771E+03 0.  0.
         24    2    1    2    0    0  0.65193560375E+02 -0.31022994414E+02  0.11256507344E+03  0.16007664185E+03  0.87983004112E+02 0.  0.
        -11    1    5    5    0    0  0.10421796009E+01  0.27006283765E+02  0.22122085717E+02  0.34925809619E+02  0.00000000000E+00 0.  1.
         12    1    5    5    0    0  0.64151380774E+02 -0.58029278179E+02  0.90442987721E+02  0.12515083223E+03  0.00000000000E+00 0. -1.
         11    1    3    3    0    0  0.96667585441E+02  0.65995439812E+02 -0.49173992819E+03  0.50547816681E+03  0.00000000000E+00 0. -1.
        -12    1    3    3    0    0  0.34245545609E+02  0.89678345238E+02 -0.24794155197E+03  0.26587586613E+03  0.00000000000E+00 0.  1.
          5    1    4    4  501    0 -0.15581968920E+03 -0.27018001388E+02 -0.16936867846E+02  0.15910398434E+03  0.41800000000E+01 0. -1.
         -5    1    4    4    0  501 -0.40287002228E+02 -0.97632789248E+02 -0.11444014134E+02  0.10631858701E+03  0.41800000000E+01 0. -1.
</event>
<event>
11    1  0.6930157E-009  0.1361482E+03  0.7561462E-02  0.1111937E+00
         22   -1    0    0    0    0  0.00000000000E+00  0.00000000000E+00  0.12497060057E+03  0.12497060057E+03  0.00000000000E+00 0. -1.
         22   -1    0    0    0    0 -0.00000000000E+00 -0.00000000000E+00 -0.86616498718E+03  0.86616498718E+03  0.00000000000E+00 0.  1.
        -24    2    1    2    0    0  0.55935610282E+02 -0.11341335776E+01 -0.66966021650E+03  0.67627888554E+03  0.76014779567E+02 0.  0.
         25    2    1    2    0    0 -0.34885191721E+02  0.32169132266E+02 -0.14737027312E+03  0.19904111302E+03  0.12509011792E+03 0.  0.
         24    2    1    2    0    0 -0.21050418560E+02 -0.31034998688E+02  0.75836103008E+02  0.11581558919E+03  0.79093899346E+02 0.  0.
        -11    1    5    5    0    0  0.23606603958E+02 -0.17021223247E+01  0.52351442873E+02  0.57452959381E+02  0.00000000000E+00 0.  1.
         12    1    5    5    0    0 -0.44657022518E+02 -0.29332876364E+02  0.23484660135E+02  0.58362629804E+02  0.00000000000E+00 0. -1.
         11    1    3    3    0    0  0.22174876918E+02 -0.17184586576E+02 -0.69400458220E+02  0.74856254136E+02  0.00000000000E+00 0. -1.
        -12    1    3    3    0    0  0.33760733363E+02  0.16050452999E+02 -0.60025975828E+03  0.60142263141E+03  0.00000000000E+00 0.  1.
          5    1    4    4  501    0  0.27404041402E+02  0.22480664956E+02  0.31207934852E+01  0.35826994487E+02  0.41800000000E+01 0. -1.
         -5    1    4    4    0  501 -0.62289233123E+02  0.96884673096E+01 -0.15049106660E+03  0.16321411854E+03  0.41800000000E+01 0. -1.
</event>
<event>
11    1  0.6930157E-009  0.1833431E+03  0.7561462E-02  0.1066970E+00
         22   -1    0    0    0    0  0.00000000000E+00  0.00000000000E+00  0.57028263710E+02  0.57028263710E+02  0.00000000000E+00 0.  1.
         22   -1    0    0    0    0 -0.00000000000E+00 -0.00000000000E+00 -0.34353680283E+04  0.34353680283E+04  0.00000000000E+00 0. -1.
         24    2    1    2    0    0  0.73933547154E+02  0.10859866503E+03 -0.29306027533E+04  0.29346378469E+04  0.80043460764E+02 0.  0.
         25    2    1    2    0    0 -0.85837015856E+02 -0.14325908746E+03 -0.41433037542E+03  0.46390618804E+03  0.12509249328E+03 0.  0.
        -24    2    1    2    0    0  0.11903468702E+02  0.34660422438E+02 -0.33406635864E+02  0.93852257022E+02  0.79681901193E+02 0.  0.
        -13    1    3    3    0    0  0.20652248750E+02  0.15555880716E+02 -0.14197651474E+04  0.14200005544E+04  0.00000000000E+00 0.  1.
         14    1    3    3    0    0  0.53281298404E+02  0.93042784309E+02 -0.15108376059E+04  0.15146372925E+04  0.00000000000E+00 0. -1.
         13    1    5    5    0    0  0.32574513975E+02  0.42585917924E+02 -0.43954021755E+02  0.69329758362E+02  0.00000000000E+00 0. -1.
        -14    1    5    5    0    0 -0.20671045273E+02 -0.79254954863E+01  0.10547385891E+02  0.24522498660E+02  0.00000000000E+00 0.  1.
          5    1    4    4  501    0  0.31373305338E+02 -0.17197771713E+02 -0.60660390514E+02  0.70549294944E+02  0.41800000000E+01 0. -1.
         -5    1    4    4    0  501 -0.11721032119E+03 -0.12606131575E+03 -0.35366998490E+03  0.39335689309E+03  0.41800000000E+01 0. -1.
</event>
<event>
11    1  0.6930157E-009  0.1414963E+03  0.7561462E-02  0.1105899E+00
         22   -1    0    0    0    0  0.00000000000E+00  0.00000000000E+00  0.12810169103E+03  0.12810169103E+03  0.00000000000E+00 0.  1.
         22   -1    0    0    0    0 -0.00000000000E+00 -0.00000000000E+00 -0.21701300038E+04  0.21701300038E+04  0.00000000000E+00 0.  1.
        -24    2    1    2    0    0 -0.23891884311E+01  0.67220101245E+02 -0.19941069689E+04  0.19981292530E+04  0.10739486973E+03 0.  0.
         25    2    1    2    0    0 -0.31555861542E+02 -0.49124828780E+02 -0.12168892394E+03  0.18402718207E+03  0.12509511714E+03 0.  0.
         24    2    1    2    0    0  0.33945049973E+02 -0.18095272464E+02  0.73767580025E+02  0.11607525980E+03  0.80945072562E+02 0.  0.
        -13    1    5    5    0    0  0.52460581378E+01 -0.25126157701E+02  0.81571290557E+02  0.85514445388E+02  0.00000000000E+00 0.  1.
         14    1    5    5    0    0  0.28698991835E+02  0.70308852369E+01 -0.78037105323E+01  0.30560814414E+02  0.00000000000E+00 0. -1.
         11    1    3    3    0    0  0.68758119310E+01  0.46672655383E+02 -0.28534037333E+03  0.28921400762E+03  0.00000000000E+00 0. -1.
        -12    1    3    3    0    0 -0.92650003621E+01  0.20547445861E+02 -0.17087665955E+04  0.17089152454E+04  0.00000000000E+00 0.  1.
          5    1    4    4  501    0 -0.49005443152E+02 -0.59962007635E+02 -0.19849506501E+02  0.80052802115E+02  0.41800000000E+01 0. -1.
         -5    1    4    4    0  501  0.17449581610E+02  0.10837178854E+02 -0.10183941744E+03  0.10397437996E+03  0.41800000000E+01 0. -1.
</event>
<event>
11    1  0.6930157E-009  0.1601221E+03  0.7561462E-02  0.1086963E+00
         22   -1    0    0    0    0  0.00000000000E+00  0.00000000000E+00  0.93362153552E+02  0.93362153552E+02  0.00000000000E+00 0. -1.
         22   -1    0    0    0    0 -0.00000000000E+00 -0.00000000000E+00 -0.23052794204E+04  0.23052794204E+04  0.00000000000E+00 0. -1.
         24    2    1    2    0    0  0.78217290248E+02 -0.60680605628E+02 -0.19771993008E+04  0.19812620838E+04  0.79260894795E+02 0.  0.
         25    2    1    2    0    0 -0.95305110290E+02  0.58280005585E+02 -0.27735275618E+03  0.32411552728E+03  0.12508677215E+03 0.  0.
        -24    2    1    2    0    0  0.17087820041E+02  0.24006000428E+01  0.42634790042E+02  0.93263962903E+02  0.81133747480E+02 0.  0.
        -13    1    3    3    0    0 -0.32007952377E-01 -0.23845012997E+02 -0.13908158199E+03  0.14111085046E+03  0.00000000000E+00 0.  1.
         14    1    3    3    0    0  0.78249298201E+02 -0.36835592631E+02 -0.18381177188E+04  0.18401512334E+04  0.00000000000E+00 0. -1.
         13    1    5    5    0    0  0.45547006317E+02 -0.87922256792E+01  0.42152455593E+02  0.62679043782E+02  0.00000000000E+00 0. -1.
        -14    1    5    5    0    0 -0.28459186276E+02  0.11192825722E+02  0.48233444973E+00  0.30584919121E+02  0.00000000000E+00 0.  1.
          5    1    4    4  501    0  0.25599007835E+01 -0.23806603018E+02 -0.73487995395E+01  0.25392611011E+02  0.41800000000E+01 0. -1.
         -5    1    4    4    0  501 -0.97865011073E+02  0.82086608604E+02 -0.27000395664E+03  0.29872291627E+03  0.41800000000E+01 0. -1.
</event>
<event>
11    1  0.6930157E-009  0.1566444E+03  0.7561462E-02  0.1090277E+00
         22   -1    0    0    0    0  0.00000000000E+00  0.00000000000E+00  0.44693831671E+03  0.44693831671E+03  0.00000000000E+00 0.  1.
         22   -1    0    0    0    0 -0.00000000000E+00 -0.00000000000E+00 -0.11146490392E+04  0.11146490392E+04  0.00000000000E+00 0. -1.
         24    2    1    2    0    0 -0.21894860868E+02 -0.93458961662E+02 -0.10241628719E+04  0.10316744193E+04  0.78921206179E+02 0.  0.
         25    2    1    2    0    0  0.27636172124E+02  0.61567357850E+02 -0.20313711600E+02  0.14357898421E+03  0.12509188729E+03 0.  0.
        -24    2    1    2    0    0 -0.57413112559E+01  0.31891603813E+02  0.37676586103E+03  0.38633395239E+03  0.79065616326E+02 0.  0.
        -13    1    3    3    0    0 -0.52948628024E-01  0.62833430762E+01 -0.70279771963E+01  0.94273892061E+01  0.00000000000E+00 0.  1.
         14    1    3    3    0    0 -0.21841912240E+02 -0.99742304739E+02 -0.10171348947E+04  0.10222470301E+04  0.00000000000E+00 0. -1.
         11    1    5    5    0    0  0.26366544642E+02  0.22071861822E+02  0.72719819694E+02  0.80439629145E+02  0.00000000000E+00 0. -1.
        -12    1    5    5    0    0 -0.32107855898E+02  0.98197419906E+01  0.30404604134E+03  0.30589432325E+03  0.00000000000E+00 0.  1.
          5    1    4    4  501    0  0.59778584237E+02  0.70497745744E+02  0.16212848359E+02  0.93934765344E+02  0.41800000000E+01 0.  1.
         -5    1    4    4    0  501 -0.32142412113E+02 -0.89303878940E+01 -0.36526559959E+02  0.49644218865E+02  0.41800000000E+01 0.  1.
</event>
<event>
11    1  0.6930157E-009  0.1578651E+03  0.7561462E-02  0.1089103E+00
         22   -1    0    0    0    0  0.00000000000E+00  0.00000000000E+00  0.70811242175E+03  0.70811242175E+03  0.00000000000E+00 0.  1.
         22   -1    0    0    0    0 -0.00000000000E+00 -0.00000000000E+00 -0.19646610764E+03  0.19646610764E+03  0.00000000000E+00 0. -1.
        -24    2    1    2    0    0  0.95310224563E+02  0.37001442007E+01 -0.13403932193E+03  0.18105186004E+03  0.75600967110E+02 0.  0.
         25    2    1    2    0    0 -0.10207085705E+03 -0.34905413566E+02  0.15926539916E+03  0.22945617395E+03  0.12509124925E+03 0.  0.
         24    2    1    2    0    0  0.67606324886E+01  0.31205269365E+02  0.48642023689E+03  0.49407049540E+03  0.80507965949E+02 0.  0.
        -11    1    5    5    0    0  0.34643948413E+02  0.43834395565E+02  0.32681358840E+03  0.33155509189E+03  0.00000000000E+00 0.  1.
         12    1    5    5    0    0 -0.27883315924E+02 -0.12629126200E+02  0.15960664849E+03  0.16251540351E+03  0.00000000000E+00 0. -1.
         13    1    3    3    0    0  0.30707850073E+02 -0.25486156275E+02 -0.87721786322E+02  0.96372340499E+02  0.00000000000E+00 0. -1.
        -14    1    3    3    0    0  0.64602374490E+02  0.29186300476E+02 -0.46317535607E+02  0.84679519542E+02  0.00000000000E+00 0.  1.
          5    1    4    4  501    0 -0.38755198294E+02  0.47074210526E+02  0.51508043473E+02  0.79928077881E+02  0.41800000000E+01 0.  1.
         -5    1    4    4    0  501 -0.63315658757E+02 -0.81979624091E+02  0.10775735568E+03  0.14952809607E+03  0.41800000000E+01 0.  1.
</event>
<event>
11    1  0.6930157E-009  0.2123681E+03  0.7561462E-02  0.1046106E+00
         22   -1    0    0    0    0  0.00000000000E+00  0.00000000000E+00  0.14294536531E+04  0.14294536531E+04  0.00000000000E+00 0.  1.
         22   -1    0    0    0    0 -0.00000000000E+00 -0.00000000000E+00 -0.32483957381E+03  0.32483957381E+03  0.00000000000E+00 0. -1.
         24    2    1    2    0    0 -0.63596438955E+00  0.16926637564E+03 -0.26696358657E+03  0.32633817122E+03  0.81089673011E+02 0.  0.
         25    2    1    2    0    0 -0.12368405830E+02 -0.22411099426E+03  0.63697806090E+03  0.68685248574E+03  0.12508625776E+03 0.  0.
        -24    2    1    2    0    0  0.13004370220E+02  0.54844618618E+02  0.73459960494E+03  0.74110256993E+03  0.80121119187E+02 0.  0.
        -13    1    3    3    0    0  0.26126922319E+02  0.21565669248E+02 -0.27122113681E+02  0.43397041495E+02  0.00000000000E+00 0.  1.
         14    1    3    3    0    0 -0.26762886709E+02  0.14770070639E+03 -0.23984147289E+03  0.28294112973E+03  0.00000000000E+00 0. -1.
         11    1    5    5    0    0  0.44004582968E+01  0.11835521936E+02  0.12829891349E+02  0.18001381190E+02  0.00000000000E+00 0. -1.
        -12    1    5    5    0    0  0.86039119232E+01  0.43009096683E+02  0.72176971359E+03  0.72310118874E+03  0.00000000000E+00 0.  1.
          5    1    4    4  501    0 -0.53979507104E+02 -0.18430678133E+03  0.54886274361E+03  0.58150714574E+03  0.41800000000E+01 0. -1.
         -5    1    4    4    0  501  0.41611101273E+02 -0.39804212934E+02  0.88115317295E+02  0.10534533999E+03  0.41800000000E+01 0. -1.
</event>
<event>
11    1  0.6930157E-009  0.2196689E+03  0.7561462E-02  0.1041425E+00
         22   -1    0    0    0    0  0.00000000000E+00  0.00000000000E+00  0.22443919398E+03  0.22443919398E+03  0.00000000000E+00 0.  1.
         22   -1    0    0    0    0 -0.00000000000E+00 -0.00000000000E+00 -0.64024336410E+03  0.64024336410E+03  0.00000000000E+00 0. -1.
         24    2    1    2    0    0 -0.17252044430E+02  0.17222454247E+03 -0.33668703201E+03  0.38884142117E+03  0.88772558990E+02 0.  0.
         25    2    1    2    0    0 -0.33273432491E+02 -0.19770434764E+03 -0.20744544491E+03  0.31444335720E+03  0.12508749694E+03 0.  0.
        -24    2    1    2    0    0  0.50525476921E+02  0.25479805163E+02  0.12832830680E+03  0.16139777971E+03  0.79868921868E+02 0.  0.
        -13    1    3    3    0    0  0.33737436524E+02  0.42077654442E+02 -0.11028643096E+03  0.12276742435E+03  0.00000000000E+00 0.  1.
         14    1    3    3    0    0 -0.50989480954E+02  0.13014688803E+03 -0.22640060105E+03  0.26607399682E+03  0.00000000000E+00 0. -1.
         13    1    5    5    0    0  0.13692999053E+02 -0.16258792914E+02 -0.28065760555E+00  0.21258535669E+02  0.00000000000E+00 0. -1.
        -14    1    5    5    0    0  0.36832477868E+02  0.41738598077E+02  0.12860896440E+03  0.14013924404E+03  0.00000000000E+00 0.  1.
          5    1    4    4  501    0 -0.42430411446E+02 -0.76510893928E+01 -0.58381722295E+02  0.72696470908E+02  0.41800000000E+01 0. -1.
         -5    1    4    4    0  501  0.91569789556E+01 -0.19005325824E+03 -0.14906372262E+03  0.24174688630E+03  0.41800000000E+01 0. -1.
</event>
<event>
11    1  0.6930157E-009  0.1382050E+03  0.7561462E-02  0.1109580E+00
         22   -1    0    0    0    0  0.00000000000E+00  0.00000000000E+00  0.54120717595E+03  0.54120717595E+03  0.00000000000E+00 0.  1.
         22   -1    0    0    0    0 -0.00000000000E+00 -0.00000000000E+00 -0.42545929274E+03  0.42545929274E+03  0.00000000000E+00 0.  1.
        -24    2    1    2    0    0  0.14655084652E+02 -0.56844669423E+02 -0.33062609711E+03  0.34646172322E+03  0.85299599176E+02 0.  0.
         25    2    1    2    0    0 -0.58561575986E+02  0.43929731923E+02 -0.18934129593E+02  0.14617361154E+03  0.12509573902E+03 0.  0.
         24    2    1    2    0    0  0.43906491334E+02  0.12914937500E+02  0.46530810991E+03  0.47403113393E+03  0.78098035825E+02 0.  0.
        -11    1    5    5    0    0  0.57717443618E+02  0.28963342824E+02  0.27170379652E+03  0.27927250414E+03  0.00000000000E+00 0.  1.
         12    1    5    5    0    0 -0.13810952284E+02 -0.16048405323E+02  0.19360431339E+03  0.19475862979E+03  0.00000000000E+00 0. -1.
         11    1    3    3    0    0  0.10010468024E+02  0.21590124162E+02 -0.56753829752E+02  0.61541369200E+02  0.00000000000E+00 0. -1.
        -12    1    3    3    0    0  0.46446166283E+01 -0.78434793586E+02 -0.27387226735E+03  0.28492035402E+03  0.00000000000E+00 0.  1.
          5    1    4    4  501    0 -0.30290758274E+01  0.78533801645E+02 -0.17331520044E+02  0.80589002278E+02  0.41800000000E+01 0. -1.
         -5    1    4    4    0  501 -0.55532500159E+02 -0.34604069722E+02 -0.16026095491E+01  0.65584609266E+02  0.41800000000E+01 0. -1.
</event>
<event>
11    1  0.6930157E-009  0.2937897E+03  0.7561462E-02  0.1002854E+00
         22   -1    0    0    0    0  0.00000000000E+00  0.00000000000E+00  0.40565802266E+03  0.40565802266E+03  0.00000000000E+00 0.  1.
         22   -1    0    0    0    0 -0.00000000000E+00 -0.00000000000E+00 -0.77500913697E+03  0.77500913697E+03  0.00000000000E+00 0.  1.
         24    2    1    2    0    0  0.35937875139E+02  0.15155250654E+02 -0.42651148460E+03  0.43488224677E+03  0.75427511980E+02 0.  0.
         25    2    1    2    0    0 -0.29491942037E+03 -0.30578709140E+02 -0.19360334318E+03  0.37555510775E+03  0.12508741943E+03 0.  0.
        -24    2    1    2    0    0  0.25898154523E+03  0.15423458486E+02  0.25076371348E+03  0.37022980511E+03  0.82935786917E+02 0.  0.
        -13    1    3    3    0    0 -0.14536736913E+02  0.96893274582E+01 -0.26509054904E+03  0.26566557733E+03  0.00000000000E+00 0.  1.
         14    1    3    3    0    0  0.50474612053E+02  0.54659231955E+01 -0.16142093556E+03  0.16921666944E+03  0.00000000000E+00 0. -1.
         13    1    5    5    0    0  0.15198438522E+03  0.13743527521E+02  0.90183307673E+02  0.17726016722E+03  0.00000000000E+00 0. -1.
        -14    1    5    5    0    0  0.10699716001E+03  0.16799309654E+01  0.16058040581E+03  0.19296963789E+03  0.00000000000E+00 0.  1.
          5    1    4    4  501    0 -0.19912318292E+02 -0.19614525053E+02 -0.66724821286E+02  0.72463122955E+02  0.41800000000E+01 0. -1.
         -5    1    4    4    0  501 -0.27500710208E+03 -0.10964184087E+02 -0.12687852190E+03  0.30309198479E+03  0.41800000000E+01 0. -1.
</event>
<event>
11    1  0.6930157E-009  0.1554992E+03  0.7561462E-02  0.1091388E+00
         22   -1    0    0    0    0  0.00000000000E+00  0.00000000000E+00  0.62778006658E+03  0.62778006658E+03  0.00000000000E+00 0.  1.
         22   -1    0    0    0    0 -0.00000000000E+00 -0.00000000000E+00 -0.24466466455E+04  0.24466466455E+04  0.00000000000E+00 0.  1.
        -24    2    1    2    0    0  0.78131480157E+02  0.12061118359E+02 -0.23433333629E+04  0.23464189639E+04  0.90668109164E+02 0.  0.
         25    2    1    2    0    0 -0.22176913021E+02  0.65950556208E+02 -0.41005760253E+02  0.14889588568E+03  0.12508885267E+03 0.  0.
         24    2    1    2    0    0 -0.55954567136E+02 -0.78011674567E+02  0.56547254417E+03  0.57911186250E+03  0.79966343690E+02 0.  0.
        -11    1    5    5    0    0 -0.45177406446E+02 -0.91274252516E+02  0.53050083769E+03  0.54018804690E+03  0.00000000000E+00 0.  1.
         12    1    5    5    0    0 -0.10777160690E+02  0.13262577950E+02  0.34971706480E+02  0.38923815596E+02  0.00000000000E+00 0. -1.
         11    1    3    3    0    0 -0.61187967355E+00 -0.30066400947E+02 -0.72502023743E+03  0.72564365052E+03  0.00000000000E+00 0. -1.
        -12    1    3    3    0    0  0.78743359831E+02  0.42127519305E+02 -0.16183131254E+04  0.16207753134E+04  0.00000000000E+00 0.  1.
          5    1    4    4  501    0 -0.34900796200E+01  0.61252463673E+02  0.34738342568E+02  0.70627684417E+02  0.41800000000E+01 0. -1.
         -5    1    4    4    0  501 -0.18686833401E+02  0.46980925348E+01 -0.75744102821E+02  0.78268201258E+02  0.41800000000E+01 0. -1.
</event>
<event>
11    1  0.6930157E-009  0.2991608E+03  0.7561462E-02  0.1000547E+00
         22   -1    0    0    0    0  0.00000000000E+00  0.00000000000E+00  0.63188377991E+03  0.63188377991E+03  0.00000000000E+00 0. -1.
         22   -1    0    0    0    0 -0.00000000000E+00 -0.00000000000E+00 -0.63293564413E+03  0.63293564413E+03  0.00000000000E+00 0. -1.
         24    2    1    2    0    0  0.26813063433E+03  0.53397803689E-01 -0.51661008492E+03  0.58762543656E+03  0.80769015950E+02 0.  0.
         25    2    1    2    0    0 -0.31972197592E+03 -0.52044484683E+01  0.40745304842E+03  0.53283607599E+03  0.12508824499E+03 0.  0.
        -24    2    1    2    0    0  0.51591341589E+02  0.51510506646E+01  0.10810517226E+03  0.14435791149E+03  0.80400736875E+02 0.  0.
        -11    1    3    3    0    0  0.10563239157E+03  0.36571092939E+02 -0.23976364906E+03  0.26454159294E+03  0.00000000000E+00 0.  1.
         12    1    3    3    0    0  0.16249824277E+03 -0.36517695135E+02 -0.27684643585E+03  0.32308384362E+03  0.00000000000E+00 0. -1.
         13    1    5    5    0    0  0.25310719196E+02 -0.19412973203E+02  0.10324221229E+03  0.10805762552E+03  0.00000000000E+00 0. -1.
        -14    1    5    5    0    0  0.26280622393E+02  0.24564023868E+02  0.48629599765E+01  0.36300285973E+02  0.00000000000E+00 0.  1.
          5    1    4    4  501    0 -0.12862359964E+02 -0.31737924803E+02  0.52998087921E+02  0.63237693648E+02  0.41800000000E+01 0.  1.
         -5    1    4    4    0  501 -0.30685961596E+03  0.26533476335E+02  0.35445496050E+03  0.46959838234E+03  0.41800000000E+01 0.  1.
</event>
<event>
11    1  0.6930157E-009  0.1282381E+03  0.7561462E-02  0.1121453E+00
         22   -1    0    0    0    0  0.00000000000E+00  0.00000000000E+00  0.17132854710E+03  0.17132854710E+03  0.00000000000E+00 0. -1.
         22   -1    0    0    0    0 -0.00000000000E+00 -0.00000000000E+00 -0.45491541900E+03  0.45491541900E+03  0.00000000000E+00 0. -1.
        -24    2    1    2    0    0  0.20629193498E+02 -0.17387061245E+02 -0.37780860934E+03  0.38694433409E+03  0.79111938830E+02 0.  0.
         25    2    1    2    0    0  0.13648297979E+02  0.19721907088E+02  0.40203716851E+02  0.13356234708E+03  0.12508929631E+03 0.  0.
         24    2    1    2    0    0 -0.34277491477E+02 -0.23348458429E+01  0.54018020598E+02  0.10573728493E+03  0.84154791595E+02 0.  0.
        -13    1    5    5    0    0  0.47703089064E+01  0.29962632945E+02 -0.17435091183E+01  0.30390048439E+02  0.00000000000E+00 0.  1.
         14    1    5    5    0    0 -0.39047800384E+02 -0.32297478788E+02  0.55761529716E+02  0.75347236493E+02  0.00000000000E+00 0. -1.
         11    1    3    3    0    0  0.28642905767E+02  0.20623713570E+02 -0.27103976563E+03  0.27332820594E+03  0.00000000000E+00 0. -1.
        -12    1    3    3    0    0 -0.80137122682E+01 -0.38010774815E+02 -0.10676884371E+03  0.11361612814E+03  0.00000000000E+00 0.  1.
          5    1    4    4  501    0 -0.53812150274E+02  0.55735364249E-01  0.31862021180E+02  0.62677040591E+02  0.41800000000E+01 0. -1.
         -5    1    4    4    0  501  0.67460448253E+02  0.19666171723E+02  0.83416956707E+01  0.70885306484E+02  0.41800000000E+01 0. -1.
</event>
<event>
11    1  0.6930157E-009  0.1643375E+03  0.7561462E-02  0.1083067E+00
         22   -1    0    0    0    0  0.00000000000E+00  0.00000000000E+00  0.12436985454E+03  0.12436985454E+03  0.00000000000E+00 0.  1.
         22   -1    0    0    0    0 -0.00000000000E+00 -0.00000000000E+00 -0.94889841805E+03  0.94889841805E+03  0.00000000000E+00 0.  1.
        -24    2    1    2    0    0  0.88750973642E+02 -0.59835436470E+01 -0.40668494909E+03  0.42486549509E+03  0.84885234205E+02 0.  0.
         25    2    1    2    0    0 -0.13192450811E+03  0.88877798476E+02 -0.47263606394E+03  0.51413523784E+03  0.12508738925E+03 0.  0.
         24    2    1    2    0    0  0.43173534463E+02 -0.82894254829E+02  0.54792449526E+02  0.13426753966E+03  0.79310454037E+02 0.  0.
        -13    1    5    5    0    0  0.36121939914E+02 -0.54261543286E+02  0.74353276898E+02  0.98881340041E+02  0.00000000000E+00 0.  1.
         14    1    5    5    0    0  0.70515945493E+01 -0.28632711544E+02 -0.19560827372E+02  0.35386199619E+02  0.00000000000E+00 0. -1.
         11    1    3    3    0    0 -0.41498107370E+01  0.10140119698E+02 -0.46169416837E+01  0.11889453610E+02  0.00000000000E+00 0. -1.
        -12    1    3    3    0    0  0.92900784379E+02 -0.16123663345E+02 -0.40206800740E+03  0.41297604148E+03  0.00000000000E+00 0.  1.
          5    1    4    4  501    0 -0.29112618573E+02 -0.20633727308E+02 -0.30388649853E+02  0.47055687251E+02  0.41800000000E+01 0. -1.
         -5    1    4    4    0  501 -0.10281188953E+03  0.10951152578E+03 -0.44224741409E+03  0.46707955059E+03  0.41800000000E+01 0. -1.
</event>
<event>
11    1  0.6930157E-009  0.1795771E+03  0.7561462E-02  0.1069985E+00
         22   -1    0    0    0    0  0.00000000000E+00  0.00000000000E+00  0.37179395462E+03  0.37179395462E+03  0.00000000000E+00 0.  1.
         22   -1    0    0    0    0 -0.00000000000E+00 -0.00000000000E+00 -0.23935931660E+04  0.23935931660E+04  0.00000000000E+00 0. -1.
        -24    2    1    2    0    0  0.11934211402E+03 -0.46782577678E+02 -0.22214031532E+04  0.22265507095E+04  0.80404870192E+02 0.  0.
         25    2    1    2    0    0 -0.14104068093E+03  0.32087992937E+02 -0.10835288280E+03  0.21979521391E+03  0.12508987120E+03 0.  0.
         24    2    1    2    0    0  0.21698566917E+02  0.14694584741E+02  0.30795682460E+03  0.31904119724E+03  0.79139883075E+02 0.  0.
        -13    1    5    5    0    0  0.14577495412E+01  0.44968945542E+02  0.20361532700E+03  0.20852705457E+03  0.00000000000E+00 0.  1.
         14    1    5    5    0    0  0.20240817376E+02 -0.30274360801E+02  0.10434149760E+03  0.11051414268E+03  0.00000000000E+00 0. -1.
         11    1    3    3    0    0  0.38700208059E+02 -0.58063365886E+02 -0.98317633949E+03  0.98564941795E+03  0.00000000000E+00 0. -1.
        -12    1    3    3    0    0  0.80641905957E+02  0.11280788208E+02 -0.12382268137E+04  0.12409012915E+04  0.00000000000E+00 0.  1.
          5    1    4    4  501    0 -0.22794562127E+01  0.50468070533E+02 -0.21882184674E+02  0.55213444649E+02  0.41800000000E+01 0. -1.
         -5    1    4    4    0  501 -0.13876122472E+03 -0.18380077596E+02 -0.86470698127E+02  0.16458176926E+03  0.41800000000E+01 0. -1.
</event>
<event>
11    1  0.6930157E-009  0.2992238E+03  0.7561462E-02  0.1000520E+00
         22   -1    0    0    0    0  0.00000000000E+00  0.00000000000E+00  0.17840248286E+04  0.17840248286E+04  0.00000000000E+00 0.  1.
         22   -1    0    0    0    0 -0.00000000000E+00 -0.00000000000E+00 -0.63427590000E+03  0.63427590000E+03  0.00000000000E+00 0.  1.
         24    2    1    2    0    0  0.14527058212E+03  0.13251984578E+02 -0.37185256727E+03  0.40723936094E+03  0.79312093589E+02 0.  0.
         25    2    1    2    0    0  0.10269897445E+03 -0.13898971051E+03 -0.18344179820E+03  0.28135471995E+03  0.12507744053E+03 0.  0.
        -24    2    1    2    0    0 -0.24796955656E+03  0.12573772593E+03  0.17050432941E+04  0.17297066478E+04  0.86102124363E+02 0.  0.
        -13    1    3    3    0    0  0.12948550486E+03  0.30203863496E+02 -0.24953688678E+03  0.28274976075E+03  0.00000000000E+00 0.  1.
         14    1    3    3    0    0  0.15785077261E+02 -0.16951878918E+02 -0.12231568048E+03  0.12448960019E+03  0.00000000000E+00 0. -1.
         11    1    5    5    0    0 -0.11844445194E+03  0.17494743200E+02  0.82208313733E+03  0.83075618500E+03  0.00000000000E+00 0. -1.
        -12    1    5    5    0    0 -0.12952510462E+03  0.10824298273E+03  0.88296015677E+03  0.89895046275E+03  0.00000000000E+00 0.  1.
          5    1    4    4  501    0  0.85629929343E+02 -0.15772230971E+03 -0.18198774105E+03  0.25562828887E+03  0.41800000000E+01 0.  1.
         -5    1    4    4    0  501  0.17069045103E+02  0.18732599202E+02 -0.14540571544E+01  0.25726431074E+02  0.41800000000E+01 0.  1.
</event>
<event>
11    1  0.6930157E-009  0.1559030E+03  0.7561462E-02  0.1090995E+00
         22   -1    0    0    0    0  0.00000000000E+00  0.00000000000E+00  0.31446902137E+04  0.31446902137E+04  0.00000000000E+00 0.  1.
         22   -1    0    0    0    0 -0.00000000000E+00 -0.00000000000E+00 -0.18483283585E+03  0.18483283585E+03  0.00000000000E+00 0.  1.
        -24    2    1    2    0    0 -0.53257100552E+02 -0.49333200445E+02 -0.14284621882E+03  0.17821880830E+03  0.78018061854E+02 0.  0.
         25    2    1    2    0    0 -0.42335190623E+02  0.37979952049E+02  0.18267716744E+03  0.22859029836E+03  0.12509129416E+03 0.  0.
         24    2    1    2    0    0  0.95592291175E+02  0.11353248396E+02  0.29200264293E+04  0.29227139429E+04  0.80222579130E+02 0.  0.
        -11    1    5    5    0    0  0.51762333562E+02 -0.11130939115E+02  0.23401686190E+04  0.23407674815E+04  0.00000000000E+00 0.  1.
         12    1    5    5    0    0  0.43829957613E+02  0.22484187510E+02  0.57985781025E+03  0.58194646144E+03  0.00000000000E+00 0. -1.
         13    1    3    3    0    0 -0.14851731544E+02  0.15197916130E+02 -0.71664720990E+02  0.74748798112E+02  0.00000000000E+00 0. -1.
        -14    1    3    3    0    0 -0.38405369008E+02 -0.64531116575E+02 -0.71181497831E+02  0.10347001019E+03  0.00000000000E+00 0.  1.
          5    1    4    4  501    0  0.38874265957E+02  0.35039211321E+02  0.97852439786E+02  0.11104740995E+03  0.41800000000E+01 0.  1.
         -5    1    4    4    0  501 -0.81209456580E+02  0.29407407282E+01  0.84824727655E+02  0.11754288841E+03  0.41800000000E+01 0.  1.
</event>
<event>
11    1  0.6930157E-009  0.1354517E+03  0.7561462E-02  0.1112746E+00
         22   -1    0    0    0    0  0.00000000000E+00  0.00000000000E+00  0.28413281901E+02  0.28413281901E+02  0.00000000000E+00 0.  1.
         22   -1    0    0    0    0 -0.00000000000E+00 -0.00000000000E+00 -0.11083514358E+04  0.11083514358E+04  0.00000000000E+00 0.  1.
        -24    2    1    2    0    0 -0.72066521406E+02 -0.28566820846E+02 -0.32993766121E+03  0.34717956684E+03  0.75267154742E+02 0.  0.
         25    2    1    2    0    0 -0.18763581783E+01  0.35691129044E+01 -0.50243131524E+03  0.51778506695E+03  0.12509152542E+03 0.  0.
         24    2    1    2    0    0  0.73942879584E+02  0.24997707942E+02 -0.24756917745E+03  0.27180008392E+03  0.80575139788E+02 0.  0.
        -13    1    5    5    0    0  0.90093243135E+02  0.11352836359E+02 -0.19362413409E+03  0.21385973126E+03  0.00000000000E+00 0.  1.
         14    1    5    5    0    0 -0.16150363551E+02  0.13644871582E+02 -0.53945043355E+02  0.57940352656E+02  0.00000000000E+00 0. -1.
         11    1    3    3    0    0 -0.45427295857E+02  0.52963615197E+01 -0.26711349423E+03  0.27100057095E+03  0.00000000000E+00 0. -1.
        -12    1    3    3    0    0 -0.26639225549E+02 -0.33863182366E+02 -0.62824166978E+02  0.76178995887E+02  0.00000000000E+00 0.  1.
          5    1    4    4  501    0  0.55546284983E+02  0.26906077526E+02 -0.28602290398E+03  0.29263612351E+03  0.41800000000E+01 0. -1.
         -5    1    4    4    0  501 -0.57422643161E+02 -0.23336964621E+02 -0.21640841126E+03  0.22514894344E+03  0.41800000000E+01 0. -1.
</event>
<event>
11    1  0.6930157E-009  0.1296416E+03  0.7561462E-02  0.1119710E+00
         22   -1    0    0    0    0  0.00000000000E+00  0.00000000000E+00  0.13874846836E+04  0.13874846836E+04  0.00000000000E+00 0. -1.
         22   -1    0    0    0    0 -0.00000000000E+00 -0.00000000000E+00 -0.15071126399E+03  0.15071126399E+03  0.00000000000E+00 0.  1.
        -24    2    1    2    0    0  0.32917678928E+02  0.10605307937E+02 -0.12450658165E+03  0.15191838216E+03  0.79882788021E+02 0.  0.
         25    2    1    2    0    0 -0.91143560815E+01 -0.33547543613E+02  0.38773124983E+03  0.40888833231E+03  0.12508252092E+03 0.  0.
         24    2    1    2    0    0 -0.23803322847E+02  0.22942235676E+02  0.97354875139E+03  0.97738923308E+03  0.79997482731E+02 0.  0.
        -13    1    5    5    0    0 -0.29111617740E+02  0.31026671714E+02  0.23774312679E+03  0.24152005089E+03  0.00000000000E+00 0.  1.
         14    1    5    5    0    0  0.53082948930E+01 -0.80844360389E+01  0.73580562461E+03  0.73586918219E+03  0.00000000000E+00 0. -1.
         11    1    3    3    0    0  0.16198763859E+00  0.41591776762E+02 -0.66712658907E+02  0.78616035214E+02  0.00000000000E+00 0. -1.
        -12    1    3    3    0    0  0.32755691289E+02 -0.30986468825E+02 -0.57793922744E+02  0.73302346949E+02  0.00000000000E+00 0.  1.
          5    1    4    4  501    0 -0.62202721812E+02 -0.42451344165E+02  0.24173738800E+03  0.25323059132E+03  0.41800000000E+01 0.  1.
         -5    1    4    4    0  501  0.53088365731E+02  0.89038005528E+01  0.14599386182E+03  0.15565774099E+03  0.41800000000E+01 0.  1.
</event>
<event>
11    1  0.6930157E-009  0.1628127E+03  0.7561462E-02  0.1084461E+00
         22   -1    0    0    0    0  0.00000000000E+00  0.00000000000E+00  0.59012519387E+03  0.59012519387E+03  0.00000000000E+00 0.  1.
         22   -1    0    0    0    0 -0.00000000000E+00 -0.00000000000E+00 -0.66666357808E+03  0.66666357808E+03  0.00000000000E+00 0. -1.
        -24    2    1    2    0    0 -0.40457640296E+02 -0.95705174707E+02 -0.59735425763E+03  0.61159213948E+03  0.80103276154E+02 0.  0.
         25    2    1    2    0    0  0.40721222303E+02  0.10144073626E+03  0.57481151326E+02  0.17578315569E+03  0.12508874508E+03 0.  0.
         24    2    1    2    0    0 -0.26358200774E+00 -0.57355615555E+01  0.46333472209E+03  0.46941347678E+03  0.75079833175E+02 0.  0.
        -13    1    5    5    0    0 -0.36622164074E+02 -0.83545422182E+01  0.27816633368E+03  0.28069109439E+03  0.00000000000E+00 0.  1.
         14    1    5    5    0    0  0.36358582066E+02  0.26189806628E+01  0.18516838840E+03  0.18872238238E+03  0.00000000000E+00 0. -1.
         11    1    3    3    0    0 -0.60918553712E+02 -0.48550340751E+02 -0.30738681813E+03  0.31710386584E+03  0.00000000000E+00 0. -1.
        -12    1    3    3    0    0  0.20460913416E+02 -0.47154833956E+02 -0.28996743950E+03  0.29448827364E+03  0.00000000000E+00 0.  1.
          5    1    4    4  501    0 -0.23842173107E+02  0.76225640319E+01 -0.24594827608E+02  0.35340212874E+02  0.41800000000E+01 0.  1.
         -5    1    4    4    0  501  0.64563395411E+02  0.93818172231E+02  0.82075978934E+02  0.14044294281E+03  0.41800000000E+01 0.  1.
</event>
<event>
11    1  0.6930157E-009  0.1708194E+03  0.7561462E-02  0.1077321E+00
         22   -1    0    0    0    0  0.00000000000E+00  0.00000000000E+00  0.16852163056E+04  0.16852163056E+04  0.00000000000E+00 0. -1.
         22   -1    0    0    0    0 -0.00000000000E+00 -0.00000000000E+00 -0.16042867578E+03  0.16042867578E+03  0.00000000000E+00 0.  1.
         24    2    1    2    0    0 -0.14421240572E+02 -0.19428354005E+02 -0.12054173127E+03  0.15486112513E+03  0.94160639236E+02 0.  0.
         25    2    1    2    0    0 -0.95766269914E+02 -0.27861558542E+02  0.32134775864E+03  0.35897103233E+03  0.12509346575E+03 0.  0.
        -24    2    1    2    0    0  0.11018751049E+03  0.47289912547E+02  0.13239816025E+04  0.13318128239E+04  0.80127966490E+02 0.  0.
        -11    1    3    3    0    0  0.24863071733E+02 -0.38171145825E+02 -0.92429196069E+02  0.10304545112E+03  0.00000000000E+00 0.  1.
         12    1    3    3    0    0 -0.39284312306E+02  0.18742791820E+02 -0.28112535199E+02  0.51815674017E+02  0.00000000000E+00 0. -1.
         13    1    5    5    0    0  0.42367147636E+02  0.45516537748E+01  0.85255095375E+03  0.85361514834E+03  0.00000000000E+00 0. -1.
        -14    1    5    5    0    0  0.67820362850E+02  0.42738258772E+02  0.47143064872E+03  0.47819767558E+03  0.00000000000E+00 0.  1.
          5    1    4    4  501    0  0.17739068061E+02  0.16733092735E+02  0.14326811266E+02  0.28590222965E+02  0.41800000000E+01 0.  1.
         -5    1    4    4    0  501 -0.11350533797E+03 -0.44594651277E+02  0.30702094737E+03  0.33038080937E+03  0.41800000000E+01 0.  1.
</event>
<event>
11    1  0.6930157E-009  0.1674713E+03  0.7561462E-02  0.1080253E+00
         22   -1    0    0    0    0  0.00000000000E+00  0.00000000000E+00  0.11039947859E+03  0.11039947859E+03  0.00000000000E+00 0. -1.
         22   -1    0    0    0    0 -0.00000000000E+00 -0.00000000000E+00 -0.19367714272E+04  0.19367714272E+04  0.00000000000E+00 0. -1.
         24    2    1    2    0    0  0.44146660624E+02 -0.10209719013E+03 -0.14556913696E+04  0.14621658664E+04  0.80739664866E+02 0.  0.
         25    2    1    2    0    0 -0.28628289914E+02  0.10922426427E+03 -0.44487206063E+03  0.47572155130E+03  0.12510125961E+03 0.  0.
        -24    2    1    2    0    0 -0.15518370710E+02 -0.71270741386E+01  0.74191481654E+02  0.10928348805E+03  0.78402103256E+02 0.  0.
        -11    1    3    3    0    0  0.92472473751E+01 -0.96860975107E+02 -0.87273839466E+03  0.87814569725E+03  0.00000000000E+00 0.  1.
         12    1    3    3    0    0  0.34899413249E+02 -0.52362150221E+01 -0.58295297494E+03  0.58402016916E+03  0.00000000000E+00 0. -1.
         13    1    5    5    0    0 -0.37986354267E+02  0.76831481830E+01  0.72635971577E+02  0.82328477719E+02  0.00000000000E+00 0. -1.
        -14    1    5    5    0    0  0.22467983557E+02 -0.14810222322E+02  0.15555100767E+01  0.26955010331E+02  0.00000000000E+00 0.  1.
          5    1    4    4  501    0 -0.74052372035E+02  0.50960329107E+02 -0.29754552658E+03  0.31085611098E+03  0.41800000000E+01 0.  1.
         -5    1    4    4    0  501  0.45424082121E+02  0.58263935161E+02 -0.14732653405E+03  0.16486544032E+03  0.41800000000E+01 0.  1.
</event>
<event>
11    1  0.6930157E-009  0.1254817E+03  0.7561462E-02  0.1124948E+00
         22   -1    0    0    0    0  0.00000000000E+00  0.00000000000E+00  0.32830480609E+04  0.32830480609E+04  0.00000000000E+00 0. -1.
         22   -1    0    0    0    0 -0.00000000000E+00 -0.00000000000E+00 -0.22593903509E+02  0.22593903509E+02  0.00000000000E+00 0.  1.
        -24    2    1    2    0    0 -0.40350978952E+01 -0.88967615568E+01  0.92757021063E+02  0.12373301065E+03  0.81305341685E+02 0.  0.
         25    2    1    2    0    0  0.12088933128E+02  0.28302698909E+01  0.60802574022E+03  0.62088378998E+03  0.12508887704E+03 0.  0.
         24    2    1    2    0    0 -0.80538352326E+01  0.60664916659E+01  0.25596713961E+04  0.25610251638E+04  0.82647243606E+02 0.  0.
        -11    1    5    5    0    0  0.26376037538E+02  0.26712237567E+02  0.78201264009E+03  0.78291315498E+03  0.00000000000E+00 0.  1.
         12    1    5    5    0    0 -0.34429872771E+02 -0.20645745901E+02  0.17776587560E+04  0.17781120088E+04  0.00000000000E+00 0. -1.
         11    1    3    3    0    0  0.22896595774E+02 -0.24717108346E+02  0.85167169637E+02  0.91589499000E+02  0.00000000000E+00 0. -1.
        -12    1    3    3    0    0 -0.26931693670E+02  0.15820346789E+02  0.75898514251E+01  0.32143511648E+02  0.00000000000E+00 0.  1.
          5    1    4    4  501    0  0.69580246009E+01 -0.11675180269E+02  0.16686842410E+01  0.14317152222E+02  0.41800000000E+01 0.  1.
         -5    1    4    4    0  501  0.51309085269E+01  0.14505450160E+02  0.60635705598E+03  0.60656663776E+03  0.41800000000E+01 0.  1.
</event>
<event>
11    1  0.6930157E-009  0.1354727E+03  0.7561462E-02  0.1112722E+00
         22   -1    0    0    0    0  0.00000000000E+00  0.00000000000E+00  0.14889499394E+03  0.14889499394E+03  0.00000000000E+00 0. -1.
         22   -1    0    0    0    0 -0.00000000000E+00 -0.00000000000E+00 -0.53786348056E+03  0.53786348056E+03  0.00000000000E+00 0.  1.
        -24    2    1    2    0    0  0.41424835569E+02 -0.26568944639E+01 -0.36865975808E+03  0.37961233551E+03  0.80451426056E+02 0.  0.
         25    2    1    2    0    0 -0.18946974417E+02  0.51461062441E+02 -0.10932251580E+03  0.17494521837E+03  0.12508872125E+03 0.  0.
         24    2    1    2    0    0 -0.22477861151E+02 -0.48804167977E+02  0.89013787262E+02  0.13220092061E+03  0.81648809140E+02 0.  0.
        -13    1    5    5    0    0 -0.11054457805E+02 -0.28517107324E+01 -0.14450550904E+02  0.18416072135E+02  0.00000000000E+00 0.  1.
         14    1    5    5    0    0 -0.11423403347E+02 -0.45952457244E+02  0.10346433817E+03  0.11378484848E+03  0.00000000000E+00 0. -1.
         11    1    3    3    0    0  0.39890854119E+02  0.34812541741E+02 -0.20773971127E+03  0.21438045840E+03  0.00000000000E+00 0. -1.
        -12    1    3    3    0    0  0.15339814494E+01 -0.37469436205E+02 -0.16092004681E+03  0.16523187711E+03  0.00000000000E+00 0.  1.
          5    1    4    4  501    0  0.33873662319E+01  0.17603512185E+02  0.26987389468E+02  0.32667253964E+02  0.41800000000E+01 0.  1.
         -5    1    4    4    0  501 -0.22334340649E+02  0.33857550255E+02 -0.13630990527E+03  0.14227796441E+03  0.41800000000E+01 0.  1.
</event>
<event>
11    1  0.6930157E-009  0.1375503E+03  0.7561462E-02  0.1110325E+00
         22   -1    0    0    0    0  0.00000000000E+00  0.00000000000E+00  0.12621022383E+04  0.12621022383E+04  0.00000000000E+00 0.  1.
         22   -1    0    0    0    0 -0.00000000000E+00 -0.00000000000E+00 -0.12845967230E+04  0.12845967230E+04  0.00000000000E+00 0. -1.
        -24    2    1    2    0    0  0.51585966126E+02 -0.25099268905E+02 -0.12686627352E+04  0.12725060676E+04  0.80470312866E+02 0.  0.
         25    2    1    2    0    0 -0.38291832560E+02 -0.15302239517E+02  0.35686556359E+03  0.38039458100E+03  0.12508630542E+03 0.  0.
         24    2    1    2    0    0 -0.13294133567E+02  0.40401508422E+02  0.88930268688E+03  0.89379831275E+03  0.78785399198E+02 0.  0.
        -11    1    5    5    0    0 -0.74925500547E+01  0.11789843197E+02  0.79403502652E+03  0.79415789491E+03  0.00000000000E+00 0.  1.
         12    1    5    5    0    0 -0.58015835118E+01  0.28611665225E+02  0.95267660356E+02  0.99640417843E+02  0.00000000000E+00 0. -1.
         13    1    3    3    0    0  0.52026297723E+02  0.18392490786E+02 -0.67441680320E+03  0.67667055781E+03  0.00000000000E+00 0. -1.
        -14    1    3    3    0    0 -0.44033159721E+00 -0.43491759691E+02 -0.59424593199E+03  0.59583550980E+03  0.00000000000E+00 0.  1.
          5    1    4    4  501    0 -0.16065374906E+02 -0.61295487465E+02  0.99956853504E+02  0.11842330014E+03  0.41800000000E+01 0.  1.
         -5    1    4    4    0  501 -0.22226457654E+02  0.45993247948E+02  0.25690871009E+03  0.26197128086E+03  0.41800000000E+01 0.  1.
</event>
<event>
11    1  0.6930157E-009  0.2340535E+03  0.7561462E-02  0.1032755E+00
         22   -1    0    0    0    0  0.00000000000E+00  0.00000000000E+00  0.21755333877E+04  0.21755333877E+04  0.00000000000E+00 0.  1.
         22   -1    0    0    0    0 -0.00000000000E+00 -0.00000000000E+00 -0.76682796436E+03  0.76682796436E+03  0.00000000000E+00 0.  1.
         24    2    1    2    0    0  0.19970416074E+03 -0.33323228128E+02 -0.62171179126E+03  0.65881102081E+03  0.80710720524E+02 0.  0.
         25    2    1    2    0    0 -0.18062775382E+03 -0.50039863567E+02 -0.23192575258E+02  0.22653013410E+03  0.12509049809E+03 0.  0.
        -24    2    1    2    0    0 -0.19076406922E+02  0.83363091696E+02  0.20536097899E+04  0.20570201972E+04  0.81887777543E+02 0.  0.
        -13    1    3    3    0    0  0.19935468118E+03 -0.40045876427E+02 -0.61902013043E+03  0.65156111225E+03  0.00000000000E+00 0.  1.
         14    1    3    3    0    0  0.34947956387E+00  0.67226482983E+01 -0.26916608287E+01  0.72499085598E+01  0.00000000000E+00 0. -1.
         13    1    5    5    0    0  0.21169328844E+02  0.65959962603E+02  0.94083487069E+03  0.94338174196E+03  0.00000000000E+00 0. -1.
        -14    1    5    5    0    0 -0.40245735766E+02  0.17403129093E+02  0.11127749192E+04  0.11136384552E+04  0.00000000000E+00 0.  1.
          5    1    4    4  501    0  0.14701016298E+02 -0.19920394080E+02  0.81105479886E+01  0.26385514381E+02  0.41800000000E+01 0.  1.
         -5    1    4    4    0  501 -0.19532877012E+03 -0.30119469487E+02 -0.31303123246E+02  0.20014461972E+03  0.41800000000E+01 0.  1.
</event>
<event>
11    1  0.6930157E-009  0.1517491E+03  0.7561462E-02  0.1095105E+00
         22   -1    0    0    0    0  0.00000000000E+00  0.00000000000E+00  0.11680595284E+03  0.11680595284E+03  0.00000000000E+00 0. -1.
         22   -1    0    0    0    0 -0.00000000000E+00 -0.00000000000E+00 -0.96783304056E+03  0.96783304056E+03  0.00000000000E+00 0.  1.
         24    2    1    2    0    0  0.34144527237E+02 -0.74689003826E+02 -0.69803357689E+03  0.70747028971E+03  0.80740574275E+02 0.  0.
         25    2    1    2    0    0 -0.43384204847E+02  0.98858431512E+02 -0.21810415757E+03  0.27363834650E+03  0.12511331829E+03 0.  0.
        -24    2    1    2    0    0  0.92396776102E+01 -0.24169427686E+02  0.65110646731E+02  0.10353035718E+03  0.76220769243E+02 0.  0.
        -13    1    3    3    0    0  0.41256367899E+02 -0.67205295652E+02 -0.68972452895E+03  0.69421795244E+03  0.00000000000E+00 0.  1.
         14    1    3    3    0    0 -0.71118406619E+01 -0.74837081734E+01 -0.83090479404E+01  0.13252337277E+02  0.00000000000E+00 0. -1.
         11    1    5    5    0    0  0.36489615604E+02 -0.10078657285E+02  0.62069113675E+02  0.72702450111E+02  0.00000000000E+00 0. -1.
        -12    1    5    5    0    0 -0.27249937994E+02 -0.14090770402E+02  0.30415330551E+01  0.30827907073E+02  0.00000000000E+00 0.  1.
          5    1    4    4  501    0 -0.86720418652E+02  0.79022875269E+02 -0.15351992651E+03  0.19326377328E+03  0.41800000000E+01 0. -1.
         -5    1    4    4    0  501  0.43336213805E+02  0.19835556243E+02 -0.64584231059E+02  0.80374573218E+02  0.41800000000E+01 0. -1.
</event>
<event>
11    1  0.6930157E-009  0.1668637E+03  0.7561462E-02  0.1080794E+00
         22   -1    0    0    0    0  0.00000000000E+00  0.00000000000E+00  0.48796783808E+03  0.48796783808E+03  0.00000000000E+00 0.  1.
         22   -1    0    0    0    0 -0.00000000000E+00 -0.00000000000E+00 -0.71034203424E+03  0.71034203424E+03  0.00000000000E+00 0. -1.
        -24    2    1    2    0    0 -0.27555396878E+02 -0.32883260731E+02 -0.26794321322E+03  0.28297277420E+03  0.80245976194E+02 0.  0.
         25    2    1    2    0    0  0.27759016472E+02 -0.78323654168E+02 -0.41135650231E+03  0.43791198094E+03  0.12509026043E+03 0.  0.
         24    2    1    2    0    0 -0.20361959497E+00  0.11120691490E+03  0.45692551937E+03  0.47742511718E+03  0.82381993653E+02 0.  0.
        -13    1    5    5    0    0  0.17829808774E+02  0.11415213779E+03  0.42706666046E+03  0.44241897011E+03  0.00000000000E+00 0.  1.
         14    1    5    5    0    0 -0.18033428369E+02 -0.29452228926E+01  0.29858858916E+02  0.35006147066E+02  0.00000000000E+00 0. -1.
         13    1    3    3    0    0 -0.42358148333E+02  0.75926538058E+00 -0.21090426280E+03  0.21511717105E+03  0.00000000000E+00 0. -1.
        -14    1    3    3    0    0  0.14802751456E+02 -0.33642526111E+02 -0.57038950420E+02  0.67855603150E+02  0.00000000000E+00 0.  1.
          5    1    4    4  501    0  0.28594096504E+02  0.28828468184E+02 -0.14887751818E+03  0.15437192346E+03  0.41800000000E+01 0. -1.
         -5    1    4    4    0  501 -0.83508003184E+00 -0.10715212235E+03 -0.26247898413E+03  0.28354005748E+03  0.41800000000E+01 0. -1.
</event>
<event>
11    1  0.6930157E-009  0.1896429E+03  0.7561462E-02  0.1062099E+00
         22   -1    0    0    0    0  0.00000000000E+00  0.00000000000E+00  0.38316298780E+03  0.38316298780E+03  0.00000000000E+00 0.  1.
         22   -1    0    0    0    0 -0.00000000000E+00 -0.00000000000E+00 -0.51344552657E+03  0.51344552657E+03  0.00000000000E+00 0.  1.
        -24    2    1    2    0    0  0.75711779017E+02  0.23756037794E+02 -0.13978558181E+03  0.18008531420E+03  0.81203994315E+02 0.  0.
         25    2    1    2    0    0 -0.20409894146E+03 -0.74262146556E+02 -0.28593833249E+03  0.38023609779E+03  0.12509003063E+03 0.  0.
         24    2    1    2    0    0  0.12838716245E+03  0.50506108762E+02  0.29544137553E+03  0.33628710238E+03  0.82275624267E+02 0.  0.
        -11    1    5    5    0    0  0.10066845625E+03 -0.25441113501E+01  0.18017968084E+03  0.20641058106E+03  0.00000000000E+00 0.  1.
         12    1    5    5    0    0  0.27718706198E+02  0.53050220112E+02  0.11526169469E+03  0.12987652132E+03  0.00000000000E+00 0. -1.
         11    1    3    3    0    0  0.30063258620E+02  0.38813870333E+02 -0.23853059562E+02  0.54582822386E+02  0.00000000000E+00 0. -1.
        -12    1    3    3    0    0  0.45648520397E+02 -0.15057832539E+02 -0.11593252225E+03  0.12550249181E+03  0.00000000000E+00 0.  1.
          5    1    4    4  501    0 -0.19172276556E+03 -0.65057218178E+02 -0.17348923556E+03  0.26665717265E+03  0.41800000000E+01 0. -1.
         -5    1    4    4    0  501 -0.12376175902E+02 -0.92049283781E+01 -0.11244909693E+03  0.11357892514E+03  0.41800000000E+01 0. -1.
</event>
<event>
11    1  0.6930157E-009  0.2573547E+03  0.7561462E-02  0.1020053E+00
         22   -1    0    0    0    0  0.00000000000E+00  0.00000000000E+00  0.18023546420E+04  0.18023546420E+04  0.00000000000E+00 0. -1.
         22   -1    0    0    0    0 -0.00000000000E+00 -0.00000000000E+00 -0.91298112946E+03  0.91298112946E+03  0.00000000000E+00 0.  1.
         24    2    1    2    0    0  0.16439289253E+03  0.15462744678E+03 -0.86082831504E+03  0.89220092203E+03  0.63737170443E+02 0.  0.
         25    2    1    2    0    0 -0.14224656259E+03 -0.14749539616E+03  0.37385784827E+03  0.44430287915E+03  0.12508549577E+03 0.  0.
        -24    2    1    2    0    0 -0.22146329941E+02 -0.71320506166E+01  0.13763439793E+04  0.13788319703E+04  0.79457704404E+02 0.  0.
        -11    1    3    3    0    0  0.17880950023E+02  0.16018208936E+02 -0.19566550329E+03  0.19713269787E+03  0.00000000000E+00 0.  1.
         12    1    3    3    0    0  0.14651194251E+03  0.13860923784E+03 -0.66516281175E+03  0.69506822417E+03  0.00000000000E+00 0. -1.
         13    1    5    5    0    0  0.17203767625E+02 -0.73021869584E+01  0.10438854646E+04  0.10440527548E+04  0.00000000000E+00 0. -1.
        -14    1    5    5    0    0 -0.39350097566E+02  0.17013634180E+00  0.33245851467E+03  0.33477921546E+03  0.00000000000E+00 0.  1.
          5    1    4    4  501    0 -0.85899228994E+01 -0.91816803558E+02  0.11286491547E+03  0.14580834590E+03  0.41800000000E+01 0.  1.
         -5    1    4    4    0  501 -0.13365663969E+03 -0.55678592603E+02  0.26099293281E+03  0.29849453325E+03  0.41800000000E+01 0.  1.
</event>
<event>
11    1  0.6930157E-009  0.1541904E+03  0.7561462E-02  0.1092672E+00
         22   -1    0    0    0    0  0.00000000000E+00  0.00000000000E+00  0.18245353497E+04  0.18245353497E+04  0.00000000000E+00 0. -1.
         22   -1    0    0    0    0 -0.00000000000E+00 -0.00000000000E+00 -0.24013828653E+03  0.24013828653E+03  0.00000000000E+00 0.  1.
         24    2    1    2    0    0 -0.61951697149E+02  0.42314642178E+01 -0.19697377571E+03  0.22007545110E+03  0.76017220339E+02 0.  0.
         25    2    1    2    0    0  0.14298780308E+03  0.24617097361E+02  0.28376962544E+03  0.34236527296E+03  0.12504905634E+03 0.  0.
        -24    2    1    2    0    0 -0.81036105933E+02 -0.28848561579E+02  0.14976012135E+04  0.15022329122E+04  0.80593038898E+02 0.  0.
        -11    1    3    3    0    0 -0.48493140684E+02  0.89191292306E+01 -0.19958618687E+03  0.20558643328E+03  0.00000000000E+00 0.  1.
         12    1    3    3    0    0 -0.13458556464E+02 -0.46876650127E+01  0.26124111530E+01  0.14489017821E+02  0.00000000000E+00 0. -1.
         11    1    5    5    0    0 -0.89508856344E+02 -0.32582099252E+02  0.99561431487E+03  0.10001606334E+04  0.00000000000E+00 0. -1.
        -12    1    5    5    0    0  0.84727504114E+01  0.37335376726E+01  0.50198689859E+03  0.50207227882E+03  0.00000000000E+00 0.  1.
          5    1    4    4  501    0  0.78012824146E+02  0.51213233774E+02  0.24466859303E+03  0.26189499586E+03  0.41800000000E+01 0.  1.
         -5    1    4    4    0  501  0.64974978935E+02 -0.26596136412E+02  0.39101032416E+02  0.80470277095E+02  0.41800000000E+01 0.  1.
</event>
<event>
11    1  0.6930157E-009  0.1252631E+03  0.7561462E-02  0.1125230E+00
         22   -1    0    0    0    0  0.00000000000E+00  0.00000000000E+00  0.15382746645E+04  0.15382746645E+04  0.00000000000E+00 0.  1.
         22   -1    0    0    0    0 -0.00000000000E+00 -0.00000000000E+00 -0.15497259156E+03  0.15497259156E+03  0.00000000000E+00 0. -1.
         24    2    1    2    0    0 -0.28671986999E+01  0.18182199068E+01 -0.10200670025E+03  0.13357203663E+03  0.86166091485E+02 0.  0.
         25    2    1    2    0    0 -0.71641924818E+01 -0.40922237845E+02  0.85239451158E+02  0.15697012893E+03  0.12509157501E+03 0.  0.
        -24    2    1    2    0    0  0.10031391182E+02  0.39104017938E+02  0.14000693221E+04  0.14027050905E+04  0.75879584979E+02 0.  0.
        -11    1    3    3    0    0 -0.36039595798E+02  0.77466134197E+01 -0.14168759074E+02  0.39491976634E+02  0.00000000000E+00 0.  1.
         12    1    3    3    0    0  0.33172397098E+02 -0.59283935128E+01 -0.87837941177E+02  0.94080059997E+02  0.00000000000E+00 0. -1.
         13    1    5    5    0    0  0.22025629836E+02  0.46455597829E+01  0.11865028214E+03  0.12076671332E+03  0.00000000000E+00 0. -1.
        -14    1    5    5    0    0 -0.11994238655E+02  0.34458458155E+02  0.12814190399E+04  0.12819383772E+04  0.00000000000E+00 0.  1.
          5    1    4    4  501    0 -0.48425211959E+02 -0.21514277689E+02 -0.73670064900E+01  0.53662002221E+02  0.41800000000E+01 0. -1.
         -5    1    4    4    0  501  0.41261019477E+02 -0.19407960156E+02  0.92606457648E+02  0.10330812671E+03  0.41800000000E+01 0. -1.
</event>
<event>
11    1  0.6930157E-009  0.1580709E+03  0.7561462E-02  0.1088906E+00
         22   -1    0    0    0    0  0.00000000000E+00  0.00000000000E+00  0.63296234158E+03  0.63296234158E+03  0.00000000000E+00 0.  1.
         22   -1    0    0    0    0 -0.00000000000E+00 -0.00000000000E+00 -0.72150294587E+03  0.72150294587E+03  0.00000000000E+00 0.  1.
        -24    2    1    2    0    0 -0.63687126589E+02  0.74818828351E+02 -0.68320689441E+03  0.69484008659E+03  0.79857236307E+02 0.  0.
         25    2    1    2    0    0 -0.14423089532E+02 -0.65452580110E+02  0.17484603015E+03  0.22519217923E+03  0.12509323552E+03 0.  0.
         24    2    1    2    0    0  0.78110216121E+02 -0.93662482413E+01  0.41982025997E+03  0.43443302162E+03  0.79335156919E+02 0.  0.
        -13    1    5    5    0    0  0.72333771168E+02 -0.34945851185E+02  0.36400920717E+03  0.37276814493E+03  0.00000000000E+00 0.  1.
         14    1    5    5    0    0  0.57764449531E+01  0.25579602944E+02  0.55811052800E+02  0.61664876694E+02  0.00000000000E+00 0. -1.
         13    1    3    3    0    0 -0.17814170641E+02 -0.76462559229E+01 -0.36917751764E+02  0.41698085095E+02  0.00000000000E+00 0. -1.
        -14    1    3    3    0    0 -0.45872955948E+02  0.82465084274E+02 -0.64628914265E+03  0.65314200149E+03  0.00000000000E+00 0.  1.
          5    1    4    4  501    0 -0.57475147718E+02 -0.30346604677E+02  0.15128118689E+03  0.16470512720E+03  0.41800000000E+01 0. -1.
         -5    1    4    4    0  501  0.43052058186E+02 -0.35105975433E+02  0.23564843262E+02  0.60487052029E+02  0.41800000000E+01 0. -1.
</event>
<event>
11    1  0.6930157E-009  0.1905347E+03  0.7561462E-02  0.1061426E+00
         22   -1    0    0    0    0  0.00000000000E+00  0.00000000000E+00  0.90559977479E+03  0.90559977479E+03  0.00000000000E+00 0.  1.
         22   -1    0    0    0    0 -0.00000000000E+00 -0.00000000000E+00 -0.28142738003E+03  0.28142738003E+03  0.00000000000E+00 0.  1.
         24    2    1    2    0    0 -0.13536109041E+03  0.57605240832E+02 -0.23424569808E+03  0.28788622760E+03  0.79790001933E+02 0.  0.
         25    2    1    2    0    0  0.65044348133E+02 -0.67472272152E+02  0.43919228021E+03  0.46617703989E+03  0.12509156166E+03 0.  0.
        -24    2    1    2    0    0  0.70316742276E+02  0.98670313195E+01  0.41922581263E+03  0.43296388732E+03  0.81643390405E+02 0.  0.
        -11    1    3    3    0    0 -0.10532864361E+03  0.77744911466E+02 -0.17645953745E+03  0.21971882664E+03  0.00000000000E+00 0.  1.
         12    1    3    3    0    0 -0.30032446799E+02 -0.20139670634E+02 -0.57786160626E+02  0.68167400962E+02  0.00000000000E+00 0. -1.
         13    1    5    5    0    0  0.64000411400E+02  0.31136253608E+02  0.19392188176E+03  0.20657012169E+03  0.00000000000E+00 0. -1.
        -14    1    5    5    0    0  0.63163308765E+01 -0.21269222289E+02  0.22530393087E+03  0.22639376563E+03  0.00000000000E+00 0.  1.
          5    1    4    4  501    0  0.39039959190E+02 -0.32643407435E+02  0.41109086673E+03  0.41424978404E+03  0.41800000000E+01 0. -1.
         -5    1    4    4    0  501  0.26004388943E+02 -0.34828864717E+02  0.28101413474E+02  0.51927255859E+02  0.41800000000E+01 0. -1.
</event>
<event>
11    1  0.6930157E-009  0.1447925E+03  0.7561462E-02  0.1102322E+00
         22   -1    0    0    0    0  0.00000000000E+00  0.00000000000E+00  0.42082833075E+04  0.42082833075E+04  0.00000000000E+00 0.  1.
         22   -1    0    0    0    0 -0.00000000000E+00 -0.00000000000E+00 -0.56029551360E+02  0.56029551360E+02  0.00000000000E+00 0.  1.
        -24    2    1    2    0    0 -0.61023423084E+02 -0.39407698612E+01  0.55368644577E+01  0.10082174931E+03  0.79968621555E+02 0.  0.
         25    2    1    2    0    0 -0.17182920205E+02 -0.78409298303E+01  0.52380360698E+03  0.53886898559E+03  0.12511127853E+03 0.  0.
         24    2    1    2    0    0  0.78206343289E+02  0.11781699692E+02  0.36229132847E+04  0.36246221239E+04  0.78293246771E+02 0.  0.
        -13    1    5    5    0    0  0.64045288164E+02  0.97132716262E+01  0.35316098433E+04  0.35322038775E+04  0.00000000000E+00 0.  1.
         14    1    5    5    0    0  0.14161055125E+02  0.20684280654E+01  0.91303441337E+02  0.92418246450E+02  0.00000000000E+00 0. -1.
         13    1    3    3    0    0 -0.38349251014E+02 -0.41411006438E+02 -0.15162511027E+01  0.56460920334E+02  0.00000000000E+00 0. -1.
        -14    1    3    3    0    0 -0.22674172070E+02  0.37470236577E+02  0.70531155604E+01  0.44360828974E+02  0.00000000000E+00 0.  1.
          5    1    4    4  501    0  0.33719809374E+02 -0.48447739692E+02  0.20065650698E+03  0.20920017978E+03  0.41800000000E+01 0.  1.
         -5    1    4    4    0  501 -0.50902729579E+02  0.40606809862E+02  0.32314710000E+03  0.32966880581E+03  0.41800000000E+01 0.  1.
</event>
<event>
11    1  0.6930157E-009  0.1505055E+03  0.7561462E-02  0.1096363E+00
         22   -1    0    0    0    0  0.00000000000E+00  0.00000000000E+00  0.70753268932E+03  0.70753268932E+03  0.00000000000E+00 0.  1.
         22   -1    0    0    0    0 -0.00000000000E+00 -0.00000000000E+00 -0.84295341416E+03  0.84295341416E+03  0.00000000000E+00 0.  1.
         24    2    1    2    0    0  0.83990188660E+02  0.11833956252E+02 -0.77880188934E+03  0.78759482266E+03  0.81109971793E+02 0.  0.
         25    2    1    2    0    0 -0.41563122177E+02 -0.82911394442E+02  0.57942862599E+02  0.16617000752E+03  0.12511316325E+03 0.  0.
        -24    2    1    2    0    0 -0.42427066483E+02  0.71077438190E+02  0.58543830191E+03  0.59672127330E+03  0.80537037947E+02 0.  0.
        -13    1    3    3    0    0  0.19237637620E+01  0.23049641583E+02 -0.35632374819E+03  0.35707366239E+03  0.00000000000E+00 0.  1.
         14    1    3    3    0    0  0.82066424898E+02 -0.11215685331E+02 -0.42247814115E+03  0.43052116027E+03  0.00000000000E+00 0. -1.
         11    1    5    5    0    0  0.51272738940E+01  0.45751128920E+02  0.12623216123E+03  0.13436522341E+03  0.00000000000E+00 0. -1.
        -12    1    5    5    0    0 -0.47554340377E+02  0.25326309270E+02  0.45920614068E+03  0.46235604989E+03  0.00000000000E+00 0.  1.
          5    1    4    4  501    0 -0.42052590681E+02 -0.11451745910E+03  0.55793175305E+02  0.13421259119E+03  0.41800000000E+01 0. -1.
         -5    1    4    4    0  501  0.48946850451E+00  0.31606064663E+02  0.21496872938E+01  0.31957416328E+02  0.41800000000E+01 0. -1.
</event>
<event>
11    1  0.6930157E-009  0.1336237E+03  0.7561462E-02  0.1114895E+00
         22   -1    0    0    0    0  0.00000000000E+00  0.00000000000E+00  0.40684916287E+02  0.40684916287E+02  0.00000000000E+00 0. -1.
         22   -1    0    0    0    0 -0.00000000000E+00 -0.00000000000E+00 -0.13175558887E+04  0.13175558887E+04  0.00000000000E+00 0. -1.
        -24    2    1    2    0    0 -0.17987824216E+01  0.10060184853E+02 -0.88143557530E+03  0.88513809613E+03  0.80226759211E+02 0.  0.
         25    2    1    2    0    0  0.70041538563E+01  0.38499085376E+02 -0.34006331557E+03  0.36444718156E+03  0.12508977498E+03 0.  0.
         24    2    1    2    0    0 -0.52053714347E+01 -0.48559270230E+02 -0.55372081584E+02  0.10865552733E+03  0.79717360613E+02 0.  0.
        -13    1    5    5    0    0  0.30103042453E+02 -0.84038514289E+01 -0.44029848625E+02  0.53994865068E+02  0.00000000000E+00 0.  1.
         14    1    5    5    0    0 -0.35308413887E+02 -0.40155418801E+02 -0.11342232959E+02  0.54660662261E+02  0.00000000000E+00 0. -1.
         13    1    3    3    0    0 -0.19756292792E+02  0.41300086174E+00 -0.82321240847E+03  0.82344954377E+03  0.00000000000E+00 0. -1.
        -14    1    3    3    0    0  0.17957510370E+02  0.96471839917E+01 -0.58223166825E+02  0.61688552364E+02  0.00000000000E+00 0.  1.
          5    1    4    4  501    0  0.65194016564E+02  0.30151003607E+02 -0.19648122245E+03  0.20924073693E+03  0.41800000000E+01 0.  1.
         -5    1    4    4    0  501 -0.58189862707E+02  0.83480817697E+01 -0.14358209312E+03  0.15520644463E+03  0.41800000000E+01 0.  1.
</event>
<event>
11    1  0.6930157E-009  0.1357257E+03  0.7561462E-02  0.1112427E+00
         22   -1    0    0    0    0  0.00000000000E+00  0.00000000000E+00  0.18558142986E+04  0.18558142986E+04  0.00000000000E+00 0. -1.
         22   -1    0    0    0    0 -0.00000000000E+00 -0.00000000000E+00 -0.13320928187E+03  0.13320928187E+03  0.00000000000E+00 0. -1.
        -24    2    1    2    0    0  0.40343931548E+02 -0.26418005059E+02 -0.76191124414E+02  0.11955347916E+03  0.78500975384E+02 0.  0.
         25    2    1    2    0    0 -0.80830941145E+02  0.36840538533E+02  0.13830978784E+03  0.20656285563E+03  0.12509096526E+03 0.  0.
         24    2    1    2    0    0  0.40487009597E+02 -0.10422533474E+02  0.16604863533E+04  0.16629072457E+04  0.79358370907E+02 0.  0.
        -11    1    5    5    0    0  0.33707096475E+02  0.31640918218E+02  0.97821776953E+03  0.97930961431E+03  0.00000000000E+00 0.  1.
         12    1    5    5    0    0  0.67799131225E+01 -0.42063451691E+02  0.68226858378E+03  0.68359763137E+03  0.00000000000E+00 0. -1.
         11    1    3    3    0    0  0.24080783023E+02 -0.38497062566E+02 -0.85843410354E+02  0.97113330899E+02  0.00000000000E+00 0. -1.
        -12    1    3    3    0    0  0.16263148525E+02  0.12079057507E+02  0.96522859394E+01  0.22440148263E+02  0.00000000000E+00 0.  1.
          5    1    4    4  501    0 -0.60219973653E+02  0.74695546866E+02  0.13133085727E+03  0.16269952802E+03  0.41800000000E+01 0.  1.
         -5    1    4    4    0  501 -0.20610967492E+02 -0.37855008333E+02  0.69789305688E+01  0.43863327607E+02  0.41800000000E+01 0.  1.
</event>
<event>
11    1  0.6930157E-009  0.1346639E+03  0.7561462E-02  0.1113668E+00
         22   -1    0    0    0    0  0.00000000000E+00  0.00000000000E+00  0.36582781815E+03  0.36582781815E+03  0.00000000000E+00 0.  1.
         22   -1    0    0    0    0 -0.00000000000E+00 -0.00000000000E+00 -0.39047761443E+03  0.39047761443E+03  0.00000000000E+00 0.  1.
         24    2    1    2    0    0  0.49600483675E+02 -0.42839297989E+01 -0.28643963025E+03  0.30166522492E+03  0.80471647883E+02 0.  0.
         25    2    1    2    0    0 -0.48435097601E+02  0.21048671319E+02 -0.39324832049E+02  0.14136072987E+03  0.12508960105E+03 0.  0.
        -24    2    1    2    0    0 -0.11653860742E+01 -0.16764741521E+02  0.30111466601E+03  0.31327947779E+03  0.84803151077E+02 0.  0.
        -13    1    3    3    0    0  0.19427493199E+02  0.87450444843E+01 -0.25594832681E+03  0.25683350500E+03  0.00000000000E+00 0.  1.
         14    1    3    3    0    0  0.30172990476E+02 -0.13028974283E+02 -0.30491303435E+02  0.44831719912E+02  0.00000000000E+00 0. -1.
         11    1    5    5    0    0  0.13313410994E+02  0.16168164383E+02  0.17219412233E+02  0.27113919109E+02  0.00000000000E+00 0. -1.
        -12    1    5    5    0    0 -0.14478797068E+02 -0.32932905903E+02  0.28389525378E+03  0.28616555868E+03  0.00000000000E+00 0.  1.
          5    1    4    4  501    0  0.16439784358E+01 -0.38371732125E+02  0.20001954611E+02  0.43504517923E+02  0.41800000000E+01 0.  1.
         -5    1    4    4    0  501 -0.50079076037E+02  0.59420403445E+02 -0.59326786660E+02  0.97856211952E+02  0.41800000000E+01 0.  1.
</event>
<event>
11    1  0.6930157E-009  0.1312098E+03  0.7561462E-02  0.1117791E+00
         22   -1    0    0    0    0  0.00000000000E+00  0.00000000000E+00  0.45494727337E+03  0.45494727337E+03  0.00000000000E+00 0. -1.
         22   -1    0    0    0    0 -0.00000000000E+00 -0.00000000000E+00 -0.39280990996E+03  0.39280990996E+03  0.00000000000E+00 0.  1.
        -24    2    1    2    0    0  0.53318427271E+01  0.11365591202E+02 -0.34633754883E+03  0.35493330672E+03  0.76618204620E+02 0.  0.
         25    2    1    2    0    0  0.15061357431E+02 -0.44097659509E+02  0.88425147474E+02  0.16011433976E+03  0.12508455951E+03 0.  0.
         24    2    1    2    0    0 -0.20393200158E+02  0.32732068307E+02  0.32004976476E+03  0.33270953685E+03  0.82319578965E+02 0.  0.
        -13    1    5    5    0    0 -0.30556943173E+01  0.29699040993E+02  0.30695189843E+02  0.42820146931E+02  0.00000000000E+00 0.  1.
         14    1    5    5    0    0 -0.17337505841E+02  0.30330273139E+01  0.28935457492E+03  0.28988938992E+03  0.00000000000E+00 0. -1.
         11    1    3    3    0    0 -0.78206394886E+01 -0.31341738331E+02 -0.16840873739E+03  0.17147877359E+03  0.00000000000E+00 0. -1.
        -12    1    3    3    0    0  0.13152482216E+02  0.42707329533E+02 -0.17792881144E+03  0.18345453313E+03  0.00000000000E+00 0.  1.
          5    1    4    4  501    0 -0.22818712227E+02 -0.43138255544E+02 -0.13903326788E+02  0.50915396638E+02  0.41800000000E+01 0.  1.
         -5    1    4    4    0  501  0.37880069658E+02 -0.95940396486E+00  0.10232847426E+03  0.10919894312E+03  0.41800000000E+01 0.  1.
</event>
<event>
11    1  0.6930157E-009  0.1313300E+03  0.7561462E-02  0.1117646E+00
         22   -1    0    0    0    0  0.00000000000E+00  0.00000000000E+00  0.18339805107E+04  0.18339805107E+04  0.00000000000E+00 0.  1.
         22   -1    0    0    0    0 -0.00000000000E+00 -0.00000000000E+00 -0.12902113749E+04  0.12902113749E+04  0.00000000000E+00 0.  1.
         24    2    1    2    0    0 -0.25613424753E+02  0.21784998678E+02 -0.11799629737E+04  0.11831696369E+04  0.80294064532E+02 0.  0.
         25    2    1    2    0    0  0.58178128313E+02  0.13038867506E+01 -0.63236834309E+02  0.15176361715E+03  0.12508758349E+03 0.  0.
        -24    2    1    2    0    0 -0.32564703560E+02 -0.23088885428E+02  0.17869689438E+04  0.17892586315E+04  0.81208913974E+02 0.  0.
        -13    1    3    3    0    0  0.10211323692E+02  0.33668931691E+02 -0.89832388515E+03  0.89901260877E+03  0.00000000000E+00 0.  1.
         14    1    3    3    0    0 -0.35824748446E+02 -0.11883933013E+02 -0.28163908852E+03  0.28415702815E+03  0.00000000000E+00 0. -1.
         11    1    5    5    0    0 -0.35795627116E+01  0.23834869110E+02  0.10304529845E+04  0.10307348192E+04  0.00000000000E+00 0. -1.
        -12    1    5    5    0    0 -0.28985140848E+02 -0.46923754538E+02  0.75651595936E+03  0.75852381234E+03  0.00000000000E+00 0.  1.
          5    1    4    4  501    0  0.58465036078E+01 -0.56553814278E+02 -0.11775042945E+02  0.58212022385E+02  0.41800000000E+01 0.  1.
         -5    1    4    4    0  501  0.52331624705E+02  0.57857701029E+02 -0.51461791364E+02  0.93551594765E+02  0.41800000000E+01 0.  1.
</event>
<event>
11    1  0.6930157E-009  0.1290964E+03  0.7561462E-02  0.1120384E+00
         22   -1    0    0    0    0  0.00000000000E+00  0.00000000000E+00  0.77700378438E+03  0.77700378438E+03  0.00000000000E+00 0.  1.
         22   -1    0    0    0    0 -0.00000000000E+00 -0.00000000000E+00 -0.12739331609E+03  0.12739331609E+03  0.00000000000E+00 0.  1.
         24    2    1    2    0    0  0.12109652257E+02 -0.28176371532E+02 -0.47315721817E+02  0.97075068215E+02  0.79020502070E+02 0.  0.
         25    2    1    2    0    0 -0.30635946934E+02  0.24909514736E+02  0.28581905960E+02  0.13423853510E+03  0.12507603203E+03 0.  0.
        -24    2    1    2    0    0  0.18526294677E+02  0.32668567961E+01  0.66834428414E+03  0.67308349715E+03  0.77481714258E+02 0.  0.
        -11    1    3    3    0    0  0.38323792492E+02 -0.10387791055E+02 -0.51597653633E+02  0.65107120459E+02  0.00000000000E+00 0.  1.
         12    1    3    3    0    0 -0.26214140235E+02 -0.17788580477E+02  0.42819318159E+01  0.31967947756E+02  0.00000000000E+00 0. -1.
         13    1    5    5    0    0 -0.21975997121E+02  0.10705510367E+02  0.89560085291E+02  0.92836206724E+02  0.00000000000E+00 0. -1.
        -14    1    5    5    0    0  0.40502291798E+02 -0.74386535706E+01  0.57878419885E+03  0.58024729043E+03  0.00000000000E+00 0.  1.
          5    1    4    4  501    0 -0.32331321963E+02  0.27650110641E+02 -0.44069456910E+02  0.61395703683E+02  0.41800000000E+01 0.  1.
         -5    1    4    4    0  501  0.16953750288E+01 -0.27405959057E+01  0.72651362870E+02  0.72842831420E+02  0.41800000000E+01 0.  1.
</event>
<event>
11    1  0.6930157E-009  0.2193843E+03  0.7561462E-02  0.1041604E+00
         22   -1    0    0    0    0  0.00000000000E+00  0.00000000000E+00  0.88149780617E+03  0.88149780617E+03  0.00000000000E+00 0.  1.
         22   -1    0    0    0    0 -0.00000000000E+00 -0.00000000000E+00 -0.49467367677E+03  0.49467367677E+03  0.00000000000E+00 0.  1.
        -24    2    1    2    0    0 -0.11727537702E+03 -0.54564166680E+02 -0.53256678127E+02  0.16073739003E+03  0.79180000290E+02 0.  0.
         25    2    1    2    0    0  0.29091061243E+03  0.84675773828E+02 -0.30368604077E+03  0.44684636075E+03  0.12508991829E+03 0.  0.
         24    2    1    2    0    0 -0.17363523541E+03 -0.30111607148E+02  0.74376684830E+03  0.76858773216E+03  0.80511325599E+02 0.  0.
        -13    1    5    5    0    0 -0.97818519830E+02 -0.13568161767E+02  0.56702369621E+03  0.57555923232E+03  0.00000000000E+00 0.  1.
         14    1    5    5    0    0 -0.75816715578E+02 -0.16543445381E+02  0.17674315208E+03  0.19302849985E+03  0.00000000000E+00 0. -1.
         13    1    3    3    0    0 -0.58424215719E+02 -0.15913842900E+02  0.15310482363E+02  0.62458388135E+02  0.00000000000E+00 0. -1.
        -14    1    3    3    0    0 -0.58851161305E+02 -0.38650323780E+02 -0.68567160490E+02  0.98279001892E+02  0.00000000000E+00 0.  1.
          5    1    4    4  501    0  0.17615453942E+03  0.39155924243E+02 -0.94077376274E+02  0.20354761922E+03  0.41800000000E+01 0.  1.
         -5    1    4    4    0  501  0.11475607301E+03  0.45519849585E+02 -0.20960866450E+03  0.24329874153E+03  0.41800000000E+01 0.  1.
</event>
<event>
11    1  0.6930157E-009  0.2158440E+03  0.7561462E-02  0.1043853E+00
         22   -1    0    0    0    0  0.00000000000E+00  0.00000000000E+00  0.64386000580E+03  0.64386000580E+03  0.00000000000E+00 0.  1.
         22   -1    0    0    0    0 -0.00000000000E+00 -0.00000000000E+00 -0.15885133120E+03  0.15885133120E+03  0.00000000000E+00 0.  1.
         24    2    1    2    0    0 -0.39346621135E+02 -0.13100343355E+02 -0.41830611996E+02  0.10148819752E+03  0.82645499248E+02 0.  0.
         25    2    1    2    0    0 -0.27878246838E+02 -0.15643798418E+03  0.90784851487E+02  0.22167230876E+03  0.12508670462E+03 0.  0.
        -24    2    1    2    0    0  0.67224867973E+02  0.16953832753E+03  0.43605443510E+03  0.47955083071E+03  0.81012971116E+02 0.  0.
        -11    1    3    3    0    0 -0.28572955478E+02  0.31312806175E+02 -0.47869469925E+01  0.42659353920E+02  0.00000000000E+00 0.  1.
         12    1    3    3    0    0 -0.10773665657E+02 -0.44413149531E+02 -0.37043665003E+02  0.58828843604E+02  0.00000000000E+00 0. -1.
         11    1    5    5    0    0  0.57977508428E+02  0.61837327903E+02  0.13220585577E+03  0.15704660106E+03  0.00000000000E+00 0. -1.
        -12    1    5    5    0    0  0.92473595448E+01  0.10770099963E+03  0.30384857934E+03  0.32250422965E+03  0.00000000000E+00 0.  1.
          5    1    4    4  501    0  0.75744555673E+01 -0.14974935418E+03  0.33261450220E+02  0.15364256547E+03  0.41800000000E+01 0. -1.
         -5    1    4    4    0  501 -0.35452702405E+02 -0.66886300028E+01  0.57523401267E+02  0.68029743293E+02  0.41800000000E+01 0. -1.
</event>
<event>
11    1  0.6930157E-009  0.1522057E+03  0.7561462E-02  0.1094646E+00
         22   -1    0    0    0    0  0.00000000000E+00  0.00000000000E+00  0.14459222844E+04  0.14459222844E+04  0.00000000000E+00 0. -1.
         22   -1    0    0    0    0 -0.00000000000E+00 -0.00000000000E+00 -0.20141765880E+03  0.20141765880E+03  0.00000000000E+00 0.  1.
        -24    2    1    2    0    0 -0.19474334415E+01 -0.89479553503E+02 -0.13770158537E+03  0.18264694351E+03  0.79923690893E+02 0.  0.
         25    2    1    2    0    0  0.44993044952E+02  0.66860443252E+02  0.10034583470E+03  0.17947664608E+03  0.12509151442E+03 0.  0.
         24    2    1    2    0    0 -0.43045611511E+02  0.22619110251E+02  0.12818603763E+04  0.12852163536E+04  0.79060119653E+02 0.  0.
        -11    1    5    5    0    0  0.11993646947E+02  0.14116913889E+02  0.82088024536E+02  0.84152115821E+02  0.00000000000E+00 0.  1.
         12    1    5    5    0    0 -0.55039258458E+02  0.85021963622E+01  0.11997723517E+04  0.12010642378E+04  0.00000000000E+00 0. -1.
         13    1    3    3    0    0  0.32732006050E+02 -0.17863612044E+02 -0.64623834046E+02  0.74610540690E+02  0.00000000000E+00 0. -1.
        -14    1    3    3    0    0 -0.34679439491E+02 -0.71615941459E+02 -0.73077751327E+02  0.10803640282E+03  0.00000000000E+00 0.  1.
          5    1    4    4  501    0 -0.58345038999E+01  0.82623689730E+02  0.24031769452E+02  0.86346475801E+02  0.41800000000E+01 0. -1.
         -5    1    4    4    0  501  0.50827548852E+02 -0.15763246478E+02  0.76314065244E+02  0.93130170277E+02  0.41800000000E+01 0. -1.
</event>
<event>
11    1  0.6930157E-009  0.1475171E+03  0.7561462E-02  0.1099443E+00
         22   -1    0    0    0    0  0.00000000000E+00  0.00000000000E+00  0.28108157403E+03  0.28108157403E+03  0.00000000000E+00 0. -1.
         22   -1    0    0    0    0 -0.00000000000E+00 -0.00000000000E+00 -0.34867423967E+03  0.34867423967E+03  0.00000000000E+00 0.  1.
        -24    2    1    2    0    0 -0.65531147118E+02 -0.41825722251E+02 -0.26247151064E+03  0.28535096070E+03  0.80561495707E+02 0.  0.
         25    2    1    2    0    0  0.61395626095E+02  0.54229346679E+02  0.19776953373E+02  0.15085747131E+03  0.12512635142E+03 0.  0.
         24    2    1    2    0    0  0.41355210226E+01 -0.12403624429E+02  0.17510189163E+03  0.19354738168E+03  0.81418450439E+02 0.  0.
        -13    1    5    5    0    0 -0.14476922813E+02  0.21142677457E+02  0.16746320826E+02  0.30611000726E+02  0.00000000000E+00 0.  1.
         14    1    5    5    0    0  0.18612443836E+02 -0.33546301886E+02  0.15835557080E+03  0.16293638096E+03  0.00000000000E+00 0. -1.
         13    1    3    3    0    0 -0.58721214869E+02 -0.31349849263E+02 -0.87540260757E+02  0.10997404866E+03  0.00000000000E+00 0. -1.
        -14    1    3    3    0    0 -0.68099322483E+01 -0.10475872987E+02 -0.17493124989E+03  0.17537691205E+03  0.00000000000E+00 0.  1.
          5    1    4    4  501    0 -0.43796003533E+01  0.67956178518E+02 -0.21929826436E+02  0.71663189892E+02  0.41800000000E+01 0.  1.
         -5    1    4    4    0  501  0.65775226448E+02 -0.13726831838E+02  0.41706779810E+02  0.79194281415E+02  0.41800000000E+01 0.  1.
</event>
<event>
11    1  0.6930157E-009  0.1370511E+03  0.7561462E-02  0.1110897E+00
         22   -1    0    0    0    0  0.00000000000E+00  0.00000000000E+00  0.24992895638E+03  0.24992895638E+03  0.00000000000E+00 0. -1.
         22   -1    0    0    0    0 -0.00000000000E+00 -0.00000000000E+00 -0.27346657453E+03  0.27346657453E+03  0.00000000000E+00 0. -1.
        -24    2    1    2    0    0  0.13022201135E+02  0.29227004655E+02 -0.18462462193E+03  0.20377914286E+03  0.80099266656E+02 0.  0.
         25    2    1    2    0    0  0.42256346716E+02 -0.56465798544E+01  0.23381063608E+01  0.13217672486E+03  0.12509091554E+03 0.  0.
         24    2    1    2    0    0 -0.55278547851E+02 -0.23580424801E+02  0.15874889742E+03  0.18743966319E+03  0.79502582464E+02 0.  0.
        -11    1    5    5    0    0 -0.60756980602E+02 -0.80228275173E+01  0.54867655624E+02  0.82257133957E+02  0.00000000000E+00 0.  1.
         12    1    5    5    0    0  0.54784327510E+01 -0.15557597283E+02  0.10388124180E+03  0.10518252923E+03  0.00000000000E+00 0. -1.
         13    1    3    3    0    0 -0.33859587634E+02  0.13532670465E+02 -0.69405493375E+02  0.78401067309E+02  0.00000000000E+00 0. -1.
        -14    1    3    3    0    0  0.46881788770E+02  0.15694334191E+02 -0.11521912856E+03  0.12537807555E+03  0.00000000000E+00 0.  1.
          5    1    4    4  501    0  0.14429003948E+02  0.21450414241E+02 -0.56084229932E+02  0.61896927816E+02  0.41800000000E+01 0.  1.
         -5    1    4    4    0  501  0.27827342767E+02 -0.27096994095E+02  0.58422336293E+02  0.70279797043E+02  0.41800000000E+01 0.  1.
</event>
<event>
11    1  0.6930157E-009  0.1322721E+03  0.7561462E-02  0.1116508E+00
         22   -1    0    0    0    0  0.00000000000E+00  0.00000000000E+00  0.12515768710E+02  0.12515768710E+02  0.00000000000E+00 0.  1.
         22   -1    0    0    0    0 -0.00000000000E+00 -0.00000000000E+00 -0.38388052970E+04  0.38388052970E+04  0.00000000000E+00 0.  1.
         24    2    1    2    0    0 -0.31483023685E+02 -0.27554818096E+02 -0.22623589835E+04  0.22641872453E+04  0.80779097530E+02 0.  0.
         25    2    1    2    0    0  0.51576210652E+02  0.97431287521E+01 -0.14214161406E+04  0.14278748826E+04  0.12509117275E+03 0.  0.
        -24    2    1    2    0    0 -0.20093186967E+02  0.17811689344E+02 -0.14251440418E+03  0.15925893785E+03  0.65818397483E+02 0.  0.
        -11    1    3    3    0    0 -0.27499498670E+02 -0.45551501259E+02 -0.21164339876E+04  0.21171027338E+04  0.00000000000E+00 0.  1.
         12    1    3    3    0    0 -0.39835250153E+01  0.17996683164E+02 -0.14592499593E+03  0.14708451147E+03  0.00000000000E+00 0. -1.
         11    1    5    5    0    0  0.36823236185E+01 -0.12021941942E+02 -0.10501739532E+03  0.10576738588E+03  0.00000000000E+00 0. -1.
        -12    1    5    5    0    0 -0.23775510586E+02  0.29833631285E+02 -0.37497008856E+02  0.53491551973E+02  0.00000000000E+00 0.  1.
          5    1    4    4  501    0 -0.12604943728E+01 -0.11181901759E+01 -0.11977390432E+04  0.11977475223E+04  0.41800000000E+01 0.  1.
         -5    1    4    4    0  501  0.52836705025E+02  0.10861318928E+02 -0.22367709742E+03  0.23012736030E+03  0.41800000000E+01 0.  1.
</event>
<event>
11    1  0.6930157E-009  0.1713441E+03  0.7561462E-02  0.1076868E+00
         22   -1    0    0    0    0  0.00000000000E+00  0.00000000000E+00  0.12791507019E+04  0.12791507019E+04  0.00000000000E+00 0.  1.
         22   -1    0    0    0    0 -0.00000000000E+00 -0.00000000000E+00 -0.46908304178E+03  0.46908304178E+03  0.00000000000E+00 0.  1.
        -24    2    1    2    0    0 -0.73640841923E+02 -0.92980640905E+02 -0.41633212638E+03  0.44365322991E+03  0.97094674264E+02 0.  0.
         25    2    1    2    0    0  0.97047326752E+02  0.44617964857E+02  0.14636946026E+03  0.22021395571E+03  0.12514480002E+03 0.  0.
         24    2    1    2    0    0 -0.23406484829E+02  0.48362676048E+02  0.10800303263E+04  0.10843665581E+04  0.80613365422E+02 0.  0.
        -13    1    5    5    0    0 -0.22847838517E+02 -0.16075084819E+02  0.49730144614E+03  0.49808549508E+03  0.00000000000E+00 0.  1.
         14    1    5    5    0    0 -0.55864631214E+00  0.64437760867E+02  0.58272888013E+03  0.58628106302E+03  0.00000000000E+00 0. -1.
         11    1    3    3    0    0  0.20056951036E+02  0.16191411768E+01 -0.56636938434E+02  0.60105288438E+02  0.00000000000E+00 0. -1.
        -12    1    3    3    0    0 -0.93697792959E+02 -0.94599782081E+02 -0.35969518794E+03  0.38354794147E+03  0.00000000000E+00 0.  1.
          5    1    4    4  501    0  0.11176514300E+02  0.35962520471E+01 -0.22848553441E+02  0.26026453755E+02  0.41800000000E+01 0. -1.
         -5    1    4    4    0  501  0.85870812452E+02  0.41021712810E+02  0.16921801370E+03  0.19418750195E+03  0.41800000000E+01 0. -1.
</event>
<event>
11    1  0.6930157E-009  0.1476437E+03  0.7561462E-02  0.1099311E+00
         22   -1    0    0    0    0  0.00000000000E+00  0.00000000000E+00  0.32916253841E+03  0.32916253841E+03  0.00000000000E+00 0.  1.
         22   -1    0    0    0    0 -0.00000000000E+00 -0.00000000000E+00 -0.24540607970E+03  0.24540607970E+03  0.00000000000E+00 0. -1.
         24    2    1    2    0    0  0.43028248425E+02 -0.20066140033E+02 -0.12459660787E+03  0.15637478684E+03  0.81698709468E+02 0.  0.
         25    2    1    2    0    0 -0.76210153258E+02 -0.50719377137E+02 -0.25962168641E+02  0.15717226334E+03  0.12509453819E+03 0.  0.
        -24    2    1    2    0    0  0.33181904832E+02  0.70785517170E+02  0.23431523522E+03  0.26102156794E+03  0.84362321128E+02 0.  0.
        -13    1    3    3    0    0  0.57292955628E+01 -0.34396828307E+01  0.12037819610E+02  0.13768273188E+02  0.00000000000E+00 0.  1.
         14    1    3    3    0    0  0.37298952862E+02 -0.16626457203E+02 -0.13663442748E+03  0.14260651365E+03  0.00000000000E+00 0. -1.
         11    1    5    5    0    0  0.25010365496E+02 -0.36393823420E+01  0.15258156813E+02  0.29522446298E+02  0.00000000000E+00 0. -1.
        -12    1    5    5    0    0  0.81715393359E+01  0.74424899512E+02  0.21905707840E+03  0.23149912164E+03  0.00000000000E+00 0.  1.
          5    1    4    4  501    0 -0.10096030449E+03 -0.56459784780E+01 -0.45279760562E+01  0.10130565198E+03  0.41800000000E+01 0. -1.
         -5    1    4    4    0  501  0.24750151235E+02 -0.45073398659E+02 -0.21434192585E+02  0.55866611357E+02  0.41800000000E+01 0. -1.
</event>
<event>
11    1  0.6930157E-009  0.2317905E+03  0.7561462E-02  0.1034073E+00
         22   -1    0    0    0    0  0.00000000000E+00  0.00000000000E+00  0.82458505527E+03  0.82458505527E+03  0.00000000000E+00 0.  1.
         22   -1    0    0    0    0 -0.00000000000E+00 -0.00000000000E+00 -0.97369685457E+03  0.97369685457E+03  0.00000000000E+00 0. -1.
         24    2    1    2    0    0 -0.15559216057E+03 -0.13623891501E+03 -0.69463851986E+03  0.72916163278E+03  0.79900256902E+02 0.  0.
         25    2    1    2    0    0  0.22164267413E+02  0.19780022042E+03 -0.19754633911E+03  0.30706411493E+03  0.12509049778E+03 0.  0.
        -24    2    1    2    0    0  0.13342789316E+03 -0.61561305413E+02  0.74307305966E+03  0.76205616213E+03  0.83541757479E+02 0.  0.
        -13    1    3    3    0    0 -0.58556446927E+02 -0.77863129166E+02 -0.21044600428E+03  0.23190309415E+03  0.00000000000E+00 0.  1.
         14    1    3    3    0    0 -0.97035713642E+02 -0.58375785845E+02 -0.48419251558E+03  0.49725853863E+03  0.00000000000E+00 0. -1.
         13    1    5    5    0    0 -0.11869949741E+02 -0.65221173312E+01  0.52334804935E+02  0.54058907952E+02  0.00000000000E+00 0. -1.
        -14    1    5    5    0    0  0.14529784290E+03 -0.55039188082E+02  0.69073825473E+03  0.70799725417E+03  0.00000000000E+00 0.  1.
          5    1    4    4  501    0 -0.39046603827E+02  0.31162245239E+02 -0.14840918973E+02  0.52282387806E+02  0.41800000000E+01 0.  1.
         -5    1    4    4    0  501  0.61210871240E+02  0.16663797518E+03 -0.18270542014E+03  0.25478172713E+03  0.41800000000E+01 0.  1.
</event>
<event>
11    1  0.6930157E-009  0.1329676E+03  0.7561462E-02  0.1115676E+00
         22   -1    0    0    0    0  0.00000000000E+00  0.00000000000E+00  0.12449047039E+03  0.12449047039E+03  0.00000000000E+00 0. -1.
         22   -1    0    0    0    0 -0.00000000000E+00 -0.00000000000E+00 -0.14846351494E+04  0.14846351494E+04  0.00000000000E+00 0.  1.
        -24    2    1    2    0    0  0.25092534194E+02 -0.30932489664E+02 -0.10178327609E+04  0.10217649725E+04  0.80210197083E+02 0.  0.
         25    2    1    2    0    0 -0.45323360623E+02  0.62906624259E+02 -0.43560471405E+03  0.45979374741E+03  0.12508945942E+03 0.  0.
         24    2    1    2    0    0  0.20230826430E+02 -0.31974134595E+02  0.93292795938E+02  0.12756689987E+03  0.78346260591E+02 0.  0.
        -13    1    5    5    0    0  0.96726551041E+01  0.17922034883E+02  0.67320371780E+02  0.70333434778E+02  0.00000000000E+00 0.  1.
         14    1    5    5    0    0  0.10558171325E+02 -0.49896169478E+02  0.25972424158E+02  0.57233465096E+02  0.00000000000E+00 0. -1.
         13    1    3    3    0    0  0.40651629425E+02 -0.39871306399E+02 -0.44199295363E+03  0.44564565196E+03  0.00000000000E+00 0. -1.
        -14    1    3    3    0    0 -0.15559095231E+02  0.89388167346E+01 -0.57583980725E+03  0.57611932054E+03  0.00000000000E+00 0.  1.
          5    1    4    4  501    0 -0.22126029779E+02  0.89218535312E+02 -0.18404438378E+03  0.20576519589E+03  0.41800000000E+01 0.  1.
         -5    1    4    4    0  501 -0.23197330845E+02 -0.26311911054E+02 -0.25156033027E+03  0.25402855152E+03  0.41800000000E+01 0.  1.
</event>
<event>
11    1  0.6930157E-009  0.2234261E+03  0.7561462E-02  0.1039092E+00
         22   -1    0    0    0    0  0.00000000000E+00  0.00000000000E+00  0.43362346061E+03  0.43362346061E+03  0.00000000000E+00 0.  1.
         22   -1    0    0    0    0 -0.00000000000E+00 -0.00000000000E+00 -0.77815405110E+03  0.77815405110E+03  0.00000000000E+00 0. -1.
        -24    2    1    2    0    0 -0.41580885246E+02 -0.17763843081E+03 -0.64041614911E+03  0.67061949029E+03  0.79456117428E+02 0.  0.
         25    2    1    2    0    0  0.13022569038E+03  0.18605344463E+03  0.45153188678E+02  0.26317427062E+03  0.12508905457E+03 0.  0.
         24    2    1    2    0    0 -0.88644805132E+02 -0.84150138175E+01  0.25073236994E+03  0.27798375081E+03  0.80495530603E+02 0.  0.
        -13    1    5    5    0    0 -0.96380618275E+02  0.72428949078E+01  0.23638620915E+03  0.25538230750E+03  0.00000000000E+00 0.  1.
         14    1    5    5    0    0  0.77358131429E+01 -0.15657908725E+02  0.14346160785E+02  0.22601443315E+02  0.00000000000E+00 0. -1.
         11    1    3    3    0    0 -0.28190766519E+02 -0.31094186915E+02 -0.70829961691E+02  0.82331350347E+02  0.00000000000E+00 0. -1.
        -12    1    3    3    0    0 -0.13390118726E+02 -0.14654424390E+03 -0.56958618742E+03  0.58828813994E+03  0.00000000000E+00 0.  1.
          5    1    4    4  501    0  0.35811922556E+02  0.92528313638E+02  0.77931960733E+02  0.12623329801E+03  0.41800000000E+01 0. -1.
         -5    1    4    4    0  501  0.94413767822E+02  0.93525130994E+02 -0.32778772056E+02  0.13694097261E+03  0.41800000000E+01 0. -1.
</event>
<event>
11    1  0.6930157E-009  0.1396275E+03  0.7561462E-02  0.1107975E+00
         22   -1    0    0    0    0  0.00000000000E+00  0.00000000000E+00  0.12053571712E+04  0.12053571712E+04  0.00000000000E+00 0.  1.
         22   -1    0    0    0    0 -0.00000000000E+00 -0.00000000000E+00 -0.76647328369E+03  0.76647328369E+03  0.00000000000E+00 0.  1.
         24    2    1    2    0    0 -0.62727849639E+02 -0.17866017856E+02 -0.69049009615E+03  0.69807377875E+03  0.79224049345E+02 0.  0.
         25    2    1    2    0    0  0.39308341625E+01  0.30016241761E+02 -0.10823881695E+02  0.12915299523E+03  0.12508762342E+03 0.  0.
        -24    2    1    2    0    0  0.58797015476E+02 -0.12150223905E+02  0.11401978653E+04  0.11446036809E+04  0.80384682964E+02 0.  0.
        -13    1    3    3    0    0 -0.53658411893E+02  0.11003621893E+02 -0.60330484278E+03  0.60578629745E+03  0.00000000000E+00 0.  1.
         14    1    3    3    0    0 -0.90694377461E+01 -0.28869639749E+02 -0.87185253369E+02  0.92287481303E+02  0.00000000000E+00 0. -1.
         11    1    5    5    0    0 -0.17772788165E+02 -0.13550114556E+02  0.18608345257E+03  0.18742072704E+03  0.00000000000E+00 0. -1.
        -12    1    5    5    0    0  0.76569803641E+02  0.13998906512E+01  0.95411441277E+03  0.95718295387E+03  0.00000000000E+00 0.  1.
          5    1    4    4  501    0  0.36581688845E+02  0.40953003952E+02  0.39685162565E+02  0.67880431784E+02  0.41800000000E+01 0.  1.
         -5    1    4    4    0  501 -0.32650854682E+02 -0.10936762191E+02 -0.50509044259E+02  0.61272563441E+02  0.41800000000E+01 0.  1.
</event>
<event>
11    1  0.6930157E-009  0.2148215E+03  0.7561462E-02  0.1044511E+00
         22   -1    0    0    0    0  0.00000000000E+00  0.00000000000E+00  0.11317259155E+04  0.11317259155E+04  0.00000000000E+00 0. -1.
         22   -1    0    0    0    0 -0.00000000000E+00 -0.00000000000E+00 -0.31004416487E+03  0.31004416487E+03  0.00000000000E+00 0. -1.
        -24    2    1    2    0    0 -0.13920787579E+03 -0.10157485975E+03 -0.23752714043E+03  0.30532459524E+03  0.84307064955E+02 0.  0.
         25    2    1    2    0    0  0.23835539526E+03  0.47670446628E+02  0.66577746664E+03  0.71971715008E+03  0.12508946836E+03 0.  0.
         24    2    1    2    0    0 -0.99147519471E+02  0.53904413126E+02  0.39343142438E+03  0.41672833502E+03  0.78347323789E+02 0.  0.
        -13    1    5    5    0    0 -0.64600028884E+02  0.16257774401E+02  0.10899964847E+03  0.12774350209E+03  0.00000000000E+00 0.  1.
         14    1    5    5    0    0 -0.34547490587E+02  0.37646638726E+02  0.28443177591E+03  0.28898483293E+03  0.00000000000E+00 0. -1.
         11    1    3    3    0    0 -0.11409469207E+03 -0.10870577168E+03 -0.22875741820E+03  0.27778498868E+03  0.00000000000E+00 0. -1.
        -12    1    3    3    0    0 -0.25113183720E+02  0.71309119278E+01 -0.87697222343E+01  0.27539606561E+02  0.00000000000E+00 0.  1.
          5    1    4    4  501    0  0.15462067487E+03  0.39880805952E+02  0.25884451528E+03  0.30416440830E+03  0.41800000000E+01 0. -1.
         -5    1    4    4    0  501  0.83734720390E+02  0.77896406754E+01  0.40693295136E+03  0.41555274178E+03  0.41800000000E+01 0. -1.
</event>
<event>
11    1  0.6930157E-009  0.1723909E+03  0.7561462E-02  0.1075970E+00
         22   -1    0    0    0    0  0.00000000000E+00  0.00000000000E+00  0.72577574821E+03  0.72577574821E+03  0.00000000000E+00 0. -1.
         22   -1    0    0    0    0 -0.00000000000E+00 -0.00000000000E+00 -0.15393168849E+04  0.15393168849E+04  0.00000000000E+00 0.  1.
         24    2    1    2    0    0 -0.18522484279E+01 -0.90679414420E+01 -0.14025761243E+04  0.14049422372E+04  0.80976829662E+02 0.  0.
         25    2    1    2    0    0 -0.10240394270E+03  0.65387656449E+02 -0.70306008525E+02  0.18802192486E+03  0.12508875368E+03 0.  0.
        -24    2    1    2    0    0  0.10425619113E+03 -0.56319715007E+02  0.65934099621E+03  0.67212847100E+03  0.54633950605E+02 0.  0.
        -11    1    3    3    0    0 -0.23515037886E+02  0.48727027400E+01 -0.12482390039E+04  0.12484699880E+04  0.00000000000E+00 0.  1.
         12    1    3    3    0    0  0.21662789458E+02 -0.13940644182E+02 -0.15433712047E+03  0.15647224917E+03  0.00000000000E+00 0. -1.
         13    1    5    5    0    0  0.10249238705E+03 -0.37216687953E+02  0.50760710294E+03  0.51918661598E+03  0.00000000000E+00 0. -1.
        -14    1    5    5    0    0  0.17638040721E+01 -0.19103027054E+02  0.15173389328E+03  0.15294185502E+03  0.00000000000E+00 0.  1.
          5    1    4    4  501    0 -0.63673461616E+02 -0.98404388976E+01 -0.79943218763E+02  0.10275959604E+03  0.41800000000E+01 0.  1.
         -5    1    4    4    0  501 -0.38730481082E+02  0.75228095347E+02  0.96372102385E+01  0.85262328818E+02  0.41800000000E+01 0.  1.
</event>
<event>
11    1  0.6930157E-009  0.1450762E+03  0.7561462E-02  0.1102019E+00
         22   -1    0    0    0    0  0.00000000000E+00  0.00000000000E+00  0.13603726154E+03  0.13603726154E+03  0.00000000000E+00 0.  1.
         22   -1    0    0    0    0 -0.00000000000E+00 -0.00000000000E+00 -0.21379236317E+04  0.21379236317E+04  0.00000000000E+00 0.  1.
        -24    2    1    2    0    0 -0.31944827090E+02 -0.15378802196E+02 -0.18096530681E+04  0.18118174538E+04  0.81125084809E+02 0.  0.
         25    2    1    2    0    0  0.83926951766E+02  0.63475008509E+02 -0.27941722426E+03  0.32372043515E+03  0.12509246572E+03 0.  0.
         24    2    1    2    0    0 -0.51982124676E+02 -0.48096206314E+02  0.87183922149E+02  0.13842300437E+03  0.80898118090E+02 0.  0.
        -13    1    5    5    0    0 -0.17609569642E+02  0.15084547154E+02  0.54877783730E+02  0.59575260410E+02  0.00000000000E+00 0.  1.
         14    1    5    5    0    0 -0.34372555035E+02 -0.63180753468E+02  0.32306138419E+02  0.78847743962E+02  0.00000000000E+00 0. -1.
         13    1    3    3    0    0 -0.41073352121E+02  0.22071871693E+01 -0.41706278105E+03  0.41908621460E+03  0.00000000000E+00 0. -1.
        -14    1    3    3    0    0  0.91285250307E+01 -0.17585989365E+02 -0.13925902870E+04  0.13927312392E+04  0.00000000000E+00 0.  1.
          5    1    4    4  501    0 -0.31697848449E+02  0.17137020299E+02 -0.41386835251E+02  0.55034294700E+02  0.41800000000E+01 0. -1.
         -5    1    4    4    0  501  0.11562480021E+03  0.46337988210E+02 -0.23803038901E+03  0.26868614045E+03  0.41800000000E+01 0. -1.
</event>
<event>
11    1  0.6930157E-009  0.1435279E+03  0.7561462E-02  0.1103682E+00
         22   -1    0    0    0    0  0.00000000000E+00  0.00000000000E+00  0.25387024999E+04  0.25387024999E+04  0.00000000000E+00 0. -1.
         22   -1    0    0    0    0 -0.00000000000E+00 -0.00000000000E+00 -0.37876070198E+03  0.37876070198E+03  0.00000000000E+00 0.  1.
        -24    2    1    2    0    0  0.64237800577E+02  0.28026101597E+02 -0.35613901547E+03  0.37254488266E+03  0.83920997749E+02 0.  0.
         25    2    1    2    0    0 -0.80175891242E+02 -0.29251323360E+02  0.40774404381E+03  0.43495611354E+03  0.12509117471E+03 0.  0.
         24    2    1    2    0    0  0.15938090665E+02  0.12252217629E+01  0.21083367696E+04  0.21099622056E+04  0.81246855028E+02 0.  0.
        -11    1    5    5    0    0 -0.11250531309E+02  0.33671758604E+02  0.61363492526E+03  0.61466103121E+03  0.00000000000E+00 0.  1.
         12    1    5    5    0    0  0.27188621975E+02 -0.32446536841E+02  0.14947018443E+04  0.14953011744E+04  0.00000000000E+00 0. -1.
         13    1    3    3    0    0 -0.13782311572E+02  0.26310813081E+02 -0.12894439985E+03  0.13232108392E+03  0.00000000000E+00 0. -1.
        -14    1    3    3    0    0  0.78020112149E+02  0.17152885160E+01 -0.22719461562E+03  0.24022379874E+03  0.00000000000E+00 0.  1.
          5    1    4    4  501    0 -0.26592288407E+02 -0.69848853715E+02  0.28798744214E+03  0.29755713972E+03  0.41800000000E+01 0.  1.
         -5    1    4    4    0  501 -0.53583602835E+02  0.40597530355E+02  0.11975660167E+03  0.13739897383E+03  0.41800000000E+01 0.  1.
</event>
<event>
11    1  0.6930157E-009  0.1634542E+03  0.7561462E-02  0.1083873E+00
         22   -1    0    0    0    0  0.00000000000E+00  0.00000000000E+00  0.32999897705E+03  0.32999897705E+03  0.00000000000E+00 0.  1.
         22   -1    0    0    0    0 -0.00000000000E+00 -0.00000000000E+00 -0.34318651489E+03  0.34318651489E+03  0.00000000000E+00 0.  1.
        -24    2    1    2    0    0  0.35595033456E+02 -0.16050197688E+02 -0.22868055599E+03  0.24409472091E+03  0.75913245442E+02 0.  0.
         25    2    1    2    0    0 -0.12836979870E+03 -0.22846691387E+02  0.32685787788E+01  0.18071658803E+03  0.12508806920E+03 0.  0.
         24    2    1    2    0    0  0.92774765240E+02  0.38896889075E+02  0.21222443937E+03  0.24837418300E+03  0.80810872239E+02 0.  0.
        -11    1    5    5    0    0  0.60450299594E+02  0.27888767294E+02  0.20206214128E+03  0.21274663570E+03  0.00000000000E+00 0.  1.
         12    1    5    5    0    0  0.32324465646E+02  0.11008121781E+02  0.10162298087E+02  0.35627547303E+02  0.00000000000E+00 0. -1.
         13    1    3    3    0    0  0.50791634967E+02 -0.11380576218E+02 -0.85956320166E+02  0.10048779366E+03  0.00000000000E+00 0. -1.
        -14    1    3    3    0    0 -0.15196601511E+02 -0.46696214702E+01 -0.14272423582E+03  0.14360692725E+03  0.00000000000E+00 0.  1.
          5    1    4    4  501    0 -0.33185888392E+02 -0.51615799110E+02 -0.38740172930E+02  0.72689526789E+02  0.41800000000E+01 0.  1.
         -5    1    4    4    0  501 -0.95183910304E+02  0.28769107723E+02  0.42008751709E+02  0.10802706124E+03  0.41800000000E+01 0.  1.
</event>
<event>
11    1  0.6930157E-009  0.2112167E+03  0.7561462E-02  0.1046863E+00
         22   -1    0    0    0    0  0.00000000000E+00  0.00000000000E+00  0.15800923377E+04  0.15800923377E+04  0.00000000000E+00 0. -1.
         22   -1    0    0    0    0 -0.00000000000E+00 -0.00000000000E+00 -0.23040325562E+03  0.23040325562E+03  0.00000000000E+00 0.  1.
        -24    2    1    2    0    0  0.69951770523E+02 -0.14308793146E+03 -0.12538071079E+03  0.21720202123E+03  0.78031974576E+02 0.  0.
         25    2    1    2    0    0 -0.87961416018E+02  0.24700901738E+03  0.32575135339E+03  0.43647773459E+03  0.12509277829E+03 0.  0.
         24    2    1    2    0    0  0.18009645495E+02 -0.10392108592E+03  0.11493184395E+04  0.11568158375E+04  0.78524309188E+02 0.  0.
        -13    1    5    5    0    0  0.27921073443E+02 -0.71618747070E+01  0.14774399574E+03  0.15052962190E+03  0.00000000000E+00 0.  1.
         14    1    5    5    0    0 -0.99114279480E+01 -0.96759211211E+02  0.10015744438E+04  0.10062862156E+04  0.00000000000E+00 0. -1.
         11    1    3    3    0    0 -0.15443823047E+01 -0.27396391236E+02  0.60201080950E+01  0.28092509161E+02  0.00000000000E+00 0. -1.
        -12    1    3    3    0    0  0.71496152827E+02 -0.11569154023E+03 -0.13140081889E+03  0.18910951207E+03  0.00000000000E+00 0.  1.
          5    1    4    4  501    0 -0.11684169125E+03  0.22603679447E+03  0.28904307876E+03  0.38510776031E+03  0.41800000000E+01 0. -1.
         -5    1    4    4    0  501  0.28880275233E+02  0.20972222906E+02  0.36708274627E+02  0.51369974277E+02  0.41800000000E+01 0. -1.
</event>
<event>
11    1  0.6930157E-009  0.4651117E+03  0.7561462E-02  0.9475048E-01
         22   -1    0    0    0    0  0.00000000000E+00  0.00000000000E+00  0.74511263141E+03  0.74511263141E+03  0.00000000000E+00 0.  1.
         22   -1    0    0    0    0 -0.00000000000E+00 -0.00000000000E+00 -0.11037840975E+04  0.11037840975E+04  0.00000000000E+00 0. -1.
        -24    2    1    2    0    0  0.43341220852E+02  0.26402388232E+02 -0.12109360494E+03  0.15326045860E+03  0.79054155387E+02 0.  0.
         25    2    1    2    0    0  0.26026954537E+03  0.30829009510E+03 -0.83879157857E+03  0.93914929970E+03  0.12508827230E+03 0.  0.
         24    2    1    2    0    0 -0.30361076622E+03 -0.33469248333E+03  0.60121371739E+03  0.75648697063E+03  0.81339086484E+02 0.  0.
        -13    1    5    5    0    0 -0.11029714597E+03 -0.13557337557E+03  0.29778272030E+03  0.34528270892E+03  0.00000000000E+00 0.  1.
         14    1    5    5    0    0 -0.19331362025E+03 -0.19911910776E+03  0.30343099710E+03  0.41120426171E+03  0.00000000000E+00 0. -1.
         11    1    3    3    0    0 -0.19787351834E+02  0.13966264682E+02 -0.59281495830E+02  0.64038204141E+02  0.00000000000E+00 0. -1.
        -12    1    3    3    0    0  0.63128572686E+02  0.12436123550E+02 -0.61812109113E+02  0.89222254462E+02  0.00000000000E+00 0.  1.
          5    1    4    4  501    0 -0.55377087401E+01  0.50212879878E+02 -0.12601197012E+03  0.13582521318E+03  0.41800000000E+01 0.  1.
         -5    1    4    4    0  501  0.26580725411E+03  0.25807721522E+03 -0.71277960845E+03  0.80332408652E+03  0.41800000000E+01 0.  1.
</event>
<event>
11    1  0.6930157E-009  0.1469055E+03  0.7561462E-02  0.1100083E+00
         22   -1    0    0    0    0  0.00000000000E+00  0.00000000000E+00  0.39136564261E+03  0.39136564261E+03  0.00000000000E+00 0.  1.
         22   -1    0    0    0    0 -0.00000000000E+00 -0.00000000000E+00 -0.23836911789E+03  0.23836911789E+03  0.00000000000E+00 0.  1.
         24    2    1    2    0    0 -0.67622447518E+02 -0.69816855673E+01 -0.97307493410E+02  0.14238233079E+03  0.78628496773E+02 0.  0.
         25    2    1    2    0    0  0.93037318519E+02  0.55206763869E+02 -0.49008184152E+02  0.17249198646E+03  0.12509178176E+03 0.  0.
        -24    2    1    2    0    0 -0.25414871002E+02 -0.48225078301E+02  0.29931220229E+03  0.31486044326E+03  0.81103208612E+02 0.  0.
        -13    1    3    3    0    0 -0.29424953086E+02 -0.42363570965E+02 -0.53791854083E+02  0.74525590066E+02  0.00000000000E+00 0.  1.
         14    1    3    3    0    0 -0.38197494432E+02  0.35381885397E+02 -0.43515639327E+02  0.67856740721E+02  0.00000000000E+00 0. -1.
         11    1    5    5    0    0 -0.31970612567E+02 -0.38892074818E+02  0.75433330095E+02  0.90691239052E+02  0.00000000000E+00 0. -1.
        -12    1    5    5    0    0  0.65557415657E+01 -0.93330034832E+01  0.22387887219E+03  0.22416920421E+03  0.00000000000E+00 0.  1.
          5    1    4    4  501    0 -0.30204064161E+02  0.11144670799E+02  0.57810335333E+00  0.32469921197E+02  0.41800000000E+01 0. -1.
         -5    1    4    4    0  501  0.12324138268E+03  0.44062093069E+02 -0.49586287505E+02  0.14002206526E+03  0.41800000000E+01 0. -1.
</event>
<event>
11    1  0.6930157E-009  0.1509169E+03  0.7561462E-02  0.1095946E+00
         22   -1    0    0    0    0  0.00000000000E+00  0.00000000000E+00  0.50177632962E+03  0.50177632962E+03  0.00000000000E+00 0. -1.
         22   -1    0    0    0    0 -0.00000000000E+00 -0.00000000000E+00 -0.30350449747E+03  0.30350449747E+03  0.00000000000E+00 0. -1.
        -24    2    1    2    0    0 -0.42303361252E+02  0.45349066524E+02 -0.17509325970E+03  0.20256615746E+03  0.80803999584E+02 0.  0.
         25    2    1    2    0    0 -0.39248771966E+02 -0.72747009433E+02 -0.54695535815E+02  0.15959930853E+03  0.12509094357E+03 0.  0.
         24    2    1    2    0    0  0.81552133218E+02  0.27397942909E+02  0.42806062767E+03  0.44311536110E+03  0.75590505851E+02 0.  0.
        -11    1    5    5    0    0  0.29970407689E+01  0.27671944709E+02  0.19948922243E+03  0.20142161910E+03  0.00000000000E+00 0.  1.
         12    1    5    5    0    0  0.78555092449E+02 -0.27400179950E+00  0.22857140524E+03  0.24169374200E+03  0.00000000000E+00 0. -1.
         11    1    3    3    0    0 -0.58442605798E+02  0.57205532815E+02 -0.14319785566E+03  0.16490493329E+03  0.00000000000E+00 0. -1.
        -12    1    3    3    0    0  0.16139244546E+02 -0.11856466291E+02 -0.31895404038E+02  0.37661224172E+02  0.00000000000E+00 0.  1.
          5    1    4    4  501    0 -0.20939561573E+02 -0.73061606168E+02 -0.91051888387E+02  0.11867764033E+03  0.41800000000E+01 0. -1.
         -5    1    4    4    0  501 -0.18309210394E+02  0.31459673473E+00  0.36356352573E+02  0.40921668206E+02  0.41800000000E+01 0. -1.
</event>
<event>
11    1  0.6930157E-009  0.1987504E+03  0.7561462E-02  0.1055411E+00
         22   -1    0    0    0    0  0.00000000000E+00  0.00000000000E+00  0.13762328247E+04  0.13762328247E+04  0.00000000000E+00 0.  1.
         22   -1    0    0    0    0 -0.00000000000E+00 -0.00000000000E+00 -0.21293410495E+03  0.21293410495E+03  0.00000000000E+00 0. -1.
        -24    2    1    2    0    0 -0.41249248143E+01 -0.16016762086E+02 -0.14891196360E+03  0.17200229288E+03  0.84477595724E+02 0.  0.
         25    2    1    2    0    0 -0.61057216870E+02  0.15423727209E+03  0.18988578792E+03  0.28146336377E+03  0.12509153791E+03 0.  0.
         24    2    1    2    0    0  0.65182141684E+02 -0.13822051000E+03  0.11223248954E+04  0.11357012730E+04  0.82768288521E+02 0.  0.
        -11    1    5    5    0    0  0.69065991385E+02 -0.51583353792E+02  0.61611942045E+03  0.62212064249E+03  0.00000000000E+00 0.  1.
         12    1    5    5    0    0 -0.38838497002E+01 -0.86637156210E+02  0.50620547495E+03  0.51358063047E+03  0.00000000000E+00 0. -1.
         13    1    3    3    0    0 -0.28308788234E+02  0.13725735814E+02 -0.11981418202E+03  0.12387583109E+03  0.00000000000E+00 0. -1.
        -14    1    3    3    0    0  0.24183863420E+02 -0.29742497901E+02 -0.29097781578E+02  0.48126461786E+02  0.00000000000E+00 0.  1.
          5    1    4    4  501    0 -0.39838175723E+02  0.13371111889E+02 -0.21937670030E+01  0.42286545044E+02  0.41800000000E+01 0.  1.
         -5    1    4    4    0  501 -0.21219041147E+02  0.14086616020E+03  0.19207955492E+03  0.23917681872E+03  0.41800000000E+01 0.  1.
</event>
<event>
11    1  0.6930157E-009  0.1351575E+03  0.7561462E-02  0.1113090E+00
         22   -1    0    0    0    0  0.00000000000E+00  0.00000000000E+00  0.19460624584E+03  0.19460624584E+03  0.00000000000E+00 0. -1.
         22   -1    0    0    0    0 -0.00000000000E+00 -0.00000000000E+00 -0.82078053322E+03  0.82078053322E+03  0.00000000000E+00 0. -1.
        -24    2    1    2    0    0 -0.29510203849E+02  0.38149664814E+02 -0.56521881790E+03  0.57320447434E+03  0.82248454282E+02 0.  0.
         25    2    1    2    0    0  0.84149898736E+01 -0.83102583511E+02 -0.21092010639E+03  0.25905948675E+03  0.12509066694E+03 0.  0.
         24    2    1    2    0    0  0.21095213975E+02  0.44952918696E+02  0.14996463692E+03  0.18312281796E+03  0.92621818065E+02 0.  0.
        -13    1    5    5    0    0 -0.33770872164E+02 -0.50769102553E+00  0.51283987777E+02  0.61406652402E+02  0.00000000000E+00 0.  1.
         14    1    5    5    0    0  0.54866086140E+02  0.45460609722E+02  0.98680649140E+02  0.12171616556E+03  0.00000000000E+00 0. -1.
         11    1    3    3    0    0 -0.31247984729E+02  0.44453779557E+02 -0.56392703628E+03  0.56653885772E+03  0.00000000000E+00 0. -1.
        -12    1    3    3    0    0  0.17377808798E+01 -0.63041147429E+01 -0.12917816268E+01  0.66656166143E+01  0.00000000000E+00 0.  1.
          5    1    4    4  501    0  0.11606016753E+02  0.32351703453E+02 -0.42926343664E+02  0.55149575896E+02  0.41800000000E+01 0. -1.
         -5    1    4    4    0  501 -0.31910268793E+01 -0.11545428696E+03 -0.16799376273E+03  0.20390991086E+03  0.41800000000E+01 0. -1.
</event>
<event>
11    1  0.6930157E-009  0.1349271E+03  0.7561462E-02  0.1113359E+00
         22   -1    0    0    0    0  0.00000000000E+00  0.00000000000E+00  0.13268694404E+04  0.13268694404E+04  0.00000000000E+00 0.  1.
         22   -1    0    0    0    0 -0.00000000000E+00 -0.00000000000E+00 -0.12333894877E+04  0.12333894877E+04  0.00000000000E+00 0. -1.
         24    2    1    2    0    0  0.10004735193E+01  0.50514715392E+02 -0.12164948550E+04  0.12201400370E+04  0.79556522453E+02 0.  0.
         25    2    1    2    0    0  0.24814528345E+02 -0.78420994367E+02  0.42764307209E+03  0.45308429076E+03  0.12506464028E+03 0.  0.
        -24    2    1    2    0    0 -0.25815001865E+02  0.27906278975E+02  0.88233173561E+03  0.88703460036E+03  0.82921142378E+02 0.  0.
        -11    1    3    3    0    0  0.43691579905E+01  0.42325727412E+02 -0.24933965807E+03  0.25294430578E+03  0.00000000000E+00 0.  1.
         12    1    3    3    0    0 -0.33686844712E+01  0.81889879795E+01 -0.96715519694E+03  0.96719573124E+03  0.00000000000E+00 0. -1.
         13    1    5    5    0    0  0.20494144141E+01  0.41731399790E+02  0.21757002599E+03  0.22154553942E+03  0.00000000000E+00 0. -1.
        -14    1    5    5    0    0 -0.27864416279E+02 -0.13825120815E+02  0.66476170962E+03  0.66548906094E+03  0.00000000000E+00 0.  1.
          5    1    4    4  501    0  0.31722533628E+02 -0.22237204855E+01  0.31630725448E+03  0.31792926212E+03  0.41800000000E+01 0.  1.
         -5    1    4    4    0  501 -0.69080052829E+01 -0.76197273881E+02  0.11133581761E+03  0.13515502864E+03  0.41800000000E+01 0.  1.
</event>
<event>
11    1  0.6930157E-009  0.1831330E+03  0.7561462E-02  0.1067136E+00
         22   -1    0    0    0    0  0.00000000000E+00  0.00000000000E+00  0.66320687015E+03  0.66320687015E+03  0.00000000000E+00 0.  1.
         22   -1    0    0    0    0 -0.00000000000E+00 -0.00000000000E+00 -0.59590552487E+03  0.59590552487E+03  0.00000000000E+00 0. -1.
         24    2    1    2    0    0  0.34849411395E+02 -0.11436534666E+02 -0.49691391182E+03  0.50524052807E+03  0.83661697632E+02 0.  0.
         25    2    1    2    0    0  0.87822518078E+02 -0.52487460229E+02 -0.40765345963E+01  0.16164602788E+03  0.12508034231E+03 0.  0.
        -24    2    1    2    0    0 -0.12267192947E+03  0.63923994895E+02  0.56829179169E+03  0.59222583906E+03  0.92958079500E+02 0.  0.
        -11    1    3    3    0    0 -0.11940957856E+02 -0.20491226943E+02 -0.45428683127E+02  0.51246874118E+02  0.00000000000E+00 0.  1.
         12    1    3    3    0    0  0.46790369251E+02  0.90546922767E+01 -0.45148522869E+03  0.45399365395E+03  0.00000000000E+00 0. -1.
         11    1    5    5    0    0 -0.92860255085E+01 -0.22822683640E+01  0.63660273923E+00  0.95835422302E+01  0.00000000000E+00 0. -1.
        -12    1    5    5    0    0 -0.11338590396E+03  0.66206263259E+02  0.56765518895E+03  0.58264229683E+03  0.00000000000E+00 0.  1.
          5    1    4    4  501    0 -0.26888102090E+02 -0.35178015049E+02  0.70507869028E+01  0.45029421191E+02  0.41800000000E+01 0.  1.
         -5    1    4    4    0  501  0.11471062017E+03 -0.17309445180E+02 -0.11127321499E+02  0.11661660669E+03  0.41800000000E+01 0.  1.
</event>
<event>
11    1  0.6930157E-009  0.1714530E+03  0.7561462E-02  0.1076774E+00
         22   -1    0    0    0    0  0.00000000000E+00  0.00000000000E+00  0.14778598379E+04  0.14778598379E+04  0.00000000000E+00 0. -1.
         22   -1    0    0    0    0 -0.00000000000E+00 -0.00000000000E+00 -0.32597466802E+03  0.32597466802E+03  0.00000000000E+00 0.  1.
         24    2    1    2    0    0 -0.52435441013E+02  0.10514176072E+03 -0.22285228099E+03  0.26541970399E+03  0.83547679794E+02 0.  0.
         25    2    1    2    0    0  0.14147649079E+03 -0.51302012783E+02  0.44699346910E+02  0.20073386161E+03  0.12509419498E+03 0.  0.
        -24    2    1    2    0    0 -0.89041049780E+02 -0.53839747942E+02  0.13300381039E+04  0.13376809403E+04  0.97785035071E+02 0.  0.
        -13    1    3    3    0    0 -0.67902563926E+02  0.44762083637E+02 -0.11500340723E+03  0.14085519513E+03  0.00000000000E+00 0.  1.
         14    1    3    3    0    0  0.15467122913E+02  0.60379677088E+02 -0.10784887376E+03  0.12456450886E+03  0.00000000000E+00 0. -1.
         13    1    5    5    0    0 -0.41453960323E+02  0.26641231879E+02  0.44955578353E+03  0.45224837044E+03  0.00000000000E+00 0. -1.
        -14    1    5    5    0    0 -0.47587089457E+02 -0.80480979821E+02  0.88048232041E+03  0.88543256985E+03  0.00000000000E+00 0.  1.
          5    1    4    4  501    0 -0.15612389797E+02  0.16741955423E+02 -0.16492358759E+01  0.23328784056E+02  0.41800000000E+01 0.  1.
         -5    1    4    4    0  501  0.15708888059E+03 -0.68043968205E+02  0.46348582786E+02  0.17740507755E+03  0.41800000000E+01 0.  1.
</event>
<event>
11    1  0.6930157E-009  0.1602090E+03  0.7561462E-02  0.1086881E+00
         22   -1    0    0    0    0  0.00000000000E+00  0.00000000000E+00  0.10814792553E+04  0.10814792553E+04  0.00000000000E+00 0.  1.
         22   -1    0    0    0    0 -0.00000000000E+00 -0.00000000000E+00 -0.16322059719E+04  0.16322059719E+04  0.00000000000E+00 0.  1.
         24    2    1    2    0    0  0.84078308724E+02  0.10383440796E+02 -0.15749570205E+04  0.15793405618E+04  0.81547629572E+02 0.  0.
         25    2    1    2    0    0 -0.96916901160E+01 -0.83596951743E+02  0.62275798250E+02  0.16312008255E+03  0.12508999594E+03 0.  0.
        -24    2    1    2    0    0 -0.74386618608E+02  0.73213510947E+02  0.96195450562E+03  0.97122458285E+03  0.83827991899E+02 0.  0.
        -11    1    3    3    0    0  0.76667167910E+02 -0.51326273759E+01 -0.15155087057E+04  0.15174553817E+04  0.00000000000E+00 0.  1.
         12    1    3    3    0    0  0.74111408142E+01  0.15516068172E+02 -0.59448314838E+02  0.61885180106E+02  0.00000000000E+00 0. -1.
         13    1    5    5    0    0 -0.61248430313E+02  0.84533838542E+01  0.60959702502E+03  0.61272454074E+03  0.00000000000E+00 0. -1.
        -14    1    5    5    0    0 -0.13138188295E+02  0.64760127092E+02  0.35235748061E+03  0.35850004211E+03  0.00000000000E+00 0.  1.
          5    1    4    4  501    0 -0.14224086369E+01 -0.54284625131E+02  0.10035427037E+03  0.11418097807E+03  0.41800000000E+01 0.  1.
         -5    1    4    4    0  501 -0.82692814792E+01 -0.29312326611E+02 -0.38078472121E+02  0.48939104473E+02  0.41800000000E+01 0.  1.
</event>
<event>
11    1  0.6930157E-009  0.1344058E+03  0.7561462E-02  0.1113971E+00
         22   -1    0    0    0    0  0.00000000000E+00  0.00000000000E+00  0.57439008972E+03  0.57439008972E+03  0.00000000000E+00 0.  1.
         22   -1    0    0    0    0 -0.00000000000E+00 -0.00000000000E+00 -0.13142430029E+03  0.13142430029E+03  0.00000000000E+00 0.  1.
        -24    2    1    2    0    0 -0.39126181229E+02  0.32944357443E+02 -0.72379927574E+02  0.12081110907E+03  0.82099216892E+02 0.  0.
         25    2    1    2    0    0 -0.24901501743E+01 -0.55037163070E+02  0.13057332607E+03  0.18902897829E+03  0.12508905222E+03 0.  0.
         24    2    1    2    0    0  0.41616331404E+02  0.22092805627E+02  0.38477239094E+03  0.39597430266E+03  0.80782698870E+02 0.  0.
        -11    1    5    5    0    0  0.99074462895E+00  0.11441928910E+02  0.31001226288E+03  0.31022492235E+03  0.00000000000E+00 0.  1.
         12    1    5    5    0    0  0.40625586775E+02  0.10650876716E+02  0.74760128063E+02  0.85749380310E+02  0.00000000000E+00 0. -1.
         11    1    3    3    0    0 -0.81527180297E+01 -0.88028611423E+01  0.14957106696E+02  0.19174780736E+02  0.00000000000E+00 0. -1.
        -12    1    3    3    0    0 -0.30973463200E+02  0.41747218586E+02 -0.87337034270E+02  0.10163632833E+03  0.00000000000E+00 0.  1.
          5    1    4    4  501    0  0.10238259551E+02 -0.72610113359E+02  0.19794904306E+02  0.76068134966E+02  0.41800000000E+01 0.  1.
         -5    1    4    4    0  501 -0.12728409725E+02  0.17572950289E+02  0.11077842176E+03  0.11296084332E+03  0.41800000000E+01 0.  1.
</event>
<event>
11    1  0.6930157E-009  0.1764538E+03  0.7561462E-02  0.1072548E+00
         22   -1    0    0    0    0  0.00000000000E+00  0.00000000000E+00  0.85951101479E+03  0.85951101479E+03  0.00000000000E+00 0. -1.
         22   -1    0    0    0    0 -0.00000000000E+00 -0.00000000000E+00 -0.53053453559E+03  0.53053453559E+03  0.00000000000E+00 0.  1.
        -24    2    1    2    0    0  0.10449410457E+03  0.66599219159E+02 -0.41197109826E+03  0.43801392549E+03  0.82350101629E+02 0.  0.
         25    2    1    2    0    0 -0.93619311243E+02 -0.90060446333E+02 -0.24393966593E+02  0.18198262931E+03  0.12508857795E+03 0.  0.
         24    2    1    2    0    0 -0.10874793331E+02  0.23461227174E+02  0.76534154405E+03  0.77004899558E+03  0.80988185819E+02 0.  0.
        -13    1    5    5    0    0  0.35091542870E+02  0.48506705674E+01  0.31978763222E+03  0.32174380353E+03  0.00000000000E+00 0.  1.
         14    1    5    5    0    0 -0.45966336200E+02  0.18610556606E+02  0.44555391182E+03  0.44830519205E+03  0.00000000000E+00 0. -1.
         11    1    3    3    0    0  0.73316325314E+01  0.27646887009E+02 -0.19527364858E+03  0.19735729282E+03  0.00000000000E+00 0. -1.
        -12    1    3    3    0    0  0.97162472042E+02  0.38952332151E+02 -0.21669744968E+03  0.24065663267E+03  0.00000000000E+00 0.  1.
          5    1    4    4  501    0  0.93889194605E+01  0.24233103471E+02 -0.14471244549E+01  0.26362125894E+02  0.41800000000E+01 0.  1.
         -5    1    4    4    0  501 -0.10300823070E+03 -0.11429354980E+03 -0.22946842138E+02  0.15562050342E+03  0.41800000000E+01 0.  1.
</event>
<event>
11    1  0.6930157E-009  0.1424937E+03  0.7561462E-02  0.1104805E+00
         22   -1    0    0    0    0  0.00000000000E+00  0.00000000000E+00  0.16053310030E+03  0.16053310030E+03  0.00000000000E+00 0. -1.
         22   -1    0    0    0    0 -0.00000000000E+00 -0.00000000000E+00 -0.15121167175E+04  0.15121167175E+04  0.00000000000E+00 0. -1.
         24    2    1    2    0    0  0.46794967549E+00  0.11692344704E+01 -0.13853688810E+04  0.13876817314E+04  0.80075371559E+02 0.  0.
         25    2    1    2    0    0  0.66882338499E+00 -0.69163375190E+02 -0.49596433047E+02  0.15130139988E+03  0.12509311589E+03 0.  0.
        -24    2    1    2    0    0 -0.11367730605E+01  0.67994140720E+02  0.83381696837E+02  0.13366668653E+03  0.79308135120E+02 0.  0.
        -13    1    3    3    0    0 -0.27329027873E+02 -0.22580978991E+02 -0.38049318191E+03  0.38214112296E+03  0.00000000000E+00 0.  1.
         14    1    3    3    0    0  0.27796977548E+02  0.23750213461E+02 -0.10048756991E+04  0.10055406084E+04  0.00000000000E+00 0. -1.
         11    1    5    5    0    0  0.14448575556E+02  0.11794038654E+02  0.71830789098E+02  0.74212687229E+02  0.00000000000E+00 0. -1.
        -12    1    5    5    0    0 -0.15585348617E+02  0.56200102066E+02  0.11550907739E+02  0.59453999304E+02  0.00000000000E+00 0.  1.
          5    1    4    4  501    0  0.36599722153E+02  0.30141689225E+01  0.22322921319E+02  0.43178815317E+02  0.41800000000E+01 0. -1.
         -5    1    4    4    0  501 -0.35930898768E+02 -0.72177544113E+02 -0.71919354367E+02  0.10812258456E+03  0.41800000000E+01 0. -1.
</event>
<event>
11    1  0.6930157E-009  0.1996563E+03  0.7561462E-02  0.1054767E+00
         22   -1    0    0    0    0  0.00000000000E+00  0.00000000000E+00  0.16154481587E+04  0.16154481587E+04  0.00000000000E+00 0. -1.
         22   -1    0    0    0    0 -0.00000000000E+00 -0.00000000000E+00 -0.64888204860E+03  0.64888204860E+03  0.00000000000E+00 0. -1.
         24    2    1    2    0    0  0.15780972617E+03 -0.50293536113E+02 -0.57170733767E+03  0.60048130107E+03  0.79342066626E+02 0.  0.
         25    2    1    2    0    0 -0.88148945617E+02  0.12594324085E+02  0.36483208614E+02  0.15782823333E+03  0.12509945289E+03 0.  0.
        -24    2    1    2    0    0 -0.69660780548E+02  0.37699212028E+02  0.15017902392E+04  0.15060206729E+04  0.80314941820E+02 0.  0.
        -13    1    3    3    0    0  0.16356986591E+02  0.19658000395E+02 -0.68927406467E+02  0.73518537473E+02  0.00000000000E+00 0.  1.
         14    1    3    3    0    0  0.14145273957E+03 -0.69951536508E+02 -0.50277993120E+03  0.52696276359E+03  0.00000000000E+00 0. -1.
         11    1    5    5    0    0 -0.75747506842E+02  0.24193407711E+02  0.14493078499E+04  0.14514875988E+04  0.00000000000E+00 0. -1.
        -12    1    5    5    0    0  0.60867262942E+01  0.13505804317E+02  0.52482389309E+02  0.54533074137E+02  0.00000000000E+00 0.  1.
          5    1    4    4  501    0 -0.11038859210E+03  0.57141528471E+01  0.58832222679E+02  0.12528765156E+03  0.41800000000E+01 0.  1.
         -5    1    4    4    0  501  0.22239646485E+02  0.68801712382E+01 -0.22349014065E+02  0.32540581766E+02  0.41800000000E+01 0.  1.
</event>
<event>
11    1  0.6930157E-009  0.1424432E+03  0.7561462E-02  0.1104860E+00
         22   -1    0    0    0    0  0.00000000000E+00  0.00000000000E+00  0.33898269817E+03  0.33898269817E+03  0.00000000000E+00 0. -1.
         22   -1    0    0    0    0 -0.00000000000E+00 -0.00000000000E+00 -0.11981858964E+04  0.11981858964E+04  0.00000000000E+00 0. -1.
         24    2    1    2    0    0  0.42620184807E+01 -0.54952098261E+01 -0.11376946199E+04  0.11405691112E+04  0.80625598651E+02 0.  0.
         25    2    1    2    0    0 -0.90078046747E+01 -0.63507869484E+02  0.57194850563E+02  0.15176597894E+03  0.12508905388E+03 0.  0.
        -24    2    1    2    0    0  0.47457861940E+01  0.69003079310E+02  0.22129657102E+03  0.24483350452E+03  0.78659552175E+02 0.  0.
        -13    1    3    3    0    0  0.31690869481E+00 -0.42937562246E+02 -0.55402154209E+03  0.55568300656E+03  0.00000000000E+00 0.  1.
         14    1    3    3    0    0  0.39451097859E+01  0.37442352420E+02 -0.58367307776E+03  0.58488610460E+03  0.00000000000E+00 0. -1.
         11    1    5    5    0    0 -0.32968354783E+02  0.34494786968E+02  0.14776903377E+03  0.15528196961E+03  0.00000000000E+00 0. -1.
        -12    1    5    5    0    0  0.37714140977E+02  0.34508292342E+02  0.73527537249E+02  0.89551534905E+02  0.00000000000E+00 0.  1.
          5    1    4    4  501    0  0.30820326519E+02 -0.20249257511E+02  0.80290772497E+02  0.88453408666E+02  0.41800000000E+01 0. -1.
         -5    1    4    4    0  501 -0.39828131194E+02 -0.43258611973E+02 -0.23095921934E+02  0.63312570270E+02  0.41800000000E+01 0. -1.
</event>
<event>
11    1  0.6930157E-009  0.1464794E+03  0.7561462E-02  0.1100531E+00
         22   -1    0    0    0    0  0.00000000000E+00  0.00000000000E+00  0.23108551313E+03  0.23108551313E+03  0.00000000000E+00 0.  1.
         22   -1    0    0    0    0 -0.00000000000E+00 -0.00000000000E+00 -0.25532724595E+04  0.25532724595E+04  0.00000000000E+00 0. -1.
        -24    2    1    2    0    0  0.37244781485E+02 -0.22141069964E+02 -0.22967154598E+04  0.22985611325E+04  0.81264850082E+02 0.  0.
         25    2    1    2    0    0 -0.11074062058E+03  0.29965808725E+02 -0.21079834128E+03  0.27063751631E+03  0.12508912747E+03 0.  0.
         24    2    1    2    0    0  0.73495839099E+02 -0.78247387615E+01  0.18532685474E+03  0.21515932379E+03  0.80527179418E+02 0.  0.
        -13    1    5    5    0    0  0.70940645899E+02  0.15978221680E+02  0.17418346540E+03  0.18875316799E+03  0.00000000000E+00 0.  1.
         14    1    5    5    0    0  0.25551931995E+01 -0.23802960441E+02  0.11143389339E+02  0.26406155798E+02  0.00000000000E+00 0. -1.
         13    1    3    3    0    0  0.36728621672E+02  0.60046810746E+01 -0.20342426148E+04  0.20345830197E+04  0.00000000000E+00 0. -1.
        -14    1    3    3    0    0  0.51615981377E+00 -0.28145751038E+02 -0.26247284500E+03  0.26397811288E+03  0.00000000000E+00 0.  1.
          5    1    4    4  501    0 -0.69123592176E+01  0.57157863838E+01 -0.14487236293E+03  0.14520993377E+03  0.41800000000E+01 0.  1.
         -5    1    4    4    0  501 -0.10382826137E+03  0.24250022341E+02 -0.65925978343E+02  0.12542758254E+03  0.41800000000E+01 0.  1.
</event>
<event>
11    1  0.6930157E-009  0.1308273E+03  0.7561462E-02  0.1118257E+00
         22   -1    0    0    0    0  0.00000000000E+00  0.00000000000E+00  0.15389595009E+03  0.15389595009E+03  0.00000000000E+00 0.  1.
         22   -1    0    0    0    0 -0.00000000000E+00 -0.00000000000E+00 -0.47714328337E+03  0.47714328337E+03  0.00000000000E+00 0.  1.
         24    2    1    2    0    0 -0.19643636735E+02 -0.38231709552E+02 -0.86409009429E+02  0.12508079672E+03  0.79568541006E+02 0.  0.
         25    2    1    2    0    0  0.20421993027E+02  0.29174413350E+02 -0.34732755051E+03  0.37088050891E+03  0.12509084842E+03 0.  0.
        -24    2    1    2    0    0 -0.77835629120E+00  0.90572962017E+01  0.11048922666E+03  0.13507792782E+03  0.77172125306E+02 0.  0.
        -13    1    3    3    0    0 -0.17494211259E-01 -0.47121415384E+01 -0.86108202719E+02  0.86237040530E+02  0.00000000000E+00 0.  1.
         14    1    3    3    0    0 -0.19626142524E+02 -0.33519568013E+02 -0.30080671050E+00  0.38843756189E+02  0.00000000000E+00 0. -1.
         11    1    5    5    0    0 -0.33374530856E+02  0.14848250888E+02  0.27481704876E+02  0.45711858059E+02  0.00000000000E+00 0. -1.
        -12    1    5    5    0    0  0.32596174565E+02 -0.57909546866E+01  0.83007521784E+02  0.89366069765E+02  0.00000000000E+00 0.  1.
          5    1    4    4  501    0  0.53917153655E+02 -0.95025101608E+00 -0.30211731772E+03  0.30692068764E+03  0.41800000000E+01 0.  1.
         -5    1    4    4    0  501 -0.33495160629E+02  0.30124664366E+02 -0.45210232783E+02  0.63959821271E+02  0.41800000000E+01 0.  1.
</event>
<event>
11    1  0.6930157E-009  0.1431887E+03  0.7561462E-02  0.1104049E+00
         22   -1    0    0    0    0  0.00000000000E+00  0.00000000000E+00  0.29774520343E+03  0.29774520343E+03  0.00000000000E+00 0.  1.
         22   -1    0    0    0    0 -0.00000000000E+00 -0.00000000000E+00 -0.71683645349E+03  0.71683645349E+03  0.00000000000E+00 0. -1.
        -24    2    1    2    0    0 -0.50853516653E+02 -0.76048333080E+02 -0.23879138266E+03  0.27864136792E+03  0.11068088527E+03 0.  0.
         25    2    1    2    0    0  0.53388795956E+02  0.29532406764E+02 -0.43913089700E+03  0.46065541329E+03  0.12507972864E+03 0.  0.
         24    2    1    2    0    0 -0.25352793029E+01  0.46515926316E+02  0.25883102960E+03  0.27528487571E+03  0.81351717051E+02 0.  0.
        -13    1    5    5    0    0 -0.40551762017E+02  0.34721450646E+02  0.16286504595E+03  0.17139150425E+03  0.00000000000E+00 0.  1.
         14    1    5    5    0    0  0.38016482715E+02  0.11794475670E+02  0.95965983652E+02  0.10389337146E+03  0.00000000000E+00 0. -1.
         13    1    3    3    0    0 -0.83526320962E+02 -0.69793781057E+02 -0.16461697758E+03  0.19734884716E+03  0.00000000000E+00 0. -1.
        -14    1    3    3    0    0  0.32672804310E+02 -0.62545520229E+01 -0.74174405081E+02  0.81292520760E+02  0.00000000000E+00 0.  1.
          5    1    4    4  501    0  0.24819789916E+01  0.41833082185E+02 -0.37675501238E+03  0.37910154146E+03  0.41800000000E+01 0. -1.
         -5    1    4    4    0  501  0.50906816964E+02 -0.12300675421E+02 -0.62375884618E+02  0.81553871834E+02  0.41800000000E+01 0. -1.
</event>
<event>
11    1  0.7370279E-009  0.1706210E+03  0.7561462E-02  0.1077493E+00
         22   -1    0    0    0    0  0.00000000000E+00  0.00000000000E+00  0.16320266310E+04  0.16320266310E+04  0.00000000000E+00 0. -1.
         22   -1    0    0    0    0 -0.00000000000E+00 -0.00000000000E+00 -0.14329389603E+03  0.14329389603E+03  0.00000000000E+00 0. -1.
        -24    2    1    2    0    0  0.41326749860E+02 -0.86138797364E+02 -0.90649015916E+02  0.15390003254E+03  0.79625267746E+02 0.  0.
         25    2    1    2    0    0 -0.33916530699E+02 -0.49219977113E+02  0.27843689416E+03  0.31104038927E+03  0.12508430167E+03 0.  0.
         24    2    1    2    0    0 -0.74102191614E+01  0.13535877448E+03  0.13009448567E+04  0.13103801052E+04  0.79130213844E+02 0.  0.
        -11    1    5    5    0    0 -0.22038140620E+02  0.40363187407E+02  0.19868888891E+03  0.20394151396E+03  0.00000000000E+00 0.  1.
         12    1    5    5    0    0  0.14627921458E+02  0.94995587070E+02  0.11022559678E+04  0.11064385913E+04  0.00000000000E+00 0. -1.
         13    1    3    3    0    0  0.24290438113E+02 -0.46071944588E+02 -0.96806982812E+02  0.10992834658E+03  0.00000000000E+00 0. -1.
        -14    1    3    3    0    0  0.17036311747E+02 -0.40066852777E+02  0.61579668951E+01  0.43971685954E+02  0.00000000000E+00 0.  1.
          5    1    4    4  501    0 -0.71220398418E+02 -0.79904261567E+01  0.93500098539E+02  0.11788101157E+03  0.41800000000E+01 0.  1.
         -5    1    4    4    0  501  0.37303867719E+02 -0.41229550956E+02  0.18493679562E+03  0.19315937770E+03  0.41800000000E+01 0.  1.
</event>
<event>
11    1  0.6930157E-009  0.1322632E+03  0.7561462E-02  0.1116519E+00
         22   -1    0    0    0    0  0.00000000000E+00  0.00000000000E+00  0.72375092411E+03  0.72375092411E+03  0.00000000000E+00 0.  1.
         22   -1    0    0    0    0 -0.00000000000E+00 -0.00000000000E+00 -0.60384455072E+02  0.60384455072E+02  0.00000000000E+00 0. -1.
         24    2    1    2    0    0  0.10994926374E+02 -0.31346020898E+02  0.68196781788E+02  0.10930084258E+03  0.78691878297E+02 0.  0.
         25    2    1    2    0    0 -0.19033175794E+02  0.54022717493E+02  0.93988360909E+02  0.16661940566E+03  0.12508996191E+03 0.  0.
        -24    2    1    2    0    0  0.80382494195E+01 -0.22676696595E+02  0.50118132634E+03  0.50821513094E+03  0.80753027311E+02 0.  0.
        -11    1    3    3    0    0 -0.13269740748E+01 -0.26698907518E+02  0.84335648668E+02  0.88470866160E+02  0.00000000000E+00 0.  1.
         12    1    3    3    0    0  0.12321900449E+02 -0.46471133796E+01 -0.16138866880E+02  0.20829976418E+02  0.00000000000E+00 0. -1.
         13    1    5    5    0    0  0.36735214801E+02 -0.28140619355E+02  0.18548930846E+03  0.19117440733E+03  0.00000000000E+00 0. -1.
        -14    1    5    5    0    0 -0.28696965381E+02  0.54639227596E+01  0.31569201788E+03  0.31704072361E+03  0.00000000000E+00 0.  1.
          5    1    4    4  501    0  0.81037013015E+01  0.32123256665E+02 -0.25538979342E+02  0.42039094417E+02  0.41800000000E+01 0.  1.
         -5    1    4    4    0  501 -0.27136877095E+02  0.21899460827E+02  0.11952734025E+03  0.12458031125E+03  0.41800000000E+01 0.  1.
</event>
<event>
11    1  0.6930157E-009  0.2356171E+03  0.7561462E-02  0.1031853E+00
         22   -1    0    0    0    0  0.00000000000E+00  0.00000000000E+00  0.10143424649E+04  0.10143424649E+04  0.00000000000E+00 0.  1.
         22   -1    0    0    0    0 -0.00000000000E+00 -0.00000000000E+00 -0.33836118837E+03  0.33836118837E+03  0.00000000000E+00 0. -1.
        -24    2    1    2    0    0 -0.87015352376E+02 -0.17892714065E+03 -0.27150299681E+03  0.34622114292E+03  0.81046957490E+02 0.  0.
         25    2    1    2    0    0  0.13172712518E+03  0.17270551217E+03  0.69189477901E+03  0.73589751399E+03  0.12509011328E+03 0.  0.
         24    2    1    2    0    0 -0.44711772808E+02  0.62216284822E+01  0.25558949436E+03  0.27058499639E+03  0.76500976158E+02 0.  0.
        -13    1    5    5    0    0 -0.25799078555E+02  0.30920113912E+02  0.21848669380E+03  0.22216678704E+03  0.00000000000E+00 0.  1.
         14    1    5    5    0    0 -0.18912694253E+02 -0.24698485430E+02  0.37102800568E+02  0.48418209347E+02  0.00000000000E+00 0. -1.
         13    1    3    3    0    0 -0.43434230193E+02 -0.14820182881E+03 -0.15865144001E+03  0.22140594805E+03  0.00000000000E+00 0. -1.
        -14    1    3    3    0    0 -0.43581122183E+02 -0.30725311841E+02 -0.11285155679E+03  0.12481519487E+03  0.00000000000E+00 0.  1.
          5    1    4    4  501    0  0.75290794299E+02  0.16413950991E+03  0.60855135524E+03  0.63479343631E+03  0.41800000000E+01 0. -1.
         -5    1    4    4    0  501  0.56436330885E+02  0.85660022579E+01  0.83343423766E+02  0.10110407768E+03  0.41800000000E+01 0. -1.
</event>
<event>
11    1  0.6930157E-009  0.1442782E+03  0.7561462E-02  0.1102873E+00
         22   -1    0    0    0    0  0.00000000000E+00  0.00000000000E+00  0.18691124219E+04  0.18691124219E+04  0.00000000000E+00 0. -1.
         22   -1    0    0    0    0 -0.00000000000E+00 -0.00000000000E+00 -0.17863865716E+03  0.17863865716E+03  0.00000000000E+00 0.  1.
         24    2    1    2    0    0 -0.13460495028E+02  0.23053075046E+02 -0.15137636909E+03  0.17482267617E+03  0.83279852229E+02 0.  0.
         25    2    1    2    0    0 -0.54867310011E+02 -0.47187706874E+02  0.37289781939E+03  0.39992198687E+03  0.12509080900E+03 0.  0.
        -24    2    1    2    0    0  0.68327805039E+02  0.24134631828E+02  0.14689523144E+04  0.14730064160E+04  0.81705753046E+02 0.  0.
        -13    1    3    3    0    0  0.25992681687E+01  0.38801636528E+02 -0.14680684839E+03  0.15187025359E+03  0.00000000000E+00 0.  1.
         14    1    3    3    0    0 -0.16059763196E+02 -0.15748561482E+02 -0.45695207056E+01  0.22952422577E+02  0.00000000000E+00 0. -1.
         11    1    5    5    0    0  0.51508484911E+02  0.37859246639E+02  0.13786568253E+04  0.13801380687E+04  0.00000000000E+00 0. -1.
        -12    1    5    5    0    0  0.16819320128E+02 -0.13724614811E+02  0.90295489104E+02  0.92868347319E+02  0.00000000000E+00 0.  1.
          5    1    4    4  501    0  0.38848380784E+02 -0.28304915972E+02  0.10861354746E+03  0.11884754962E+03  0.41800000000E+01 0. -1.
         -5    1    4    4    0  501 -0.93715690795E+02 -0.18882790902E+02  0.26428427192E+03  0.28107443726E+03  0.41800000000E+01 0. -1.
</event>
<event>
11    1  0.6930157E-009  0.1362114E+03  0.7561462E-02  0.1111864E+00
         22   -1    0    0    0    0  0.00000000000E+00  0.00000000000E+00  0.17455566235E+04  0.17455566235E+04  0.00000000000E+00 0. -1.
         22   -1    0    0    0    0 -0.00000000000E+00 -0.00000000000E+00 -0.59374951247E+02  0.59374951247E+02  0.00000000000E+00 0. -1.
         24    2    1    2    0    0 -0.12725127871E+02  0.43038988040E+02  0.42031390618E+02  0.10229623698E+03  0.81753280871E+02 0.  0.
         25    2    1    2    0    0  0.35873806665E+02 -0.70672427286E+02  0.16801430767E+03  0.22395711482E+03  0.12508580940E+03 0.  0.
        -24    2    1    2    0    0 -0.23148678793E+02  0.27633439246E+02  0.14761359740E+04  0.14786782229E+04  0.78818811729E+02 0.  0.
        -13    1    3    3    0    0 -0.19742755363E+02  0.38131779965E+02  0.64932653385E+02  0.77846377618E+02  0.00000000000E+00 0.  1.
         14    1    3    3    0    0  0.70176274916E+01  0.49072080749E+01 -0.22901262768E+02  0.24449859367E+02  0.00000000000E+00 0. -1.
         11    1    5    5    0    0 -0.47167150857E+02 -0.15317594794E+01  0.96135112042E+03  0.96250873405E+03  0.00000000000E+00 0. -1.
        -12    1    5    5    0    0  0.24018472064E+02  0.29165198726E+02  0.51478485354E+03  0.51616948888E+03  0.00000000000E+00 0.  1.
          5    1    4    4  501    0  0.80302167529E+02 -0.27787192621E+02  0.11059812668E+03  0.13953488528E+03  0.41800000000E+01 0.  1.
         -5    1    4    4    0  501 -0.44428360865E+02 -0.42885234665E+02  0.57416180991E+02  0.84422229543E+02  0.41800000000E+01 0.  1.
</event>
<event>
11    1  0.6930157E-009  0.1612769E+03  0.7561462E-02  0.1085882E+00
         22   -1    0    0    0    0  0.00000000000E+00  0.00000000000E+00  0.37524014772E+03  0.37524014772E+03  0.00000000000E+00 0. -1.
         22   -1    0    0    0    0 -0.00000000000E+00 -0.00000000000E+00 -0.61130086667E+03  0.61130086667E+03  0.00000000000E+00 0.  1.
        -24    2    1    2    0    0  0.21902307055E+02  0.10012172249E+03 -0.53844216038E+03  0.55380759192E+03  0.79238995628E+02 0.  0.
         25    2    1    2    0    0 -0.70867796015E+02 -0.76906526289E+02  0.62590573361E+02  0.17464833058E+03  0.12509037214E+03 0.  0.
         24    2    1    2    0    0  0.48965488960E+02 -0.23215196198E+02  0.23979086807E+03  0.25808509189E+03  0.78560103107E+02 0.  0.
        -11    1    5    5    0    0 -0.98308695442E+01 -0.20012940096E+02  0.18134044387E+02  0.28740343302E+02  0.00000000000E+00 0.  1.
         12    1    5    5    0    0  0.58796358504E+02 -0.32022561013E+01  0.22165682369E+03  0.22934474859E+03  0.00000000000E+00 0. -1.
         11    1    3    3    0    0  0.17676800768E+02  0.91001149809E+02 -0.27559763038E+03  0.29077092775E+03  0.00000000000E+00 0. -1.
        -12    1    3    3    0    0  0.42255062867E+01  0.91205726772E+01 -0.26284453000E+03  0.26303666417E+03  0.00000000000E+00 0.  1.
          5    1    4    4  501    0 -0.63798750842E+02 -0.10843412961E+03  0.31830270110E+02  0.12984174817E+03  0.41800000000E+01 0. -1.
         -5    1    4    4    0  501 -0.70690451727E+01  0.31527603322E+02  0.30760303251E+02  0.44806582407E+02  0.41800000000E+01 0. -1.
</event>
<event>
11    1  0.6930157E-009  0.1268369E+03  0.7561462E-02  0.1123218E+00
         22   -1    0    0    0    0  0.00000000000E+00  0.00000000000E+00  0.36547139397E+03  0.36547139397E+03  0.00000000000E+00 0.  1.
         22   -1    0    0    0    0 -0.00000000000E+00 -0.00000000000E+00 -0.72594975045E+03  0.72594975045E+03  0.00000000000E+00 0. -1.
        -24    2    1    2    0    0  0.19764702089E+02  0.71228196875E+01 -0.67301461065E+03  0.67802124068E+03  0.79515776178E+02 0.  0.
         25    2    1    2    0    0 -0.23231035449E+02 -0.14090579616E+02  0.48155105785E+02  0.13673730894E+03  0.12505979370E+03 0.  0.
         24    2    1    2    0    0  0.34663333594E+01  0.69677599280E+01  0.26438114838E+03  0.27666259480E+03  0.81143296680E+02 0.  0.
        -13    1    5    5    0    0 -0.30114141888E+02 -0.46732425120E+01  0.20652993570E+03  0.20876617321E+03  0.00000000000E+00 0.  1.
         14    1    5    5    0    0  0.33580475248E+02  0.11641002440E+02  0.57851212684E+02  0.67896421589E+02  0.00000000000E+00 0. -1.
         13    1    3    3    0    0  0.52388238517E+01 -0.23828865988E+02 -0.54418933166E+03  0.54473598084E+03  0.00000000000E+00 0. -1.
        -14    1    3    3    0    0  0.14525878238E+02  0.30951685676E+02 -0.12882527899E+03  0.13328525985E+03  0.00000000000E+00 0.  1.
          5    1    4    4  501    0  0.47946681241E+02 -0.15893327966E+02  0.40742451325E+02  0.65030007350E+02  0.41800000000E+01 0.  1.
         -5    1    4    4    0  501 -0.71177716690E+02  0.18027483505E+01  0.74126544602E+01  0.71707301588E+02  0.41800000000E+01 0.  1.
</event>
<event>
11    1  0.6930157E-009  0.1320442E+03  0.7561462E-02  0.1116782E+00
         22   -1    0    0    0    0  0.00000000000E+00  0.00000000000E+00  0.15520546918E+04  0.15520546918E+04  0.00000000000E+00 0. -1.
         22   -1    0    0    0    0 -0.00000000000E+00 -0.00000000000E+00 -0.22546740656E+03  0.22546740656E+03  0.00000000000E+00 0.  1.
         24    2    1    2    0    0 -0.33402670614E+02  0.25611987715E+02 -0.20557612441E+03  0.22491870172E+03  0.80963986669E+02 0.  0.
         25    2    1    2    0    0  0.53148380771E+02 -0.17191035976E+02  0.55218536849E+03  0.56892683570E+03  0.12509508829E+03 0.  0.
        -24    2    1    2    0    0 -0.19745710157E+02 -0.84209517394E+01  0.97997804113E+03  0.98367656091E+03  0.82473085847E+02 0.  0.
        -13    1    3    3    0    0  0.67493704136E+01 -0.52646513979E+01 -0.14794559162E+03  0.14819301143E+03  0.00000000000E+00 0.  1.
         14    1    3    3    0    0 -0.40152041027E+02  0.30876639113E+02 -0.57630532784E+02  0.76725690291E+02  0.00000000000E+00 0. -1.
         13    1    5    5    0    0  0.25606903665E+01  0.24207043359E+02  0.74500565507E+03  0.74540322253E+03  0.00000000000E+00 0. -1.
        -14    1    5    5    0    0 -0.22306400524E+02 -0.32627995098E+02  0.23497238607E+03  0.23827333838E+03  0.00000000000E+00 0.  1.
          5    1    4    4  501    0  0.13402354393E+00  0.85835032558E+01  0.45557750456E+03  0.45567754998E+03  0.41800000000E+01 0.  1.
         -5    1    4    4    0  501  0.53014357227E+02 -0.25774539231E+02  0.96607863925E+02  0.11324928572E+03  0.41800000000E+01 0.  1.
</event>
<event>
11    1  0.6930157E-009  0.1503005E+03  0.7561462E-02  0.1096572E+00
         22   -1    0    0    0    0  0.00000000000E+00  0.00000000000E+00  0.46414266824E+03  0.46414266824E+03  0.00000000000E+00 0.  1.
         22   -1    0    0    0    0 -0.00000000000E+00 -0.00000000000E+00 -0.36661872812E+03  0.36661872812E+03  0.00000000000E+00 0.  1.
         24    2    1    2    0    0 -0.59115985277E+02  0.57778710343E+02 -0.30824563923E+03  0.32878160631E+03  0.79049930172E+02 0.  0.
         25    2    1    2    0    0  0.79556710490E+02 -0.51047513433E+02  0.93574095185E+02  0.18257249193E+03  0.12506592145E+03 0.  0.
        -24    2    1    2    0    0 -0.20440725213E+02 -0.67311969092E+01  0.31219548416E+03  0.31940729812E+03  0.63967722330E+02 0.  0.
        -11    1    3    3    0    0 -0.68544432803E+02  0.69788598487E+02 -0.24708421718E+03  0.26574310551E+03  0.00000000000E+00 0.  1.
         12    1    3    3    0    0  0.94284475265E+01 -0.12009888144E+02 -0.61161422047E+02  0.63038500797E+02  0.00000000000E+00 0. -1.
         11    1    5    5    0    0 -0.30789429527E+02 -0.38784375742E+01  0.65512099674E+02  0.72490457663E+02  0.00000000000E+00 0. -1.
        -12    1    5    5    0    0  0.10348704314E+02 -0.28527593350E+01  0.24668338449E+03  0.24691684045E+03  0.00000000000E+00 0.  1.
          5    1    4    4  501    0  0.45603781632E+02 -0.63968733713E+02  0.11563935555E+03  0.13986292126E+03  0.41800000000E+01 0.  1.
         -5    1    4    4    0  501  0.33952928857E+02  0.12921220279E+02 -0.22065260367E+02  0.42709570667E+02  0.41800000000E+01 0.  1.
</event>
<event>
11    1  0.6930157E-009  0.1612716E+03  0.7561462E-02  0.1085887E+00
         22   -1    0    0    0    0  0.00000000000E+00  0.00000000000E+00  0.93835939147E+03  0.93835939147E+03  0.00000000000E+00 0.  1.
         22   -1    0    0    0    0 -0.00000000000E+00 -0.00000000000E+00 -0.25864467159E+03  0.25864467159E+03  0.00000000000E+00 0. -1.
         24    2    1    2    0    0  0.38402568247E+02 -0.94792876202E+02 -0.21876850847E+03  0.25488355954E+03  0.81520071159E+02 0.  0.
         25    2    1    2    0    0 -0.43987499928E+01  0.97734694582E+02  0.32633821283E+03  0.36292629352E+03  0.12508975116E+03 0.  0.
        -24    2    1    2    0    0 -0.34003818254E+02 -0.29418183795E+01  0.57214501551E+03  0.57919421000E+03  0.83373258132E+02 0.  0.
        -13    1    3    3    0    0 -0.56598330673E+01 -0.19538503540E+02 -0.10716732862E+01  0.20369961084E+02  0.00000000000E+00 0.  1.
         14    1    3    3    0    0  0.44062401314E+02 -0.75254372662E+02 -0.21769683518E+03  0.23451359846E+03  0.00000000000E+00 0. -1.
         13    1    5    5    0    0 -0.35295778457E+01 -0.23412176387E+01 -0.16827476160E+01  0.45575058244E+01  0.00000000000E+00 0. -1.
        -14    1    5    5    0    0 -0.30474240408E+02 -0.60060074079E+00  0.57382776313E+03  0.57463670418E+03  0.00000000000E+00 0.  1.
          5    1    4    4  501    0 -0.63002816531E+02  0.35396311276E+02  0.13196372081E+03  0.15051295544E+03  0.41800000000E+01 0.  1.
         -5    1    4    4    0  501  0.58604066538E+02  0.62338383306E+02  0.19437449202E+03  0.21241333808E+03  0.41800000000E+01 0.  1.
</event>
<event>
11    1  0.6930157E-009  0.1281229E+03  0.7561462E-02  0.1121597E+00
         22   -1    0    0    0    0  0.00000000000E+00  0.00000000000E+00  0.25811830643E+02  0.25811830643E+02  0.00000000000E+00 0.  1.
         22   -1    0    0    0    0 -0.00000000000E+00 -0.00000000000E+00 -0.20849390866E+04  0.20849390866E+04  0.00000000000E+00 0.  1.
         24    2    1    2    0    0  0.19315170610E+02 -0.55699165273E+01 -0.15495943451E+04  0.15518311380E+04  0.80827883654E+02 0.  0.
         25    2    1    2    0    0 -0.39791170189E+02 -0.75634307395E+01 -0.39683319300E+03  0.41804915382E+03  0.12509184320E+03 0.  0.
        -24    2    1    2    0    0  0.20475999579E+02  0.13133347267E+02 -0.11269971779E+03  0.14087062534E+03  0.80941678531E+02 0.  0.
        -11    1    3    3    0    0  0.43917771456E+02 -0.22945631605E+02 -0.11677050227E+04  0.11687558738E+04  0.00000000000E+00 0.  1.
         12    1    3    3    0    0 -0.24602600846E+02  0.17375715078E+02 -0.38188932247E+03  0.38307526422E+03  0.00000000000E+00 0. -1.
         11    1    5    5    0    0  0.53563897544E+01  0.44474472818E+02 -0.86153025981E+02  0.97103107723E+02  0.00000000000E+00 0. -1.
        -12    1    5    5    0    0  0.15119609825E+02 -0.31341125551E+02 -0.26546691809E+02  0.43767517614E+02  0.00000000000E+00 0.  1.
          5    1    4    4  501    0 -0.61689097425E+02  0.36496716455E+02 -0.30953806500E+03  0.31775594587E+03  0.41800000000E+01 0. -1.
         -5    1    4    4    0  501  0.21897927236E+02 -0.44060147195E+02 -0.87295127996E+02  0.10029320795E+03  0.41800000000E+01 0. -1.
</event>
<event>
11    1  0.6930157E-009  0.2834700E+03  0.7561462E-02  0.1007440E+00
         22   -1    0    0    0    0  0.00000000000E+00  0.00000000000E+00  0.30251109340E+03  0.30251109340E+03  0.00000000000E+00 0.  1.
         22   -1    0    0    0    0 -0.00000000000E+00 -0.00000000000E+00 -0.13488119975E+04  0.13488119975E+04  0.00000000000E+00 0. -1.
         24    2    1    2    0    0 -0.24941062266E+03 -0.10610132437E+02 -0.11538684500E+04  0.11833721593E+04  0.81480266383E+02 0.  0.
         25    2    1    2    0    0  0.32265557678E+03  0.46256430449E+00  0.70307151975E+02  0.35312584576E+03  0.12509169489E+03 0.  0.
        -24    2    1    2    0    0 -0.73244954122E+02  0.10147568132E+02  0.37260394019E+02  0.11482508579E+03  0.79552918995E+02 0.  0.
        -13    1    3    3    0    0 -0.44355994308E+02 -0.34440226575E+02 -0.24357631163E+03  0.24996600374E+03  0.00000000000E+00 0.  1.
         14    1    3    3    0    0 -0.20505462835E+03  0.23830094138E+02 -0.91029213842E+03  0.93340615557E+03  0.00000000000E+00 0. -1.
         13    1    5    5    0    0 -0.55419262244E+02  0.81843242485E+01 -0.16298849356E+02  0.58343211100E+02  0.00000000000E+00 0. -1.
        -14    1    5    5    0    0 -0.17825691878E+02  0.19632438838E+01  0.53559243375E+02  0.56481874689E+02  0.00000000000E+00 0.  1.
          5    1    4    4  501    0  0.63297540847E+02  0.46286792097E+02 -0.63675986326E+01  0.78784925666E+02  0.41800000000E+01 0.  1.
         -5    1    4    4    0  501  0.25935803593E+03 -0.45824227793E+02  0.76674750607E+02  0.27434092009E+03  0.41800000000E+01 0.  1.
</event>
<event>
11    1  0.6930157E-009  0.1514854E+03  0.7561462E-02  0.1095371E+00
         22   -1    0    0    0    0  0.00000000000E+00  0.00000000000E+00  0.40418977825E+03  0.40418977825E+03  0.00000000000E+00 0. -1.
         22   -1    0    0    0    0 -0.00000000000E+00 -0.00000000000E+00 -0.29603409430E+03  0.29603409430E+03  0.00000000000E+00 0.  1.
        -24    2    1    2    0    0 -0.23964777554E+01  0.88861025531E+02 -0.22530595093E+03  0.25436850089E+03  0.77708028926E+02 0.  0.
         25    2    1    2    0    0  0.50726003278E+02 -0.55951713497E+02  0.63746607433E+02  0.15942073611E+03  0.12509044524E+03 0.  0.
         24    2    1    2    0    0 -0.48329525522E+02 -0.32909312034E+02  0.26971502745E+03  0.28643463555E+03  0.76680105344E+02 0.  0.
        -11    1    5    5    0    0 -0.20549756852E+02 -0.39908043084E+02  0.60856205339E+02  0.75620249521E+02  0.00000000000E+00 0.  1.
         12    1    5    5    0    0 -0.27779768670E+02  0.69987310500E+01  0.20885882211E+03  0.21081438603E+03  0.00000000000E+00 0. -1.
         13    1    3    3    0    0  0.18413462957E+02  0.19058634050E+02 -0.13868080968E+03  0.14119013465E+03  0.00000000000E+00 0. -1.
        -14    1    3    3    0    0 -0.20809940713E+02  0.69802391481E+02 -0.86625141253E+02  0.11317836625E+03  0.00000000000E+00 0.  1.
          5    1    4    4  501    0  0.84334583935E+02 -0.81328600103E+01  0.52479827411E+02  0.99750038319E+02  0.41800000000E+01 0.  1.
         -5    1    4    4    0  501 -0.33608580657E+02 -0.47818853487E+02  0.11266780022E+02  0.59670697789E+02  0.41800000000E+01 0.  1.
</event>
<event>
11    1  0.6930157E-009  0.1908042E+03  0.7561462E-02  0.1061224E+00
         22   -1    0    0    0    0  0.00000000000E+00  0.00000000000E+00  0.58670838380E+03  0.58670838380E+03  0.00000000000E+00 0.  1.
         22   -1    0    0    0    0 -0.00000000000E+00 -0.00000000000E+00 -0.13436818332E+03  0.13436818332E+03  0.00000000000E+00 0. -1.
         24    2    1    2    0    0  0.82341175651E+02 -0.64210838483E+02 -0.34969576659E+00  0.13045645986E+03  0.78202715087E+02 0.  0.
         25    2    1    2    0    0 -0.52581394822E+02 -0.11493822750E+03  0.23074139180E+03  0.29131662834E+03  0.12509272096E+03 0.  0.
        -24    2    1    2    0    0 -0.29759780829E+02  0.17914906598E+03  0.22194850445E+03  0.29930347891E+03  0.85681978653E+02 0.  0.
        -13    1    3    3    0    0  0.39408149453E+02 -0.82405846617E+01  0.33350446652E+02  0.52279649682E+02  0.00000000000E+00 0.  1.
         14    1    3    3    0    0  0.42933026197E+02 -0.55970253821E+02 -0.33700142419E+02  0.78176810182E+02  0.00000000000E+00 0. -1.
         13    1    5    5    0    0  0.17381213226E+02  0.52510909200E+02  0.25598402929E+02  0.60948998275E+02  0.00000000000E+00 0. -1.
        -14    1    5    5    0    0 -0.47140994055E+02  0.12663815678E+03  0.19635010152E+03  0.23835448064E+03  0.00000000000E+00 0.  1.
          5    1    4    4  501    0  0.22913506089E+02 -0.79320632915E+02  0.63113482409E+02  0.10400757486E+03  0.41800000000E+01 0. -1.
         -5    1    4    4    0  501 -0.75494900910E+02 -0.35617594581E+02  0.16762790939E+03  0.18730905348E+03  0.41800000000E+01 0. -1.
</event>
<event>
11    1  0.6930157E-009  0.2276108E+03  0.7561462E-02  0.1036552E+00
         22   -1    0    0    0    0  0.00000000000E+00  0.00000000000E+00  0.43095417016E+04  0.43095417016E+04  0.00000000000E+00 0. -1.
         22   -1    0    0    0    0 -0.00000000000E+00 -0.00000000000E+00 -0.12841364335E+04  0.12841364335E+04  0.00000000000E+00 0.  1.
        -24    2    1    2    0    0 -0.18427694486E+03 -0.36573678942E+02 -0.11103155193E+04  0.11291823394E+04  0.83406095469E+02 0.  0.
         25    2    1    2    0    0  0.20528783191E+03  0.58189633713E+02 -0.70639550524E+02  0.25722782142E+03  0.12508828329E+03 0.  0.
         24    2    1    2    0    0 -0.21010887050E+02 -0.21615954770E+02  0.42063603379E+04  0.42072679744E+04  0.82023221022E+02 0.  0.
        -13    1    5    5    0    0 -0.17266265573E+02 -0.27802143300E+01  0.17700471678E+03  0.17786658843E+03  0.00000000000E+00 0.  1.
         14    1    5    5    0    0 -0.37446214777E+01 -0.18835740440E+02  0.40293556211E+04  0.40294013859E+04  0.00000000000E+00 0. -1.
         11    1    3    3    0    0 -0.47275534471E+02 -0.46040059687E+02 -0.28670468640E+03  0.29420102050E+03  0.00000000000E+00 0. -1.
        -12    1    3    3    0    0 -0.13700141038E+03  0.94663807443E+01 -0.82361083289E+03  0.83498131887E+03  0.00000000000E+00 0.  1.
          5    1    4    4  501    0  0.95425272358E+02 -0.17307400146E+02  0.15725990500E+02  0.98337723594E+02  0.41800000000E+01 0. -1.
         -5    1    4    4    0  501  0.10986255955E+03  0.75497033858E+02 -0.86365541024E+02  0.15889009783E+03  0.41800000000E+01 0. -1.
</event>
<event>
11    1  0.6930157E-009  0.1329206E+03  0.7561462E-02  0.1115732E+00
         22   -1    0    0    0    0  0.00000000000E+00  0.00000000000E+00  0.19012288818E+04  0.19012288818E+04  0.00000000000E+00 0.  1.
         22   -1    0    0    0    0 -0.00000000000E+00 -0.00000000000E+00 -0.54544485130E+03  0.54544485130E+03  0.00000000000E+00 0. -1.
        -24    2    1    2    0    0  0.33644813958E+02  0.11390637729E+02 -0.45228282342E+03  0.46073667250E+03  0.80354271162E+02 0.  0.
         25    2    1    2    0    0  0.98775240836E+01 -0.24442587282E+02 -0.40705270139E+02  0.13416161770E+03  0.12508962824E+03 0.  0.
         24    2    1    2    0    0 -0.43522338042E+02  0.13051949552E+02  0.18487721241E+04  0.18517754429E+04  0.95128213119E+02 0.  0.
        -13    1    5    5    0    0 -0.40612510215E+01  0.49141518679E+02  0.10944364115E+04  0.10955466405E+04  0.00000000000E+00 0.  1.
         14    1    5    5    0    0 -0.39461087020E+02 -0.36089569127E+02  0.75433571256E+03  0.75622880243E+03  0.00000000000E+00 0. -1.
         13    1    3    3    0    0 -0.19277771381E+02  0.28199041953E+01 -0.27081812552E+03  0.27151803152E+03  0.00000000000E+00 0. -1.
        -14    1    3    3    0    0  0.52922585339E+02  0.85707335340E+01 -0.18146469790E+03  0.18921864098E+03  0.00000000000E+00 0.  1.
          5    1    4    4  501    0 -0.54860570651E+02 -0.20903513142E+02 -0.36063347709E+02  0.69026636321E+02  0.41800000000E+01 0. -1.
         -5    1    4    4    0  501  0.64738094734E+02 -0.35390741394E+01 -0.46419224303E+01  0.65134981381E+02  0.41800000000E+01 0. -1.
</event>
<event>
11    1  0.6930157E-009  0.2129133E+03  0.7561462E-02  0.1045750E+00
         22   -1    0    0    0    0  0.00000000000E+00  0.00000000000E+00  0.47609766470E+03  0.47609766470E+03  0.00000000000E+00 0. -1.
         22   -1    0    0    0    0 -0.00000000000E+00 -0.00000000000E+00 -0.19712988205E+04  0.19712988205E+04  0.00000000000E+00 0. -1.
        -24    2    1    2    0    0  0.14492720097E+03  0.10442284939E+03 -0.12570797470E+04  0.12723627730E+04  0.82155406148E+02 0.  0.
         25    2    1    2    0    0 -0.98151418131E+02 -0.13258482832E+03 -0.68682700030E+03  0.71735421856E+03  0.12511318458E+03 0.  0.
         24    2    1    2    0    0 -0.46775782844E+02  0.28161978933E+02  0.44870559150E+03  0.45767949363E+03  0.71782589315E+02 0.  0.
        -11    1    5    5    0    0  0.55579771949E+01 -0.89095945102E+01  0.10658574477E+02  0.14962526348E+02  0.00000000000E+00 0.  1.
         12    1    5    5    0    0 -0.52333760039E+02  0.37071573443E+02  0.43804701702E+03  0.44271696728E+03  0.00000000000E+00 0. -1.
         11    1    3    3    0    0  0.12556421210E+03  0.82582694829E+02 -0.77726010772E+03  0.79165620562E+03  0.00000000000E+00 0. -1.
        -12    1    3    3    0    0  0.19362988877E+02  0.21840154560E+02 -0.47981963927E+03  0.48070656738E+03  0.00000000000E+00 0.  1.
          5    1    4    4  501    0 -0.65567759334E+02 -0.29286061580E+02 -0.11726706770E+03  0.13757122532E+03  0.41800000000E+01 0. -1.
         -5    1    4    4    0  501 -0.32583658796E+02 -0.10329876674E+03 -0.56955993260E+03  0.57978299324E+03  0.41800000000E+01 0. -1.
</event>
<event>
11    1  0.6930157E-009  0.1424400E+03  0.7561462E-02  0.1104864E+00
         22   -1    0    0    0    0  0.00000000000E+00  0.00000000000E+00  0.17183227064E+04  0.17183227064E+04  0.00000000000E+00 0. -1.
         22   -1    0    0    0    0 -0.00000000000E+00 -0.00000000000E+00 -0.35713271105E+03  0.35713271105E+03  0.00000000000E+00 0.  1.
         24    2    1    2    0    0 -0.15079081848E+02 -0.30412161875E+02 -0.24150898221E+03  0.25086745992E+03  0.58784484839E+02 0.  0.
         25    2    1    2    0    0 -0.18526949427E+02  0.89342063704E+02 -0.54428130097E+02  0.16412117958E+03  0.12509231806E+03 0.  0.
        -24    2    1    2    0    0  0.33606031275E+02 -0.58929901829E+02  0.16571271077E+04  0.16604667780E+04  0.80483359006E+02 0.  0.
        -13    1    3    3    0    0  0.12990563893E+02 -0.36838166761E+02 -0.13570577149E+03  0.14121565670E+03  0.00000000000E+00 0.  1.
         14    1    3    3    0    0 -0.28069645741E+02  0.64260048853E+01 -0.10580321072E+03  0.10965180322E+03  0.00000000000E+00 0. -1.
         11    1    5    5    0    0  0.29011632306E+02 -0.42223697950E+01  0.11505511682E+04  0.11509246256E+04  0.00000000000E+00 0. -1.
        -12    1    5    5    0    0  0.45943989687E+01 -0.54707532034E+02  0.50657593950E+03  0.50954215237E+03  0.00000000000E+00 0.  1.
          5    1    4    4  501    0  0.42975620718E+02  0.59227280695E+02  0.48450735988E+01  0.73455577683E+02  0.41800000000E+01 0. -1.
         -5    1    4    4    0  501 -0.61502570145E+02  0.30114783009E+02 -0.59273203695E+02  0.90665601892E+02  0.41800000000E+01 0. -1.
</event>
<event>
11    1  0.6930157E-009  0.1713899E+03  0.7561462E-02  0.1076828E+00
         22   -1    0    0    0    0  0.00000000000E+00  0.00000000000E+00  0.12396010940E+04  0.12396010940E+04  0.00000000000E+00 0. -1.
         22   -1    0    0    0    0 -0.00000000000E+00 -0.00000000000E+00 -0.90869659017E+03  0.90869659017E+03  0.00000000000E+00 0.  1.
         24    2    1    2    0    0  0.17576599937E+02 -0.53720304984E+01 -0.85082787824E+03  0.85477583559E+03  0.79974090472E+02 0.  0.
         25    2    1    2    0    0 -0.11291231420E+03 -0.61080886630E+02  0.10547568333E+03  0.20797416590E+03  0.12509223996E+03 0.  0.
        -24    2    1    2    0    0  0.95335714261E+02  0.66452917129E+02  0.10762566987E+04  0.10855476826E+04  0.81119672166E+02 0.  0.
        -13    1    3    3    0    0  0.40310479423E+02  0.78642045098E+01 -0.72823743709E+03  0.72939464301E+03  0.00000000000E+00 0.  1.
         14    1    3    3    0    0 -0.22733879486E+02 -0.13236235008E+02 -0.12259044114E+03  0.12538119258E+03  0.00000000000E+00 0. -1.
         11    1    5    5    0    0  0.10088048004E+03  0.65770773383E+02  0.10713950123E+04  0.10781418915E+04  0.00000000000E+00 0. -1.
        -12    1    5    5    0    0 -0.55447657802E+01  0.68214374533E+00  0.48616864143E+01  0.74057911419E+01  0.00000000000E+00 0.  1.
          5    1    4    4  501    0 -0.87665611551E+02  0.10746115699E+02  0.15051397234E+02  0.89692560504E+02  0.41800000000E+01 0.  1.
         -5    1    4    4    0  501 -0.25246702647E+02 -0.71827002329E+02  0.90424286097E+02  0.11828160539E+03  0.41800000000E+01 0.  1.
</event>
<event>
11    1  0.6930157E-009  0.1450959E+03  0.7561462E-02  0.1101998E+00
         22   -1    0    0    0    0  0.00000000000E+00  0.00000000000E+00  0.67626728010E+03  0.67626728010E+03  0.00000000000E+00 0.  1.
         22   -1    0    0    0    0 -0.00000000000E+00 -0.00000000000E+00 -0.10443525907E+04  0.10443525907E+04  0.00000000000E+00 0. -1.
         24    2    1    2    0    0  0.71008719085E+02 -0.17385480570E+02 -0.99869019185E+03  0.10045110332E+04  0.79472155480E+02 0.  0.
         25    2    1    2    0    0 -0.97288094237E+02  0.86828185213E+01  0.12221480816E+03  0.20031005604E+03  0.12508914660E+03 0.  0.
        -24    2    1    2    0    0  0.26279375152E+02  0.87026620487E+01  0.50839007314E+03  0.51579878147E+03  0.82592824206E+02 0.  0.
        -13    1    3    3    0    0 -0.12382355992E+02 -0.96939542521E+01 -0.57792502375E+02  0.59893812867E+02  0.00000000000E+00 0.  1.
         14    1    3    3    0    0  0.83391075077E+02 -0.76915263179E+01 -0.94089768948E+03  0.94461722038E+03  0.00000000000E+00 0. -1.
         11    1    5    5    0    0  0.19011514621E+02  0.27781616097E+02  0.78369399954E+02  0.85293720345E+02  0.00000000000E+00 0. -1.
        -12    1    5    5    0    0  0.72678605311E+01 -0.19078954048E+02  0.43002067319E+03  0.43050506112E+03  0.00000000000E+00 0.  1.
          5    1    4    4  501    0  0.52229545283E+00  0.45286945192E+02  0.69989396367E+02  0.83469564521E+02  0.41800000000E+01 0. -1.
         -5    1    4    4    0  501 -0.97810389690E+02 -0.36604126671E+02  0.52225411791E+02  0.11684049151E+03  0.41800000000E+01 0. -1.
</event>
<event>
11    1  0.6930157E-009  0.1270306E+03  0.7561462E-02  0.1122972E+00
         22   -1    0    0    0    0  0.00000000000E+00  0.00000000000E+00  0.17496532536E+03  0.17496532536E+03  0.00000000000E+00 0. -1.
         22   -1    0    0    0    0 -0.00000000000E+00 -0.00000000000E+00 -0.83349573512E+03  0.83349573512E+03  0.00000000000E+00 0. -1.
         24    2    1    2    0    0 -0.13950307520E+02 -0.17515689849E+02 -0.59942545882E+03  0.60539165259E+03  0.81772623025E+02 0.  0.
         25    2    1    2    0    0  0.28420341134E+02  0.17038945001E+01 -0.20121981287E+03  0.23863647124E+03  0.12508930117E+03 0.  0.
        -24    2    1    2    0    0 -0.14470033614E+02  0.15811795349E+02  0.14211486193E+03  0.16443293666E+03  0.79888434278E+02 0.  0.
        -11    1    3    3    0    0 -0.82099719096E+01  0.32936574769E+02 -0.25149341396E+03  0.25377383408E+03  0.00000000000E+00 0.  1.
         12    1    3    3    0    0 -0.57403356103E+01 -0.50452264618E+02 -0.34793204486E+03  0.35161781851E+03  0.00000000000E+00 0. -1.
         11    1    5    5    0    0 -0.19697197987E+02 -0.19328187058E+02  0.11874356163E+03  0.12190812874E+03  0.00000000000E+00 0. -1.
        -12    1    5    5    0    0  0.52271643735E+01  0.35139982406E+02  0.23371300299E+02  0.42524807919E+02  0.00000000000E+00 0.  1.
          5    1    4    4  501    0 -0.19483091162E+02 -0.50975582982E+02 -0.65852593066E+02  0.85627900331E+02  0.41800000000E+01 0. -1.
         -5    1    4    4    0  501  0.47903432295E+02  0.52679477482E+02 -0.13536721980E+03  0.15300857090E+03  0.41800000000E+01 0. -1.
</event>
<event>
11    1  0.6930157E-009  0.1627709E+03  0.7561462E-02  0.1084500E+00
         22   -1    0    0    0    0  0.00000000000E+00  0.00000000000E+00  0.12086359965E+04  0.12086359965E+04  0.00000000000E+00 0. -1.
         22   -1    0    0    0    0 -0.00000000000E+00 -0.00000000000E+00 -0.82257160875E+03  0.82257160875E+03  0.00000000000E+00 0.  1.
        -24    2    1    2    0    0 -0.40667246889E+02 -0.94656560195E+02 -0.74789909273E+03  0.75928675503E+03  0.80929809656E+02 0.  0.
         25    2    1    2    0    0  0.51956415567E+02  0.11677798085E+03  0.51291652014E+02  0.18604573563E+03  0.12508243782E+03 0.  0.
         24    2    1    2    0    0 -0.11289168677E+02 -0.22121420657E+02  0.10826718285E+04  0.10858751146E+04  0.79559246880E+02 0.  0.
        -13    1    5    5    0    0 -0.95613601158E+00  0.21077827170E+02  0.10008668881E+03  0.10228653025E+03  0.00000000000E+00 0.  1.
         14    1    5    5    0    0 -0.10333032666E+02 -0.43199247827E+02  0.98258513969E+03  0.98358858438E+03  0.00000000000E+00 0. -1.
         11    1    3    3    0    0  0.15871396212E+02 -0.26560299826E+01 -0.38679104099E+02  0.41893063947E+02  0.00000000000E+00 0. -1.
        -12    1    3    3    0    0 -0.56538643101E+02 -0.92000530212E+02 -0.70921998863E+03  0.71739369108E+03  0.00000000000E+00 0.  1.
          5    1    4    4  501    0  0.68582234718E+02  0.11684791820E+03  0.38558440680E+01  0.13560714893E+03  0.41800000000E+01 0. -1.
         -5    1    4    4    0  501 -0.16625819151E+02 -0.69937347540E-01  0.47435807946E+02  0.50438586708E+02  0.41800000000E+01 0. -1.
</event>
<event>
11    1  0.6930157E-009  0.1846711E+03  0.7561462E-02  0.1065926E+00
         22   -1    0    0    0    0  0.00000000000E+00  0.00000000000E+00  0.24071882284E+03  0.24071882284E+03  0.00000000000E+00 0. -1.
         22   -1    0    0    0    0 -0.00000000000E+00 -0.00000000000E+00 -0.91633198589E+03  0.91633198589E+03  0.00000000000E+00 0.  1.
         24    2    1    2    0    0  0.11176653942E+03  0.25363387729E+02 -0.41267794833E+03  0.43578705865E+03  0.80450050802E+02 0.  0.
         25    2    1    2    0    0 -0.19250415738E+03  0.20357196551E+02 -0.44530582131E+03  0.50141513436E+03  0.12509035301E+03 0.  0.
        -24    2    1    2    0    0  0.80737617955E+02 -0.45720584280E+02  0.18237060660E+03  0.21984861572E+03  0.80407965428E+02 0.  0.
        -13    1    3    3    0    0  0.64720068318E+02 -0.20019309765E+02 -0.27727549477E+03  0.28543153295E+03  0.00000000000E+00 0.  1.
         14    1    3    3    0    0  0.47046471103E+02  0.45382697494E+02 -0.13540245357E+03  0.15035552570E+03  0.00000000000E+00 0. -1.
         11    1    5    5    0    0  0.50044569445E+02 -0.68009783163E+02  0.13388860085E+03  0.15829070400E+03  0.00000000000E+00 0. -1.
        -12    1    5    5    0    0  0.30693048510E+02  0.22289198883E+02  0.48482005748E+02  0.61557911717E+02  0.00000000000E+00 0.  1.
          5    1    4    4  501    0 -0.85393652939E+02 -0.47322321607E+02 -0.25164399331E+03  0.26995119902E+03  0.41800000000E+01 0.  1.
         -5    1    4    4    0  501 -0.10711050444E+03  0.67679518158E+02 -0.19366182800E+03  0.23146393534E+03  0.41800000000E+01 0.  1.
</event>
<event>
11    1  0.6930157E-009  0.1779319E+03  0.7561462E-02  0.1071328E+00
         22   -1    0    0    0    0  0.00000000000E+00  0.00000000000E+00  0.16689156510E+04  0.16689156510E+04  0.00000000000E+00 0. -1.
         22   -1    0    0    0    0 -0.00000000000E+00 -0.00000000000E+00 -0.34559238816E+04  0.34559238816E+04  0.00000000000E+00 0.  1.
        -24    2    1    2    0    0  0.21812196700E+02  0.32091021550E+02 -0.33744643964E+04  0.33758085660E+04  0.86993712557E+02 0.  0.
         25    2    1    2    0    0  0.10335277592E+03 -0.55029125926E+02  0.18124238727E+02  0.17229457597E+03  0.12508769679E+03 0.  0.
         24    2    1    2    0    0 -0.12516497262E+03  0.22938104376E+02  0.15693319271E+04  0.15767363906E+04  0.84276457756E+02 0.  0.
        -13    1    5    5    0    0 -0.14924562542E+02  0.16175455064E+02  0.70931302170E+03  0.70965438818E+03  0.00000000000E+00 0.  1.
         14    1    5    5    0    0 -0.11024041008E+03  0.67626493121E+01  0.86001890535E+03  0.86708200247E+03  0.00000000000E+00 0. -1.
         11    1    3    3    0    0  0.66078019654E+00 -0.72754822370E+01 -0.24986602508E+02  0.26032663658E+02  0.00000000000E+00 0. -1.
        -12    1    3    3    0    0  0.21151416503E+02  0.39366503787E+02 -0.33494777939E+04  0.33497759023E+04  0.00000000000E+00 0.  1.
          5    1    4    4  501    0  0.31647878924E+01 -0.48148387543E+02 -0.33899628916E+02  0.59118020485E+02  0.41800000000E+01 0. -1.
         -5    1    4    4    0  501  0.10018798803E+03 -0.68807383827E+01  0.52023867643E+02  0.11317655548E+03  0.41800000000E+01 0. -1.
</event>
<event>
11    1  0.6930157E-009  0.1603701E+03  0.7561462E-02  0.1086730E+00
         22   -1    0    0    0    0  0.00000000000E+00  0.00000000000E+00  0.77677059074E+03  0.77677059074E+03  0.00000000000E+00 0.  1.
         22   -1    0    0    0    0 -0.00000000000E+00 -0.00000000000E+00 -0.96686761681E+02  0.96686761681E+02  0.00000000000E+00 0. -1.
         24    2    1    2    0    0 -0.88936759929E+02  0.28020805160E+02 -0.77924156234E+01  0.12264161429E+03  0.79280079636E+02 0.  0.
         25    2    1    2    0    0  0.14965724680E+03 -0.28644899563E+02  0.39005112572E+03  0.43704163232E+03  0.12509071076E+03 0.  0.
        -24    2    1    2    0    0 -0.60720486869E+02  0.62409440270E+00  0.29782511896E+03  0.31377410580E+03  0.77891084015E+02 0.  0.
        -13    1    3    3    0    0 -0.15007660269E+02 -0.18329872644E+02  0.20064594779E+02  0.31045161645E+02  0.00000000000E+00 0.  1.
         14    1    3    3    0    0 -0.73929099660E+02  0.46350677804E+02 -0.27857010403E+02  0.91596452649E+02  0.00000000000E+00 0. -1.
         11    1    5    5    0    0 -0.48278631900E+02 -0.64786145119E+01  0.68784480480E+02  0.84285844002E+02  0.00000000000E+00 0. -1.
        -12    1    5    5    0    0 -0.12441854969E+02  0.71027089146E+01  0.22904063848E+03  0.22948826180E+03  0.00000000000E+00 0.  1.
          5    1    4    4  501    0  0.65993512608E+01 -0.67508545806E+01  0.18901077703E+03  0.18929255588E+03  0.41800000000E+01 0.  1.
         -5    1    4    4    0  501  0.14305789554E+03 -0.21894044982E+02  0.20104034869E+03  0.24774907645E+03  0.41800000000E+01 0.  1.
</event>
<event>
11    1  0.6930157E-009  0.1308772E+03  0.7561462E-02  0.1118196E+00
         22   -1    0    0    0    0  0.00000000000E+00  0.00000000000E+00  0.44198440731E+02  0.44198440731E+02  0.00000000000E+00 0.  1.
         22   -1    0    0    0    0 -0.00000000000E+00 -0.00000000000E+00 -0.11397978892E+04  0.11397978892E+04  0.00000000000E+00 0. -1.
         24    2    1    2    0    0  0.33484534104E+02 -0.10913731336E+02 -0.64393287308E+03  0.64991580182E+03  0.80626799961E+02 0.  0.
         25    2    1    2    0    0 -0.41051479087E+02  0.31675225180E+02 -0.43461260872E+03  0.45521913094E+03  0.12509114153E+03 0.  0.
        -24    2    1    2    0    0  0.75669449827E+01 -0.20761493845E+02 -0.17053966645E+02  0.78861397142E+02  0.73756246501E+02 0.  0.
        -11    1    3    3    0    0  0.10489192588E+02 -0.14737405213E+02 -0.26745318757E+02  0.32288176613E+02  0.00000000000E+00 0.  1.
         12    1    3    3    0    0  0.22995341516E+02  0.38236738772E+01 -0.61718755432E+03  0.61762762521E+03  0.00000000000E+00 0. -1.
         11    1    5    5    0    0  0.26216980593E+02  0.62258778541E+01 -0.32820176040E+02  0.42464756938E+02  0.00000000000E+00 0. -1.
        -12    1    5    5    0    0 -0.18650035611E+02 -0.26987371699E+02  0.15766209395E+02  0.36396640204E+02  0.00000000000E+00 0.  1.
          5    1    4    4  501    0  0.61321770267E+01  0.20901976395E+01 -0.36889756717E+03  0.36897812941E+03  0.41800000000E+01 0. -1.
         -5    1    4    4    0  501 -0.47183656113E+02  0.29585027541E+02 -0.65715041557E+02  0.86241001535E+02  0.41800000000E+01 0. -1.
</event>
<event>
11    1  0.6930157E-009  0.1474430E+03  0.7561462E-02  0.1099521E+00
         22   -1    0    0    0    0  0.00000000000E+00  0.00000000000E+00  0.35649653046E+04  0.35649653046E+04  0.00000000000E+00 0. -1.
         22   -1    0    0    0    0 -0.00000000000E+00 -0.00000000000E+00 -0.40331239463E+03  0.40331239463E+03  0.00000000000E+00 0.  1.
        -24    2    1    2    0    0  0.41585945184E+02  0.31843354518E+00 -0.38280342066E+03  0.39344975668E+03  0.80837861945E+02 0.  0.
         25    2    1    2    0    0 -0.11211084502E+03 -0.25425522939E+02  0.50325736825E+03  0.53115775609E+03  0.12508111116E+03 0.  0.
         24    2    1    2    0    0  0.70524899833E+02  0.25107089393E+02  0.30411989623E+04  0.30436701864E+04  0.97123363280E+02 0.  0.
        -13    1    5    5    0    0  0.12468820976E+02  0.18812801953E+02  0.13419324930E+03  0.13607799665E+03  0.00000000000E+00 0.  1.
         14    1    5    5    0    0  0.58056078857E+02  0.62942874405E+01  0.29070057130E+04  0.29075921898E+04  0.00000000000E+00 0. -1.
         13    1    3    3    0    0  0.91130534271E+01 -0.34892425436E+02 -0.93607054981E+02  0.10031355760E+03  0.00000000000E+00 0. -1.
        -14    1    3    3    0    0  0.32472891757E+02  0.35210858982E+02 -0.28919636568E+03  0.29313619908E+03  0.00000000000E+00 0.  1.
          5    1    4    4  501    0 -0.69547501239E+02 -0.69785326614E+02  0.38943902745E+03  0.40173010249E+03  0.41800000000E+01 0.  1.
         -5    1    4    4    0  501 -0.42563343778E+02  0.44359803675E+02  0.11381834080E+03  0.12942765361E+03  0.41800000000E+01 0.  1.
</event>
<event>
11    1  0.6930157E-009  0.1609977E+03  0.7561462E-02  0.1086143E+00
         22   -1    0    0    0    0  0.00000000000E+00  0.00000000000E+00  0.14653797126E+03  0.14653797126E+03  0.00000000000E+00 0.  1.
         22   -1    0    0    0    0 -0.00000000000E+00 -0.00000000000E+00 -0.23380266363E+04  0.23380266363E+04  0.00000000000E+00 0.  1.
        -24    2    1    2    0    0 -0.11111107554E+03 -0.15098416765E+02 -0.20750925350E+04  0.20795452876E+04  0.76980134411E+02 0.  0.
         25    2    1    2    0    0  0.22983410434E+02  0.85375747241E+02 -0.19307051730E+03  0.24645613192E+03  0.12508854839E+03 0.  0.
         24    2    1    2    0    0  0.88127665104E+02 -0.70277330476E+02  0.76674387203E+02  0.15856318808E+03  0.80981074498E+02 0.  0.
        -11    1    5    5    0    0  0.80342577101E+02 -0.21923051519E+02  0.70662217134E+02  0.10921858273E+03  0.00000000000E+00 0.  1.
         12    1    5    5    0    0  0.77850880025E+01 -0.48354278957E+02  0.60121700697E+01  0.49344605355E+02  0.00000000000E+00 0. -1.
         13    1    3    3    0    0 -0.26949742224E+02 -0.16570825006E+02 -0.19335952688E+03  0.19593056801E+03  0.00000000000E+00 0. -1.
        -14    1    3    3    0    0 -0.84161333315E+02  0.14724082405E+01 -0.18817330081E+04  0.18836147196E+04  0.00000000000E+00 0.  1.
          5    1    4    4  501    0  0.50068826560E+02 -0.11782726544E+01 -0.11937059282E+03  0.12951867259E+03  0.41800000000E+01 0. -1.
         -5    1    4    4    0  501 -0.27085416125E+02  0.86554019896E+02 -0.73699924485E+02  0.11693745934E+03  0.41800000000E+01 0. -1.
</event>
<event>
11    1  0.6930157E-009  0.2104526E+03  0.7561462E-02  0.1047369E+00
         22   -1    0    0    0    0  0.00000000000E+00  0.00000000000E+00  0.10961049482E+04  0.10961049482E+04  0.00000000000E+00 0. -1.
         22   -1    0    0    0    0 -0.00000000000E+00 -0.00000000000E+00 -0.11633659388E+03  0.11633659388E+03  0.00000000000E+00 0.  1.
         24    2    1    2    0    0 -0.17596013589E+02  0.40358600877E+02 -0.23476366639E+02  0.93886343294E+02  0.79530304335E+02 0.  0.
         25    2    1    2    0    0  0.18279287823E+03 -0.49055466851E+02  0.22714247027E+03  0.32103062635E+03  0.12508911263E+03 0.  0.
        -24    2    1    2    0    0 -0.16519686464E+03  0.86968659736E+01  0.77610225069E+03  0.79752457243E+03  0.79656139371E+02 0.  0.
        -13    1    3    3    0    0 -0.32832881192E+02  0.40036786454E+01 -0.39338319731E+02  0.51395825991E+02  0.00000000000E+00 0.  1.
         14    1    3    3    0    0  0.15236867603E+02  0.36354922231E+02  0.15861953091E+02  0.42490517303E+02  0.00000000000E+00 0. -1.
         11    1    5    5    0    0 -0.12374761889E+03  0.20279921044E+02  0.68958794300E+03  0.70089676808E+03  0.00000000000E+00 0. -1.
        -12    1    5    5    0    0 -0.41449245748E+02 -0.11583055071E+02  0.86514307695E+02  0.96627804352E+02  0.00000000000E+00 0.  1.
          5    1    4    4  501    0  0.17064793225E+03 -0.12421102026E+02  0.22425287242E+03  0.28210250574E+03  0.41800000000E+01 0. -1.
         -5    1    4    4    0  501  0.12144945979E+02 -0.36634364824E+02  0.28895978487E+01  0.38928120615E+02  0.41800000000E+01 0. -1.
</event>
<event>
11    1  0.6930157E-009  0.1333080E+03  0.7561462E-02  0.1115270E+00
         22   -1    0    0    0    0  0.00000000000E+00  0.00000000000E+00  0.76980429081E+03  0.76980429081E+03  0.00000000000E+00 0.  1.
         22   -1    0    0    0    0 -0.00000000000E+00 -0.00000000000E+00 -0.31131501451E+03  0.31131501451E+03  0.00000000000E+00 0.  1.
         24    2    1    2    0    0 -0.25456240682E+02  0.44830995818E+00 -0.24657311528E+03  0.26005881444E+03  0.78638823868E+02 0.  0.
         25    2    1    2    0    0  0.69144546113E+02  0.89764795895E+01  0.38846398503E+02  0.14838719423E+03  0.12509265083E+03 0.  0.
        -24    2    1    2    0    0 -0.43688305432E+02 -0.94247895477E+01  0.66621599308E+03  0.67267329664E+03  0.81536003668E+02 0.  0.
        -11    1    3    3    0    0  0.59351764758E+01 -0.95193004840E+01 -0.21204401492E+03  0.21234054644E+03  0.00000000000E+00 0.  1.
         12    1    3    3    0    0 -0.31391417157E+02  0.99676104421E+01 -0.34529100362E+02  0.47718268000E+02  0.00000000000E+00 0. -1.
         13    1    5    5    0    0 -0.40065968250E+02  0.10944719541E+02  0.13951569566E+03  0.14556681638E+03  0.00000000000E+00 0. -1.
        -14    1    5    5    0    0 -0.36223371813E+01 -0.20369509089E+02  0.52670029742E+03  0.52710648026E+03  0.00000000000E+00 0.  1.
          5    1    4    4  501    0 -0.30985363055E+02  0.27071161973E+02  0.10171987456E+02  0.42589696677E+02  0.41800000000E+01 0.  1.
         -5    1    4    4    0  501  0.10012990917E+03 -0.18094682383E+02  0.28674411047E+02  0.10579749756E+03  0.41800000000E+01 0.  1.
</event>
<event>
11    1  0.6930157E-009  0.3213106E+03  0.7561462E-02  0.9915548E-01
         22   -1    0    0    0    0  0.00000000000E+00  0.00000000000E+00  0.11641075148E+04  0.11641075148E+04  0.00000000000E+00 0.  1.
         22   -1    0    0    0    0 -0.00000000000E+00 -0.00000000000E+00 -0.62868394205E+03  0.62868394205E+03  0.00000000000E+00 0.  1.
         24    2    1    2    0    0 -0.21534644300E+03 -0.32898284953E+03 -0.41924380659E+03  0.58003154300E+03  0.77893617956E+02 0.  0.
         25    2    1    2    0    0  0.14353616832E+03  0.10529787106E+03 -0.87675665570E+01  0.21774828318E+03  0.12508865391E+03 0.  0.
        -24    2    1    2    0    0  0.71810274673E+02  0.22368497847E+03  0.96343494591E+03  0.99501163068E+03  0.81544865212E+02 0.  0.
        -13    1    3    3    0    0 -0.62743315222E+02 -0.14772983313E+03 -0.20697123239E+03  0.26191204295E+03  0.00000000000E+00 0.  1.
         14    1    3    3    0    0 -0.15260312777E+03 -0.18125301640E+03 -0.21227257420E+03  0.31811950006E+03  0.00000000000E+00 0. -1.
         13    1    5    5    0    0 -0.77891073846E+01  0.10675876944E+03  0.39598681013E+03  0.41019953540E+03  0.00000000000E+00 0. -1.
        -14    1    5    5    0    0  0.79599382057E+02  0.11692620903E+03  0.56744813578E+03  0.58481209528E+03  0.00000000000E+00 0.  1.
          5    1    4    4  501    0  0.76093500558E+02  0.10922239325E+03  0.34293885502E+02  0.13752561579E+03  0.41800000000E+01 0. -1.
         -5    1    4    4    0  501  0.67442667766E+02 -0.39245221937E+01 -0.43061452059E+02  0.80222667391E+02  0.41800000000E+01 0. -1.
</event>
<event>
11    1  0.6930157E-009  0.1641582E+03  0.7561462E-02  0.1083230E+00
         22   -1    0    0    0    0  0.00000000000E+00  0.00000000000E+00  0.32311930961E+04  0.32311930961E+04  0.00000000000E+00 0. -1.
         22   -1    0    0    0    0 -0.00000000000E+00 -0.00000000000E+00 -0.28500409391E+03  0.28500409391E+03  0.00000000000E+00 0. -1.
        -24    2    1    2    0    0 -0.10345936696E+03  0.62383001300E+02 -0.61911502815E+02  0.15709288260E+03  0.79054791885E+02 0.  0.
         25    2    1    2    0    0  0.50442048513E+02 -0.87762251417E+02 -0.13771158094E+03  0.21179999842E+03  0.12509255283E+03 0.  0.
         24    2    1    2    0    0  0.53017318449E+02  0.25379250117E+02  0.31458120860E+04  0.31473043090E+04  0.77044084512E+02 0.  0.
        -13    1    5    5    0    0  0.23855432505E+02  0.32583046745E+02  0.62005227579E+03  0.62136588360E+03  0.00000000000E+00 0.  1.
         14    1    5    5    0    0  0.29161885944E+02 -0.72037966283E+01  0.25257598102E+04  0.25259384254E+04  0.00000000000E+00 0. -1.
         11    1    3    3    0    0 -0.79893064986E+02  0.36235633641E+02 -0.21710093555E+01  0.87753269226E+02  0.00000000000E+00 0. -1.
        -12    1    3    3    0    0 -0.23566301975E+02  0.26147367659E+02 -0.59740493460E+02  0.69339613376E+02  0.00000000000E+00 0.  1.
          5    1    4    4  501    0  0.88039960392E+02 -0.64478152810E+02 -0.12417043746E+03  0.16536092874E+03  0.41800000000E+01 0.  1.
         -5    1    4    4    0  501 -0.37597911880E+02 -0.23284098607E+02 -0.13541143481E+02  0.46439069676E+02  0.41800000000E+01 0.  1.
</event>
<event>
11    1  0.6930157E-009  0.1608918E+03  0.7561462E-02  0.1086241E+00
         22   -1    0    0    0    0  0.00000000000E+00  0.00000000000E+00  0.14404807885E+03  0.14404807885E+03  0.00000000000E+00 0.  1.
         22   -1    0    0    0    0 -0.00000000000E+00 -0.00000000000E+00 -0.43254749068E+03  0.43254749068E+03  0.00000000000E+00 0. -1.
         24    2    1    2    0    0  0.28279566242E+02  0.48672936179E+02 -0.24476889083E+03  0.26360183020E+03  0.80033282972E+02 0.  0.
         25    2    1    2    0    0  0.80841712378E+02 -0.61279756047E+02  0.20124854879E+02  0.16230526371E+03  0.12508955945E+03 0.  0.
        -24    2    1    2    0    0 -0.10912127862E+03  0.12606819868E+02 -0.63855375872E+02  0.15068847561E+03  0.81013099560E+02 0.  0.
        -11    1    3    3    0    0 -0.26227745254E+02  0.30824129384E+02 -0.10387445140E+03  0.11148059574E+03  0.00000000000E+00 0.  1.
         12    1    3    3    0    0  0.54507311496E+02  0.17848806796E+02 -0.14089443944E+03  0.15212123447E+03  0.00000000000E+00 0. -1.
         13    1    5    5    0    0 -0.37287112324E+02  0.13706247126E+02 -0.67970090320E+02  0.78728159726E+02  0.00000000000E+00 0. -1.
        -14    1    5    5    0    0 -0.71834166297E+02 -0.10994272576E+01  0.41147144475E+01  0.71960315889E+02  0.00000000000E+00 0.  1.
          5    1    4    4  501    0  0.71947542815E+02 -0.44039385687E+02  0.69316318410E+02  0.10926179939E+03  0.41800000000E+01 0.  1.
         -5    1    4    4    0  501  0.88941695637E+01 -0.17240370360E+02 -0.49191463530E+02  0.53043464316E+02  0.41800000000E+01 0.  1.
</event>
<event>
11    1  0.6930157E-009  0.1369573E+03  0.7561462E-02  0.1111004E+00
         22   -1    0    0    0    0  0.00000000000E+00  0.00000000000E+00  0.24957801055E+03  0.24957801055E+03  0.00000000000E+00 0.  1.
         22   -1    0    0    0    0 -0.00000000000E+00 -0.00000000000E+00 -0.98272599155E+03  0.98272599155E+03  0.00000000000E+00 0.  1.
         24    2    1    2    0    0  0.43630749869E+02 -0.36129828847E+02 -0.79080656827E+03  0.79690846756E+03  0.80492672857E+02 0.  0.
         25    2    1    2    0    0 -0.66133051704E+02 -0.84122627895E+01 -0.15050599377E+03  0.20674546904E+03  0.12508912070E+03 0.  0.
        -24    2    1    2    0    0  0.22502301835E+02  0.44542091637E+02  0.20816458104E+03  0.22865006550E+03  0.80361733036E+02 0.  0.
        -13    1    3    3    0    0  0.49670042228E+02 -0.43254912050E+02 -0.77934441428E+03  0.78212263525E+03  0.00000000000E+00 0.  1.
         14    1    3    3    0    0 -0.60392923595E+01  0.71250832027E+01 -0.11462153995E+02  0.14785832308E+02  0.00000000000E+00 0. -1.
         13    1    5    5    0    0 -0.15551478787E+02  0.17664658260E+02  0.10859834829E+02  0.25919580560E+02  0.00000000000E+00 0. -1.
        -14    1    5    5    0    0  0.38053780623E+02  0.26877433377E+02  0.19730474621E+03  0.20273048494E+03  0.00000000000E+00 0.  1.
          5    1    4    4  501    0 -0.98508030331E+02 -0.29459449057E+02 -0.10954502862E+03  0.15029729497E+03  0.41800000000E+01 0.  1.
         -5    1    4    4    0  501  0.32374978627E+02  0.21047186267E+02 -0.40960965144E+02  0.56448174075E+02  0.41800000000E+01 0.  1.
</event>
<event>
11    1  0.6930157E-009  0.1381906E+03  0.7561462E-02  0.1109596E+00
         22   -1    0    0    0    0  0.00000000000E+00  0.00000000000E+00  0.28015456827E+03  0.28015456827E+03  0.00000000000E+00 0.  1.
         22   -1    0    0    0    0 -0.00000000000E+00 -0.00000000000E+00 -0.33675451525E+03  0.33675451525E+03  0.00000000000E+00 0.  1.
         24    2    1    2    0    0 -0.21117632529E+02  0.42129617779E+01 -0.23960263076E+03  0.25390471216E+03  0.81206395917E+02 0.  0.
         25    2    1    2    0    0 -0.99999390878E+01 -0.55101628974E+02 -0.18027937396E+02  0.13823380846E+03  0.12508953185E+03 0.  0.
        -24    2    1    2    0    0  0.31117571617E+02  0.50888667196E+02  0.20103062118E+03  0.22477056289E+03  0.80935379017E+02 0.  0.
        -11    1    3    3    0    0 -0.46970233293E+02 -0.29251874458E+01 -0.20384324084E+03  0.20920522549E+03  0.00000000000E+00 0.  1.
         12    1    3    3    0    0  0.25852600765E+02  0.71381492238E+01 -0.35759389923E+02  0.44699486667E+02  0.00000000000E+00 0. -1.
         11    1    5    5    0    0 -0.69998496267E+01  0.40073662966E+02  0.33739125149E+02  0.52850968999E+02  0.00000000000E+00 0. -1.
        -12    1    5    5    0    0  0.38117421243E+02  0.10815004231E+02  0.16729149603E+03  0.17191959389E+03  0.00000000000E+00 0.  1.
          5    1    4    4  501    0  0.52903957767E+02 -0.47062640146E+02 -0.22790888147E+02  0.74502468600E+02  0.41800000000E+01 0.  1.
         -5    1    4    4    0  501 -0.62903896855E+02 -0.80389888283E+01  0.47629507505E+01  0.63731339863E+02  0.41800000000E+01 0.  1.
</event>
<event>
11    1  0.6930157E-009  0.4559812E+03  0.7561462E-02  0.9497647E-01
         22   -1    0    0    0    0  0.00000000000E+00  0.00000000000E+00  0.57923275357E+03  0.57923275357E+03  0.00000000000E+00 0. -1.
         22   -1    0    0    0    0 -0.00000000000E+00 -0.00000000000E+00 -0.15553935034E+04  0.15553935034E+04  0.00000000000E+00 0. -1.
         24    2    1    2    0    0 -0.14379292696E+02  0.19798515500E+02 -0.11524192118E+04  0.11555089903E+04  0.80822285292E+02 0.  0.
         25    2    1    2    0    0 -0.42681885819E+03 -0.54077278631E+02 -0.89432265864E+02  0.45688547728E+03  0.12509004519E+03 0.  0.
        -24    2    1    2    0    0  0.44119815088E+03  0.34278763132E+02  0.26569072785E+03  0.52223178932E+03  0.79395446736E+02 0.  0.
        -11    1    3    3    0    0  0.32435377904E+02  0.10320325862E+01 -0.34784518765E+03  0.34935568322E+03  0.00000000000E+00 0.  1.
         12    1    3    3    0    0 -0.46814670599E+02  0.18766482913E+02 -0.80457402413E+03  0.80615330712E+03  0.00000000000E+00 0. -1.
         11    1    5    5    0    0  0.15022770893E+03  0.34618213633E+02  0.12776455378E+03  0.20022628810E+03  0.00000000000E+00 0. -1.
        -12    1    5    5    0    0  0.29097044195E+03 -0.33945050173E+00  0.13792617407E+03  0.32200550121E+03  0.00000000000E+00 0.  1.
          5    1    4    4  501    0 -0.39168597024E+03 -0.36524693333E+02 -0.42728999751E+02  0.39572110422E+03  0.41800000000E+01 0. -1.
         -5    1    4    4    0  501 -0.35132887945E+02 -0.17552585299E+02 -0.46703266113E+02  0.61164373058E+02  0.41800000000E+01 0. -1.
</event>
<event>
11    1  0.6930157E-009  0.2078039E+03  0.7561462E-02  0.1049138E+00
         22   -1    0    0    0    0  0.00000000000E+00  0.00000000000E+00  0.26212410745E+04  0.26212410745E+04  0.00000000000E+00 0. -1.
         22   -1    0    0    0    0 -0.00000000000E+00 -0.00000000000E+00 -0.84124645871E+03  0.84124645871E+03  0.00000000000E+00 0.  1.
         24    2    1    2    0    0 -0.33193163656E+02 -0.16102047330E+03 -0.78500286111E+03  0.80591683413E+03  0.79013116860E+02 0.  0.
         25    2    1    2    0    0  0.64933840068E+02  0.20887130887E+03  0.30938347072E+03  0.39901103274E+03  0.12509214618E+03 0.  0.
        -24    2    1    2    0    0 -0.31740676412E+02 -0.47850835570E+02  0.22556140061E+04  0.22575596663E+04  0.74053556477E+02 0.  0.
        -11    1    3    3    0    0 -0.47171959812E+02 -0.14644395695E+03 -0.74897898736E+03  0.76461791100E+03  0.00000000000E+00 0.  1.
         12    1    3    3    0    0  0.13978796156E+02 -0.14576516354E+02 -0.36023873755E+02  0.41298923125E+02  0.00000000000E+00 0. -1.
         13    1    5    5    0    0 -0.14365845303E+02 -0.14262895590E+02  0.18670714777E+04  0.18671812206E+04  0.00000000000E+00 0. -1.
        -14    1    5    5    0    0 -0.17374831109E+02 -0.33587939980E+02  0.38854252846E+03  0.39037844573E+03  0.00000000000E+00 0.  1.
          5    1    4    4  501    0 -0.23544327132E+02  0.48895756752E+01  0.10744486693E+02  0.26667577405E+02  0.41800000000E+01 0.  1.
         -5    1    4    4    0  501  0.88478167199E+02  0.20398173319E+03  0.29863898403E+03  0.37234345533E+03  0.41800000000E+01 0.  1.
</event>
<event>
11    1  0.6930157E-009  0.1518016E+03  0.7561462E-02  0.1095052E+00
         22   -1    0    0    0    0  0.00000000000E+00  0.00000000000E+00  0.39909796265E+02  0.39909796265E+02  0.00000000000E+00 0.  1.
         22   -1    0    0    0    0 -0.00000000000E+00 -0.00000000000E+00 -0.11774276814E+04  0.11774276814E+04  0.00000000000E+00 0.  1.
         24    2    1    2    0    0  0.37453646380E+02 -0.50286186738E+01 -0.17562155907E+03  0.19678783636E+03  0.80339640867E+02 0.  0.
         25    2    1    2    0    0  0.61116683209E+02 -0.48703804138E+02 -0.77057787796E+03  0.78456618928E+03  0.12508608974E+03 0.  0.
        -24    2    1    2    0    0 -0.98570329589E+02  0.53732422812E+02 -0.19131844810E+03  0.23598345203E+03  0.80511849517E+02 0.  0.
        -11    1    3    3    0    0  0.40170420589E+02 -0.23507067960E+02 -0.44669390114E+02  0.64510459211E+02  0.00000000000E+00 0.  1.
         12    1    3    3    0    0 -0.27167742092E+01  0.18478449287E+02 -0.13095216896E+03  0.13227737715E+03  0.00000000000E+00 0. -1.
         11    1    5    5    0    0 -0.44585887399E+01  0.11639324322E+02 -0.91963676078E+02  0.92804475119E+02  0.00000000000E+00 0. -1.
        -12    1    5    5    0    0 -0.94111740849E+02  0.42093098490E+02 -0.99354772021E+02  0.14317897691E+03  0.00000000000E+00 0.  1.
          5    1    4    4  501    0  0.50102541301E+02 -0.41020780198E+02 -0.14530457983E+03  0.15913473025E+03  0.41800000000E+01 0.  1.
         -5    1    4    4    0  501  0.11014141908E+02 -0.76830239405E+01 -0.62527329813E+03  0.62543145902E+03  0.41800000000E+01 0.  1.
</event>
<event>
11    1  0.6930157E-009  0.1485882E+03  0.7561462E-02  0.1098330E+00
         22   -1    0    0    0    0  0.00000000000E+00  0.00000000000E+00  0.21719103620E+03  0.21719103620E+03  0.00000000000E+00 0. -1.
         22   -1    0    0    0    0 -0.00000000000E+00 -0.00000000000E+00 -0.78347439793E+03  0.78347439793E+03  0.00000000000E+00 0.  1.
         24    2    1    2    0    0 -0.44841640986E+02  0.68571910367E+02 -0.66277751886E+03  0.67261180971E+03  0.80123201344E+02 0.  0.
         25    2    1    2    0    0  0.83016305990E+02 -0.14814154913E+02 -0.40364627936E+02  0.15616817025E+03  0.12509207795E+03 0.  0.
        -24    2    1    2    0    0 -0.38174665004E+02 -0.53757755454E+02  0.13685878507E+03  0.17188545417E+03  0.80418163278E+02 0.  0.
        -13    1    3    3    0    0 -0.15291565611E+02  0.46709244648E+02 -0.57952542573E+03  0.58160579827E+03  0.00000000000E+00 0.  1.
         14    1    3    3    0    0 -0.29550075375E+02  0.21862665719E+02 -0.83252093126E+02  0.91006011433E+02  0.00000000000E+00 0. -1.
         13    1    5    5    0    0  0.18360877178E+02 -0.13574121162E+02  0.76842756001E+02  0.80163506198E+02  0.00000000000E+00 0. -1.
        -14    1    5    5    0    0 -0.56535542182E+02 -0.40183634292E+02  0.60016029065E+02  0.91721947970E+02  0.00000000000E+00 0.  1.
          5    1    4    4  501    0  0.47137649177E+02 -0.70051738603E+02 -0.27732588150E+02  0.88970629405E+02  0.41800000000E+01 0. -1.
         -5    1    4    4    0  501  0.35878656814E+02  0.55237583691E+02 -0.12632039786E+02  0.67197540847E+02  0.41800000000E+01 0. -1.
</event>
<event>
11    1  0.6930157E-009  0.1930048E+03  0.7561462E-02  0.1059584E+00
         22   -1    0    0    0    0  0.00000000000E+00  0.00000000000E+00  0.51075164047E+03  0.51075164047E+03  0.00000000000E+00 0. -1.
         22   -1    0    0    0    0 -0.00000000000E+00 -0.00000000000E+00 -0.66582307652E+03  0.66582307652E+03  0.00000000000E+00 0. -1.
        -24    2    1    2    0    0  0.58535504726E+02  0.49035321303E+02 -0.58044606188E+03  0.59127590259E+03  0.82817233670E+02 0.  0.
         25    2    1    2    0    0  0.64299829108E+02 -0.13648486782E+03  0.10502156228E+03  0.22234953077E+03  0.12508876099E+03 0.  0.
         24    2    1    2    0    0 -0.12283533383E+03  0.87449546514E+02  0.32035306355E+03  0.36294928363E+03  0.79813249124E+02 0.  0.
        -11    1    5    5    0    0 -0.78952813587E+02  0.94303066002E+02  0.20151174017E+03  0.23607964007E+03  0.00000000000E+00 0.  1.
         12    1    5    5    0    0 -0.43882520247E+02 -0.68535194887E+01  0.11884132338E+03  0.12686964356E+03  0.00000000000E+00 0. -1.
         11    1    3    3    0    0  0.49292564787E+02  0.72000110935E+02 -0.47644025955E+03  0.48436462901E+03  0.00000000000E+00 0. -1.
        -12    1    3    3    0    0  0.92429399396E+01 -0.22964789632E+02 -0.10400580233E+03  0.10691127358E+03  0.00000000000E+00 0.  1.
          5    1    4    4  501    0  0.42710512723E+02 -0.15849428339E+03  0.94791633435E+02  0.18959839644E+03  0.41800000000E+01 0.  1.
         -5    1    4    4    0  501  0.21589316384E+02  0.22009415574E+02  0.10229928843E+02  0.32751134331E+02  0.41800000000E+01 0.  1.
</event>
<event>
11    1  0.6930157E-009  0.1414368E+03  0.7561462E-02  0.1105964E+00
         22   -1    0    0    0    0  0.00000000000E+00  0.00000000000E+00  0.18623879282E+04  0.18623879282E+04  0.00000000000E+00 0. -1.
         22   -1    0    0    0    0 -0.00000000000E+00 -0.00000000000E+00 -0.10387494875E+04  0.10387494875E+04  0.00000000000E+00 0. -1.
        -24    2    1    2    0    0 -0.18046785723E+02 -0.27416608184E+02 -0.97675557696E+03  0.98061416401E+03  0.80469401990E+02 0.  0.
         25    2    1    2    0    0 -0.17480115005E+02 -0.29170654523E+02  0.13130197383E+02  0.13029416989E+03  0.12509071555E+03 0.  0.
         24    2    1    2    0    0  0.35526900728E+02  0.56587262707E+02  0.17872638202E+04  0.17902290818E+04  0.78383182901E+02 0.  0.
        -13    1    5    5    0    0  0.10477834756E+02  0.60082058745E+02  0.69454654515E+03  0.69721914933E+03  0.00000000000E+00 0.  1.
         14    1    5    5    0    0  0.25049065973E+02 -0.34947960374E+01  0.10927172751E+04  0.10930099325E+04  0.00000000000E+00 0. -1.
         11    1    3    3    0    0 -0.16297246751E+02 -0.51567404598E+02 -0.83941556739E+03  0.84115592623E+03  0.00000000000E+00 0. -1.
        -12    1    3    3    0    0 -0.17495389722E+01  0.24150796413E+02 -0.13734000957E+03  0.13945823777E+03  0.00000000000E+00 0.  1.
          5    1    4    4  501    0 -0.56260568033E+02 -0.15708784322E+02  0.48429354544E+02  0.75992711504E+02  0.41800000000E+01 0.  1.
         -5    1    4    4    0  501  0.38780453027E+02 -0.13461870201E+02 -0.35299157161E+02  0.54301458384E+02  0.41800000000E+01 0.  1.
</event>
<event>
11    1  0.6930157E-009  0.1306378E+03  0.7561462E-02  0.1118488E+00
         22   -1    0    0    0    0  0.00000000000E+00  0.00000000000E+00  0.41631534902E+03  0.41631534902E+03  0.00000000000E+00 0.  1.
         22   -1    0    0    0    0 -0.00000000000E+00 -0.00000000000E+00 -0.10202075185E+04  0.10202075185E+04  0.00000000000E+00 0. -1.
        -24    2    1    2    0    0  0.14086639292E+02 -0.10834200690E+02 -0.80565663614E+03  0.80972876969E+03  0.79134390692E+02 0.  0.
         25    2    1    2    0    0  0.18222285494E+02 -0.95172025904E+01 -0.18823302826E+03  0.22692228306E+03  0.12505766986E+03 0.  0.
         24    2    1    2    0    0 -0.32308924786E+02  0.20351403281E+02  0.38999749489E+03  0.39987181480E+03  0.79632757170E+02 0.  0.
        -13    1    5    5    0    0 -0.12223475458E+01  0.27429670578E+02  0.33632678467E+03  0.33744568015E+03  0.00000000000E+00 0.  1.
         14    1    5    5    0    0 -0.31086577240E+02 -0.70782672970E+01  0.53670710214E+02  0.62426134650E+02  0.00000000000E+00 0. -1.
         11    1    3    3    0    0  0.39571461327E+02 -0.80465527575E+01 -0.69370116457E+03  0.69487549481E+03  0.00000000000E+00 0. -1.
        -12    1    3    3    0    0 -0.25484822035E+02 -0.27876479329E+01 -0.11195547157E+03  0.11485327488E+03  0.00000000000E+00 0.  1.
          5    1    4    4  501    0  0.59429808294E+02  0.28499925161E+02 -0.71367227907E+02  0.97236317634E+02  0.41800000000E+01 0. -1.
         -5    1    4    4    0  501 -0.41207522799E+02 -0.38017127751E+02 -0.11686580035E+03  0.12968596543E+03  0.41800000000E+01 0. -1.
</event>
<event>
11    1  0.6930157E-009  0.1448871E+03  0.7561462E-02  0.1102221E+00
         22   -1    0    0    0    0  0.00000000000E+00  0.00000000000E+00  0.20260220253E+03  0.20260220253E+03  0.00000000000E+00 0. -1.
         22   -1    0    0    0    0 -0.00000000000E+00 -0.00000000000E+00 -0.80550989253E+03  0.80550989253E+03  0.00000000000E+00 0. -1.
         24    2    1    2    0    0 -0.43525028932E+02  0.56762312189E+02 -0.68500443867E+03  0.69312664480E+03  0.77955605965E+02 0.  0.
         25    2    1    2    0    0  0.41712779182E+02 -0.89980215634E+02 -0.42392140373E+02  0.16516933114E+03  0.12508964479E+03 0.  0.
        -24    2    1    2    0    0  0.18122497495E+01  0.33217903445E+02  0.12448888904E+03  0.14981611912E+03  0.76424293880E+02 0.  0.
        -11    1    3    3    0    0  0.21287930328E+02  0.26637196960E+02 -0.20047455738E+03  0.20335379120E+03  0.00000000000E+00 0.  1.
         12    1    3    3    0    0 -0.64812959260E+02  0.30125115229E+02 -0.48452988130E+03  0.48977285360E+03  0.00000000000E+00 0. -1.
         11    1    5    5    0    0 -0.36668437064E+01  0.13607916191E+02  0.12832523584E+03  0.12909681359E+03  0.00000000000E+00 0. -1.
        -12    1    5    5    0    0  0.54790934559E+01  0.19609987254E+02 -0.38363467916E+01  0.20719305536E+02  0.00000000000E+00 0.  1.
          5    1    4    4  501    0 -0.13519607727E+02 -0.63608747772E+02  0.28754305425E+02  0.71225943775E+02  0.41800000000E+01 0. -1.
         -5    1    4    4    0  501  0.55232386909E+02 -0.26371467862E+02 -0.71146445797E+02  0.93943387369E+02  0.41800000000E+01 0. -1.
</event>
<event>
11    1  0.6930157E-009  0.1668308E+03  0.7561462E-02  0.1080823E+00
         22   -1    0    0    0    0  0.00000000000E+00  0.00000000000E+00  0.24508465190E+04  0.24508465190E+04  0.00000000000E+00 0.  1.
         22   -1    0    0    0    0 -0.00000000000E+00 -0.00000000000E+00 -0.30802638319E+03  0.30802638319E+03  0.00000000000E+00 0.  1.
         24    2    1    2    0    0 -0.39206998278E+01  0.10820895839E+03 -0.27546973118E+03  0.30670848635E+03  0.80386393378E+02 0.  0.
         25    2    1    2    0    0  0.71829109026E+02 -0.47000196019E+01  0.35025583047E+03  0.37882235516E+03  0.12508284815E+03 0.  0.
        -24    2    1    2    0    0 -0.67908409198E+02 -0.10350893879E+03  0.20680340366E+04  0.20733420607E+04  0.81589655660E+02 0.  0.
        -13    1    3    3    0    0  0.15129301856E+02  0.61132420354E+01 -0.11099190628E+03  0.11218498457E+03  0.00000000000E+00 0.  1.
         14    1    3    3    0    0 -0.19050001684E+02  0.10209571636E+03 -0.16447782490E+03  0.19452350178E+03  0.00000000000E+00 0. -1.
         11    1    5    5    0    0 -0.10051099890E+02  0.13880359196E+02  0.20320388446E+03  0.20392525013E+03  0.00000000000E+00 0. -1.
        -12    1    5    5    0    0 -0.57857309308E+02 -0.11738929798E+03  0.18648301521E+04  0.18694168106E+04  0.00000000000E+00 0.  1.
          5    1    4    4  501    0  0.92197240018E+02  0.20230689409E+02  0.32267827409E+03  0.33622663909E+03  0.41800000000E+01 0.  1.
         -5    1    4    4    0  501 -0.20368130992E+02 -0.24930709011E+02  0.27577556378E+02  0.42595716071E+02  0.41800000000E+01 0.  1.
</event>
<event>
11    1  0.6930157E-009  0.1675361E+03  0.7561462E-02  0.1080196E+00
         22   -1    0    0    0    0  0.00000000000E+00  0.00000000000E+00  0.75387556949E+03  0.75387556949E+03  0.00000000000E+00 0.  1.
         22   -1    0    0    0    0 -0.00000000000E+00 -0.00000000000E+00 -0.10067740772E+04  0.10067740772E+04  0.00000000000E+00 0.  1.
         24    2    1    2    0    0 -0.27036524254E+02 -0.25717144936E+02 -0.73489675945E+03  0.74047637965E+03  0.82702337247E+02 0.  0.
         25    2    1    2    0    0  0.24382090138E+02  0.13651296984E+03 -0.22923907383E+03  0.29568359722E+03  0.12509180407E+03 0.  0.
        -24    2    1    2    0    0  0.26544341158E+01 -0.11079582490E+03  0.71123732558E+03  0.72448966979E+03  0.82121784491E+02 0.  0.
        -13    1    3    3    0    0 -0.28569242796E+02 -0.22640663832E+02 -0.73597259882E+03  0.73687479771E+03  0.00000000000E+00 0.  1.
         14    1    3    3    0    0  0.15327185415E+01 -0.30764811044E+01  0.10758393696E+01  0.36015819388E+01  0.00000000000E+00 0. -1.
         11    1    5    5    0    0 -0.10119357036E+02  0.10556689081E+02  0.11234996955E+03  0.11329766427E+03  0.00000000000E+00 0. -1.
        -12    1    5    5    0    0  0.12773791152E+02 -0.12135251398E+03  0.59888735604E+03  0.61119200552E+03  0.00000000000E+00 0.  1.
          5    1    4    4  501    0 -0.91133128703E+01 -0.18306241979E+02 -0.61454256877E+02  0.64901995772E+02  0.41800000000E+01 0. -1.
         -5    1    4    4    0  501  0.33495403009E+02  0.15481921182E+03 -0.16778481695E+03  0.23078160145E+03  0.41800000000E+01 0. -1.
</event>
<event>
11    1  0.6930157E-009  0.2672594E+03  0.7561462E-02  0.1015086E+00
         22   -1    0    0    0    0  0.00000000000E+00  0.00000000000E+00  0.32433506890E+03  0.32433506890E+03  0.00000000000E+00 0. -1.
         22   -1    0    0    0    0 -0.00000000000E+00 -0.00000000000E+00 -0.77308838104E+03  0.77308838104E+03  0.00000000000E+00 0.  1.
         24    2    1    2    0    0  0.14317855627E+03  0.19743806498E+03 -0.59804082440E+03  0.64929219891E+03  0.66675658548E+02 0.  0.
         25    2    1    2    0    0 -0.21214193142E+03 -0.68237522692E+02  0.76324073568E+02  0.26670932363E+03  0.12509172849E+03 0.  0.
        -24    2    1    2    0    0  0.68963375149E+02 -0.12920054228E+03  0.72963438694E+02  0.18142192739E+03  0.78367883172E+02 0.  0.
        -13    1    3    3    0    0  0.14539190527E+03  0.20103452271E+03 -0.58138434623E+03  0.63210872758E+03  0.00000000000E+00 0.  1.
         14    1    3    3    0    0 -0.22133490040E+01 -0.35964577339E+01 -0.16656478170E+02  0.17183471333E+02  0.00000000000E+00 0. -1.
         13    1    5    5    0    0  0.42477430168E+02 -0.82954701789E+02  0.27038454088E+01  0.93236931538E+02  0.00000000000E+00 0. -1.
        -14    1    5    5    0    0  0.26485944981E+02 -0.46245840496E+02  0.70259593285E+02  0.88184995852E+02  0.00000000000E+00 0.  1.
          5    1    4    4  501    0 -0.49479103521E+02  0.74607448127E+00  0.75021536811E+02  0.89969115244E+02  0.41800000000E+01 0. -1.
         -5    1    4    4    0  501 -0.16266282789E+03 -0.68983597173E+02  0.13025367567E+01  0.17674020838E+03  0.41800000000E+01 0. -1.
</event>
<event>
11    1  0.6930157E-009  0.1507464E+03  0.7561462E-02  0.1096119E+00
         22   -1    0    0    0    0  0.00000000000E+00  0.00000000000E+00  0.39069010399E+02  0.39069010399E+02  0.00000000000E+00 0.  1.
         22   -1    0    0    0    0 -0.00000000000E+00 -0.00000000000E+00 -0.22465950223E+04  0.22465950223E+04  0.00000000000E+00 0. -1.
        -24    2    1    2    0    0 -0.75372239111E+01 -0.13177786730E+02 -0.94020735211E+03  0.94357436895E+03  0.78180950126E+02 0.  0.
         25    2    1    2    0    0  0.31646764932E+02  0.92407583587E+02 -0.11845670430E+04  0.11951518839E+04  0.12509303286E+03 0.  0.
         24    2    1    2    0    0 -0.24109541021E+02 -0.79229796857E+02 -0.82751616731E+02  0.14693777984E+03  0.88793301525E+02 0.  0.
        -11    1    5    5    0    0 -0.14060900470E+02 -0.50730825491E+02  0.61869548378E+01  0.53005697686E+02  0.00000000000E+00 0.  1.
         12    1    5    5    0    0 -0.10048640551E+02 -0.28498971366E+02 -0.88938571569E+02  0.93932082158E+02  0.00000000000E+00 0. -1.
         11    1    3    3    0    0 -0.26151232627E+02  0.15369167821E+02 -0.72937170494E+03  0.73000217962E+03  0.00000000000E+00 0. -1.
        -12    1    3    3    0    0  0.18614008715E+02 -0.28546954551E+02 -0.21083564717E+03  0.21357218933E+03  0.00000000000E+00 0.  1.
          5    1    4    4  501    0  0.65540577428E+02  0.41623331592E+02 -0.35919368461E+03  0.36751278139E+03  0.41800000000E+01 0. -1.
         -5    1    4    4    0  501 -0.33893812496E+02  0.50784251996E+02 -0.82537335842E+03  0.82763910249E+03  0.41800000000E+01 0. -1.
</event>
<event>
11    1  0.6930157E-009  0.1269592E+03  0.7561462E-02  0.1123063E+00
         22   -1    0    0    0    0  0.00000000000E+00  0.00000000000E+00  0.13633570105E+04  0.13633570105E+04  0.00000000000E+00 0. -1.
         22   -1    0    0    0    0 -0.00000000000E+00 -0.00000000000E+00 -0.12687166956E+03  0.12687166956E+03  0.00000000000E+00 0. -1.
        -24    2    1    2    0    0  0.60082471793E+01  0.13972307030E+02 -0.10476648952E+03  0.13172467298E+03  0.78383976338E+02 0.  0.
         25    2    1    2    0    0  0.11155390038E+02  0.54161373661E+01  0.64147733002E+03  0.65367751980E+03  0.12508939883E+03 0.  0.
         24    2    1    2    0    0 -0.17163637217E+02 -0.19388444397E+02  0.69977450044E+03  0.70482648727E+03  0.80159363038E+02 0.  0.
        -13    1    5    5    0    0  0.22809039886E+02  0.99001401083E+01  0.41715960204E+03  0.41789998642E+03  0.00000000000E+00 0.  1.
         14    1    5    5    0    0 -0.39972677103E+02 -0.29288584505E+02  0.28261489839E+03  0.28692650085E+03  0.00000000000E+00 0. -1.
         11    1    3    3    0    0  0.72117232601E+01  0.22440804927E+02 -0.11556758984E+03  0.11794687999E+03  0.00000000000E+00 0. -1.
        -12    1    3    3    0    0 -0.12034760808E+01 -0.84684978962E+01  0.10801100323E+02  0.13777792983E+02  0.00000000000E+00 0.  1.
          5    1    4    4  501    0  0.26891091908E+02  0.33291693801E+01  0.25377689710E+02  0.37359252238E+02  0.41800000000E+01 0.  1.
         -5    1    4    4    0  501 -0.15735701870E+02  0.20869679860E+01  0.61609964030E+03  0.61631826756E+03  0.41800000000E+01 0.  1.
</event>
<event>
11    1  0.6930157E-009  0.1552214E+03  0.7561462E-02  0.1091660E+00
         22   -1    0    0    0    0  0.00000000000E+00  0.00000000000E+00  0.10436286179E+04  0.10436286179E+04  0.00000000000E+00 0. -1.
         22   -1    0    0    0    0 -0.00000000000E+00 -0.00000000000E+00 -0.12848752485E+03  0.12848752485E+03  0.00000000000E+00 0. -1.
        -24    2    1    2    0    0 -0.38049709672E+02 -0.38212818410E+01 -0.61625390521E+02  0.11411555444E+03  0.88103850132E+02 0.  0.
         25    2    1    2    0    0 -0.57061133258E+02 -0.10053057219E+02  0.95326546642E+02  0.16760435766E+03  0.12508810225E+03 0.  0.
         24    2    1    2    0    0  0.95110842930E+02  0.13874339060E+02  0.88143993689E+03  0.89039623061E+03  0.81427976787E+02 0.  0.
        -11    1    5    5    0    0 -0.27790255558E+01 -0.19482272523E+02  0.83784429634E+02  0.86064583743E+02  0.00000000000E+00 0.  1.
         12    1    5    5    0    0  0.97889868486E+02  0.33356611583E+02  0.79765550726E+03  0.80433164687E+03  0.00000000000E+00 0. -1.
         13    1    3    3    0    0  0.24230533896E+00  0.36626377085E+02 -0.40343704932E+02  0.54490042557E+02  0.00000000000E+00 0. -1.
        -14    1    3    3    0    0 -0.38292015011E+02 -0.40447658926E+02 -0.21281685589E+02  0.59625511886E+02  0.00000000000E+00 0.  1.
          5    1    4    4  501    0 -0.61443054319E+02 -0.54547890169E+02  0.90713811420E+02  0.12246301167E+03  0.41800000000E+01 0. -1.
         -5    1    4    4    0  501  0.43819210613E+01  0.44494832950E+02  0.46127352229E+01  0.45141345988E+02  0.41800000000E+01 0. -1.
</event>
<event>
11    1  0.6930157E-009  0.1968391E+03  0.7561462E-02  0.1056782E+00
         22   -1    0    0    0    0  0.00000000000E+00  0.00000000000E+00  0.17422854510E+03  0.17422854510E+03  0.00000000000E+00 0. -1.
         22   -1    0    0    0    0 -0.00000000000E+00 -0.00000000000E+00 -0.18728496381E+04  0.18728496381E+04  0.00000000000E+00 0. -1.
         24    2    1    2    0    0 -0.50776960933E+02 -0.28868989549E+02 -0.14439199641E+04  0.14473068302E+04  0.79877904425E+02 0.  0.
         25    2    1    2    0    0  0.10548046538E+03  0.16467040624E+03 -0.33993722814E+03  0.41164099940E+03  0.12509405279E+03 0.  0.
        -24    2    1    2    0    0 -0.54703504446E+02 -0.13580141669E+03  0.85236099274E+02  0.18813035360E+03  0.81812830009E+02 0.  0.
        -11    1    3    3    0    0 -0.24414877573E+02 -0.25292619478E+02 -0.19758097509E+03  0.20068394197E+03  0.00000000000E+00 0.  1.
         12    1    3    3    0    0 -0.26362083361E+02 -0.35763700706E+01 -0.12463389890E+04  0.12466228882E+04  0.00000000000E+00 0. -1.
         11    1    5    5    0    0 -0.10446321238E+02 -0.83237577269E+02  0.84985079074E+02  0.11941559179E+03  0.00000000000E+00 0. -1.
        -12    1    5    5    0    0 -0.44257183208E+02 -0.52563839420E+02  0.25102019926E+00  0.68714761814E+02  0.00000000000E+00 0.  1.
          5    1    4    4  501    0  0.23543926017E+02  0.90902519233E+02 -0.25689599006E+03  0.27355183524E+03  0.41800000000E+01 0. -1.
         -5    1    4    4    0  501  0.81936539363E+02  0.73767887004E+02 -0.83041238086E+02  0.13808916416E+03  0.41800000000E+01 0. -1.
</event>
<event>
11    1  0.6930157E-009  0.2089611E+03  0.7561462E-02  0.1048362E+00
         22   -1    0    0    0    0  0.00000000000E+00  0.00000000000E+00  0.19835740267E+03  0.19835740267E+03  0.00000000000E+00 0.  1.
         22   -1    0    0    0    0 -0.00000000000E+00 -0.00000000000E+00 -0.11846318428E+04  0.11846318428E+04  0.00000000000E+00 0.  1.
        -24    2    1    2    0    0  0.69290812765E+02  0.15117729937E+03 -0.99506748085E+03  0.10120728547E+04  0.80475953642E+02 0.  0.
         25    2    1    2    0    0 -0.83499634334E+02 -0.15564937558E+03 -0.97118363753E+02  0.23722933708E+03  0.12508742838E+03 0.  0.
         24    2    1    2    0    0  0.14208821568E+02  0.44720762118E+01  0.10591140448E+03  0.13368705372E+03  0.80206687107E+02 0.  0.
        -11    1    5    5    0    0 -0.87378415952E+01 -0.17668902119E+02  0.99151092151E+02  0.10109143907E+03  0.00000000000E+00 0.  1.
         12    1    5    5    0    0  0.22946663163E+02  0.22140978331E+02  0.67603123327E+01  0.32595614653E+02  0.00000000000E+00 0. -1.
         13    1    3    3    0    0  0.17494787034E+02  0.11216502196E+03 -0.75130378565E+03  0.75983184854E+03  0.00000000000E+00 0. -1.
        -14    1    3    3    0    0  0.51796025731E+02  0.39012277411E+02 -0.24376369521E+03  0.25224100612E+03  0.00000000000E+00 0.  1.
          5    1    4    4  501    0 -0.51396283147E+02 -0.16941914586E+03 -0.97270205768E+02  0.20204798993E+03  0.41800000000E+01 0. -1.
         -5    1    4    4    0  501 -0.32103351186E+02  0.13769770280E+02  0.15184201434E+00  0.35181347145E+02  0.41800000000E+01 0. -1.
</event>
<event>
11    1  0.6930157E-009  0.1666750E+03  0.7561462E-02  0.1080962E+00
         22   -1    0    0    0    0  0.00000000000E+00  0.00000000000E+00  0.11395632359E+04  0.11395632359E+04  0.00000000000E+00 0.  1.
         22   -1    0    0    0    0 -0.00000000000E+00 -0.00000000000E+00 -0.10962107399E+03  0.10962107399E+03  0.00000000000E+00 0. -1.
         24    2    1    2    0    0  0.10215092081E+02  0.17656695961E+02 -0.58654105651E+02  0.10325750077E+03  0.82496668640E+02 0.  0.
         25    2    1    2    0    0  0.99699589260E+02  0.75180209296E+01  0.25332492434E+03  0.29969895425E+03  0.12509763048E+03 0.  0.
        -24    2    1    2    0    0 -0.10991468134E+03 -0.25174716891E+02  0.83527134320E+03  0.84622785485E+03  0.75553702838E+02 0.  0.
        -11    1    3    3    0    0 -0.13483972802E+01 -0.15247253202E+02  0.15206703781E+02  0.21576393242E+02  0.00000000000E+00 0.  1.
         12    1    3    3    0    0  0.11563489361E+02  0.32903949163E+02 -0.73860809432E+02  0.81681107526E+02  0.00000000000E+00 0. -1.
         11    1    5    5    0    0  0.20458048296E+01 -0.21967279924E+02  0.19374498577E+03  0.19499709284E+03  0.00000000000E+00 0. -1.
        -12    1    5    5    0    0 -0.11196048617E+03 -0.32074369666E+01  0.64152635743E+03  0.65123076201E+03  0.00000000000E+00 0.  1.
          5    1    4    4  501    0  0.39969776191E+02 -0.42293632586E+02  0.35324789569E+02  0.68202987649E+02  0.41800000000E+01 0. -1.
         -5    1    4    4    0  501  0.59729813069E+02  0.49811653516E+02  0.21800013477E+03  0.23149596661E+03  0.41800000000E+01 0. -1.
</event>
<event>
11    1  0.6930157E-009  0.2516276E+03  0.7561462E-02  0.1023036E+00
         22   -1    0    0    0    0  0.00000000000E+00  0.00000000000E+00  0.31411258238E+03  0.31411258238E+03  0.00000000000E+00 0. -1.
         22   -1    0    0    0    0 -0.00000000000E+00 -0.00000000000E+00 -0.63180063304E+03  0.63180063304E+03  0.00000000000E+00 0.  1.
         24    2    1    2    0    0 -0.12621345661E+03  0.16725293507E+03 -0.37831016953E+03  0.43971095821E+03  0.79522081747E+02 0.  0.
         25    2    1    2    0    0  0.18047583077E+03 -0.16870233566E+03 -0.11970757111E+03  0.30167756300E+03  0.12508975132E+03 0.  0.
        -24    2    1    2    0    0 -0.54262374165E+02  0.14494005880E+01  0.18032968998E+03  0.20452469422E+03  0.79781247450E+02 0.  0.
        -13    1    3    3    0    0 -0.12132169415E+03  0.13050019419E+03 -0.25600927860E+03  0.31191345736E+03  0.00000000000E+00 0.  1.
         14    1    3    3    0    0 -0.48917624623E+01  0.36752740887E+02 -0.12230089093E+03  0.12779750085E+03  0.00000000000E+00 0. -1.
         13    1    5    5    0    0 -0.73468884047E+02  0.51677875922E+01  0.11708196496E+03  0.13832053163E+03  0.00000000000E+00 0. -1.
        -14    1    5    5    0    0  0.19206509881E+02 -0.37183870042E+01  0.63247725019E+02  0.66204162586E+02  0.00000000000E+00 0.  1.
          5    1    4    4  501    0  0.22975850470E+02 -0.55995905571E+02  0.18823672292E+02  0.63523493167E+02  0.41800000000E+01 0. -1.
         -5    1    4    4    0  501  0.15749998030E+03 -0.11270643009E+03 -0.13853124340E+03  0.23815406983E+03  0.41800000000E+01 0. -1.
</event>
<event>
11    1  0.6930157E-009  0.1412713E+03  0.7561462E-02  0.1106147E+00
         22   -1    0    0    0    0  0.00000000000E+00  0.00000000000E+00  0.36408096250E+03  0.36408096250E+03  0.00000000000E+00 0.  1.
         22   -1    0    0    0    0 -0.00000000000E+00 -0.00000000000E+00 -0.40247575835E+03  0.40247575835E+03  0.00000000000E+00 0. -1.
        -24    2    1    2    0    0  0.38870799909E+02  0.31777082431E+02 -0.35239307626E+03  0.36494503232E+03  0.80518782708E+02 0.  0.
         25    2    1    2    0    0 -0.87828628592E+02 -0.20660920081E+02  0.21240584024E+03  0.26249623363E+03  0.12508912856E+03 0.  0.
         24    2    1    2    0    0  0.48957828683E+02 -0.11116162350E+02  0.10159244017E+03  0.13911545489E+03  0.80694781966E+02 0.  0.
        -11    1    5    5    0    0 -0.13439776372E+02  0.20262472242E+02  0.18399521914E+02  0.30491601745E+02  0.00000000000E+00 0.  1.
         12    1    5    5    0    0  0.62397605056E+02 -0.31378634592E+02  0.83192918253E+02  0.10862385315E+03  0.00000000000E+00 0. -1.
         13    1    3    3    0    0  0.12162430922E+02  0.36388279733E+02 -0.32177430782E+03  0.32405360174E+03  0.00000000000E+00 0. -1.
        -14    1    3    3    0    0  0.26708368986E+02 -0.46111973019E+01 -0.30618768442E+02  0.40891430586E+02  0.00000000000E+00 0.  1.
          5    1    4    4  501    0 -0.10416349475E+03 -0.56598336717E+01  0.21574915352E+03  0.23968153246E+03  0.41800000000E+01 0. -1.
         -5    1    4    4    0  501  0.16334866161E+02 -0.15001086410E+02 -0.33433132825E+01  0.22814701175E+02  0.41800000000E+01 0. -1.
</event>
<event>
11    1  0.6930157E-009  0.1843266E+03  0.7561462E-02  0.1066196E+00
         22   -1    0    0    0    0  0.00000000000E+00  0.00000000000E+00  0.20037968401E+03  0.20037968401E+03  0.00000000000E+00 0.  1.
         22   -1    0    0    0    0 -0.00000000000E+00 -0.00000000000E+00 -0.13120240248E+04  0.13120240248E+04  0.00000000000E+00 0.  1.
        -24    2    1    2    0    0 -0.64857669962E+02 -0.69035536394E+02 -0.88216071726E+03  0.89097418089E+03  0.81578411956E+02 0.  0.
         25    2    1    2    0    0  0.46946881519E+02  0.19794027326E+03 -0.35233951060E+03  0.42564586896E+03  0.12508762357E+03 0.  0.
         24    2    1    2    0    0  0.17910788443E+02 -0.12890473686E+03  0.12285588709E+03  0.19578365894E+03  0.79375339930E+02 0.  0.
        -13    1    5    5    0    0  0.43716410060E+02 -0.38896609089E+02  0.53167590690E+02  0.79062401980E+02  0.00000000000E+00 0.  1.
         14    1    5    5    0    0 -0.25805621616E+02 -0.90008127775E+02  0.69688296398E+02  0.11672125696E+03  0.00000000000E+00 0. -1.
         13    1    3    3    0    0 -0.36806803487E+02 -0.48737516456E+02 -0.23238702843E+03  0.24027862426E+03  0.00000000000E+00 0. -1.
        -14    1    3    3    0    0 -0.28050866475E+02 -0.20298019938E+02 -0.64977368883E+03  0.65069555663E+03  0.00000000000E+00 0.  1.
          5    1    4    4  501    0  0.59850616223E+02  0.54221444022E+02 -0.20021474035E+03  0.21592933082E+03  0.41800000000E+01 0.  1.
         -5    1    4    4    0  501 -0.12903734704E+02  0.14371882924E+03 -0.15212477024E+03  0.20971653814E+03  0.41800000000E+01 0.  1.
</event>
<event>
11    1  0.6930157E-009  0.1270815E+03  0.7561462E-02  0.1122908E+00
         22   -1    0    0    0    0  0.00000000000E+00  0.00000000000E+00  0.34492220343E+03  0.34492220343E+03  0.00000000000E+00 0. -1.
         22   -1    0    0    0    0 -0.00000000000E+00 -0.00000000000E+00 -0.17387721770E+03  0.17387721770E+03  0.00000000000E+00 0.  1.
         24    2    1    2    0    0 -0.10771475129E+02 -0.19658566377E+02 -0.11172603031E+03  0.14037720181E+03  0.81979076772E+02 0.  0.
         25    2    1    2    0    0  0.14731539332E+02  0.17561601788E+02  0.58595013595E+02  0.14001909604E+03  0.12508614443E+03 0.  0.
        -24    2    1    2    0    0 -0.39600642030E+01  0.20969645893E+01  0.22417600246E+03  0.23840312328E+03  0.81000553982E+02 0.  0.
        -11    1    3    3    0    0 -0.33100369181E+02  0.10868526728E+02 -0.90572256814E+02  0.97041707619E+02  0.00000000000E+00 0.  1.
         12    1    3    3    0    0  0.22328894053E+02 -0.30527093105E+02 -0.21153773500E+02  0.43335494186E+02  0.00000000000E+00 0. -1.
         13    1    5    5    0    0 -0.14171767279E+02 -0.28918280254E+01  0.22636706740E+03  0.22682868174E+03  0.00000000000E+00 0. -1.
        -14    1    5    5    0    0  0.10211703076E+02  0.49887926147E+01 -0.21910649427E+01  0.11574441544E+02  0.00000000000E+00 0.  1.
          5    1    4    4  501    0  0.57952086994E+02 -0.21904021037E+02  0.81273132999E+01  0.62623926306E+02  0.41800000000E+01 0. -1.
         -5    1    4    4    0  501 -0.43220547662E+02  0.39465622825E+02  0.50467700295E+02  0.77395169735E+02  0.41800000000E+01 0. -1.
</event>
<event>
11    1  0.6930157E-009  0.1576175E+03  0.7561462E-02  0.1089340E+00
         22   -1    0    0    0    0  0.00000000000E+00  0.00000000000E+00  0.92174068686E+03  0.92174068686E+03  0.00000000000E+00 0. -1.
         22   -1    0    0    0    0 -0.00000000000E+00 -0.00000000000E+00 -0.10338895992E+04  0.10338895992E+04  0.00000000000E+00 0. -1.
         24    2    1    2    0    0 -0.89783967544E+02 -0.28023116744E+02 -0.94619268781E+03  0.95416466809E+03  0.79392414372E+02 0.  0.
         25    2    1    2    0    0  0.16741594076E+03 -0.12458334524E+01  0.58674509706E+02  0.21706711795E+03  0.12508311750E+03 0.  0.
        -24    2    1    2    0    0 -0.77631973220E+02  0.29268950196E+02  0.77536926579E+03  0.78439850000E+03  0.84853484111E+02 0.  0.
        -13    1    3    3    0    0 -0.43881941084E+02 -0.42761399465E+02 -0.30097364860E+03  0.30714703187E+03  0.00000000000E+00 0.  1.
         14    1    3    3    0    0 -0.45902026460E+02  0.14738282722E+02 -0.64521903922E+03  0.64701763622E+03  0.00000000000E+00 0. -1.
         13    1    5    5    0    0 -0.53271331211E+02  0.16442982253E+02  0.72376995668E+03  0.72591401460E+03  0.00000000000E+00 0. -1.
        -14    1    5    5    0    0 -0.24360642009E+02  0.12825967943E+02  0.51599309103E+02  0.58484485402E+02  0.00000000000E+00 0.  1.
          5    1    4    4  501    0  0.12877081771E+03  0.54485675427E+02  0.28691746188E+02  0.14279811280E+03  0.41800000000E+01 0.  1.
         -5    1    4    4    0  501  0.38645123055E+02 -0.55731508880E+02  0.29982763518E+02  0.74269005151E+02  0.41800000000E+01 0.  1.
</event>
<event>
11    1  0.6930157E-009  0.1355749E+03  0.7561462E-02  0.1112603E+00
         22   -1    0    0    0    0  0.00000000000E+00  0.00000000000E+00  0.40208322382E+03  0.40208322382E+03  0.00000000000E+00 0.  1.
         22   -1    0    0    0    0 -0.00000000000E+00 -0.00000000000E+00 -0.91325411485E+03  0.91325411485E+03  0.00000000000E+00 0.  1.
         24    2    1    2    0    0 -0.48817242708E+02 -0.20342175492E+02 -0.71528037768E+03  0.72187358761E+03  0.81722276696E+02 0.  0.
         25    2    1    2    0    0  0.22688189648E+02  0.62180210885E+02 -0.16215176274E+03  0.21522557562E+03  0.12509085366E+03 0.  0.
        -24    2    1    2    0    0  0.26129053060E+02 -0.41838035394E+02  0.36626124939E+03  0.37823817544E+03  0.80521214205E+02 0.  0.
        -11    1    3    3    0    0 -0.48783585157E+02  0.18713919071E+02 -0.27914241278E+03  0.28399037935E+03  0.00000000000E+00 0.  1.
         12    1    3    3    0    0 -0.33657551290E-01 -0.39056094562E+02 -0.43613796490E+03  0.43788320826E+03  0.00000000000E+00 0. -1.
         11    1    5    5    0    0  0.19196287155E+02  0.20297180215E+02  0.68383874421E+02  0.73870340773E+02  0.00000000000E+00 0. -1.
        -12    1    5    5    0    0  0.69327659054E+01 -0.62135215609E+02  0.29787737497E+03  0.30436783466E+03  0.00000000000E+00 0.  1.
          5    1    4    4  501    0 -0.38770182331E+02  0.36476282609E+02 -0.13120192239E+03  0.14165120215E+03  0.41800000000E+01 0. -1.
         -5    1    4    4    0  501  0.61458371979E+02  0.25703928276E+02 -0.30949840349E+02  0.73574373479E+02  0.41800000000E+01 0. -1.
</event>
<event>
11    1  0.6930157E-009  0.1458136E+03  0.7561462E-02  0.1101235E+00
         22   -1    0    0    0    0  0.00000000000E+00  0.00000000000E+00  0.14600486016E+04  0.14600486016E+04  0.00000000000E+00 0.  1.
         22   -1    0    0    0    0 -0.00000000000E+00 -0.00000000000E+00 -0.10817019480E+03  0.10817019480E+03  0.00000000000E+00 0. -1.
        -24    2    1    2    0    0 -0.76611386686E+02 -0.14379914767E+02 -0.63579159927E+02  0.12821842766E+03  0.79508295761E+02 0.  0.
         25    2    1    2    0    0  0.34078614708E+02 -0.40112085711E+02  0.50426889830E+03  0.52221175280E+03  0.12509061345E+03 0.  0.
         24    2    1    2    0    0  0.42532771977E+02  0.54492000477E+02  0.91118866847E+03  0.91778861598E+03  0.85397536716E+02 0.  0.
        -13    1    5    5    0    0  0.23543969916E+02  0.52329781654E+02  0.87485786250E+03  0.87673770544E+03  0.00000000000E+00 0.  1.
         14    1    5    5    0    0  0.18988802062E+02  0.21622188229E+01  0.36330805970E+02  0.41050910543E+02  0.00000000000E+00 0. -1.
         11    1    3    3    0    0  0.16399804950E+00 -0.13841264764E+02 -0.47895474516E+02  0.49855631424E+02  0.00000000000E+00 0. -1.
        -12    1    3    3    0    0 -0.76775384735E+02 -0.53865000238E+00 -0.15683685411E+02  0.78362796231E+02  0.00000000000E+00 0.  1.
          5    1    4    4  501    0  0.50981740198E+02 -0.58224599912E+01  0.73542827657E+02  0.89772260602E+02  0.41800000000E+01 0. -1.
         -5    1    4    4    0  501 -0.16903125489E+02 -0.34289625719E+02  0.43072607064E+03  0.43243949220E+03  0.41800000000E+01 0. -1.
</event>
<event>
11    1  0.6930157E-009  0.1351224E+03  0.7561462E-02  0.1113131E+00
         22   -1    0    0    0    0  0.00000000000E+00  0.00000000000E+00  0.43035423878E+03  0.43035423878E+03  0.00000000000E+00 0. -1.
         22   -1    0    0    0    0 -0.00000000000E+00 -0.00000000000E+00 -0.16752450693E+03  0.16752450693E+03  0.00000000000E+00 0.  1.
         24    2    1    2    0    0  0.98286581533E+00 -0.50992918662E+02 -0.46992958478E+02  0.10663880929E+03  0.81007738648E+02 0.  0.
         25    2    1    2    0    0 -0.43327783593E+02  0.18529510573E+02 -0.30182290614E+02  0.13703776202E+03  0.12509091878E+03 0.  0.
        -24    2    1    2    0    0  0.42344917778E+02  0.32463408088E+02  0.34000498094E+03  0.35420217440E+03  0.83718745550E+02 0.  0.
        -11    1    3    3    0    0 -0.20979652481E+02 -0.57144945730E+02 -0.55420940623E+02  0.82323576819E+02  0.00000000000E+00 0.  1.
         12    1    3    3    0    0  0.21962518296E+02  0.61520270681E+01  0.84279821457E+01  0.24315232468E+02  0.00000000000E+00 0. -1.
         11    1    5    5    0    0  0.21429403845E+02  0.53670066943E+02  0.29233064089E+03  0.29798808540E+03  0.00000000000E+00 0. -1.
        -12    1    5    5    0    0  0.20915513933E+02 -0.21206658855E+02  0.47674340050E+02  0.56214089000E+02  0.00000000000E+00 0.  1.
          5    1    4    4  501    0 -0.52156543976E+02  0.63408723070E+00 -0.72881312502E+02  0.89721041335E+02  0.41800000000E+01 0.  1.
         -5    1    4    4    0  501  0.88287603831E+01  0.17895423343E+02  0.42699021889E+02  0.47316720689E+02  0.41800000000E+01 0.  1.
</event>
<event>
11    1  0.6930157E-009  0.1371488E+03  0.7561462E-02  0.1110785E+00
         22   -1    0    0    0    0  0.00000000000E+00  0.00000000000E+00  0.47679859659E+03  0.47679859659E+03  0.00000000000E+00 0.  1.
         22   -1    0    0    0    0 -0.00000000000E+00 -0.00000000000E+00 -0.12086679953E+04  0.12086679953E+04  0.00000000000E+00 0. -1.
        -24    2    1    2    0    0  0.45699647180E+02  0.12649165510E+02 -0.11049439678E+04  0.11089907056E+04  0.81919191625E+02 0.  0.
         25    2    1    2    0    0  0.61456042083E+01  0.15364867885E+02 -0.54189014235E+02  0.13732466536E+03  0.12509103419E+03 0.  0.
         24    2    1    2    0    0 -0.51845251389E+02 -0.28014033395E+02  0.42726358335E+03  0.43915122092E+03  0.82625111330E+02 0.  0.
        -11    1    5    5    0    0 -0.30457624272E+02 -0.10875168088E+02  0.39702544730E+03  0.39834048496E+03  0.00000000000E+00 0.  1.
         12    1    5    5    0    0 -0.21387627116E+02 -0.17138865307E+02  0.30238136045E+02  0.40810735955E+02  0.00000000000E+00 0. -1.
         11    1    3    3    0    0  0.48410103643E+02  0.18098449358E+02 -0.10998232275E+04  0.11010368858E+04  0.00000000000E+00 0. -1.
        -12    1    3    3    0    0 -0.27104564629E+01 -0.54492838480E+01 -0.51207402515E+01  0.79538198004E+01  0.00000000000E+00 0.  1.
          5    1    4    4  501    0 -0.57745490377E+02  0.16808593553E+02 -0.38008201587E+02  0.71268269686E+02  0.41800000000E+01 0.  1.
         -5    1    4    4    0  501  0.63891094586E+02 -0.14437256679E+01 -0.16180812648E+02  0.66056395672E+02  0.41800000000E+01 0.  1.
</event>
<event>
11    1  0.6930157E-009  0.1578963E+03  0.7561462E-02  0.1089073E+00
         22   -1    0    0    0    0  0.00000000000E+00  0.00000000000E+00  0.10624910581E+04  0.10624910581E+04  0.00000000000E+00 0. -1.
         22   -1    0    0    0    0 -0.00000000000E+00 -0.00000000000E+00 -0.14753321346E+03  0.14753321346E+03  0.00000000000E+00 0. -1.
        -24    2    1    2    0    0 -0.46459654794E+02 -0.35049526944E+02 -0.10034682983E+03  0.14130919956E+03  0.80695940180E+02 0.  0.
         25    2    1    2    0    0 -0.27799844519E+02  0.99256873801E+02  0.29027734946E+03  0.33246718748E+03  0.12509489514E+03 0.  0.
         24    2    1    2    0    0  0.74259499313E+02 -0.64207346857E+02  0.72502732499E+03  0.73624788450E+03  0.82214772509E+02 0.  0.
        -11    1    5    5    0    0  0.37061711878E+02  0.23570743341E+01  0.10159613468E+03  0.10817070245E+03  0.00000000000E+00 0.  1.
         12    1    5    5    0    0  0.37197787435E+02 -0.66564421191E+02  0.62343119031E+03  0.62807718205E+03  0.00000000000E+00 0. -1.
         11    1    3    3    0    0 -0.57777217998E+01 -0.40757051979E+02 -0.89967804554E+02  0.98937986696E+02  0.00000000000E+00 0. -1.
        -12    1    3    3    0    0 -0.40681932994E+02  0.57075250346E+01 -0.10379025278E+02  0.42371212868E+02  0.00000000000E+00 0.  1.
          5    1    4    4  501    0 -0.58771846616E+02  0.85503327543E+02  0.11950955570E+03  0.15831915639E+03  0.41800000000E+01 0. -1.
         -5    1    4    4    0  501  0.30972002098E+02  0.13753546258E+02  0.17076779375E+03  0.17414803109E+03  0.41800000000E+01 0. -1.
</event>
<event>
11    1  0.6930157E-009  0.1426077E+03  0.7561462E-02  0.1104681E+00
         22   -1    0    0    0    0  0.00000000000E+00  0.00000000000E+00  0.42475906260E+03  0.42475906260E+03  0.00000000000E+00 0.  1.
         22   -1    0    0    0    0 -0.00000000000E+00 -0.00000000000E+00 -0.11820489585E+04  0.11820489585E+04  0.00000000000E+00 0.  1.
        -24    2    1    2    0    0  0.44931292616E+02 -0.50702133943E+02 -0.10497788121E+04  0.10539490469E+04  0.64680071088E+02 0.  0.
         25    2    1    2    0    0 -0.79762495562E+02  0.42712187354E+02 -0.76996534035E+02  0.17251962741E+03  0.12509264143E+03 0.  0.
         24    2    1    2    0    0  0.34831202946E+02  0.79899465892E+01  0.36948545029E+03  0.38033934679E+03  0.82833983344E+02 0.  0.
        -11    1    5    5    0    0  0.29790432090E+02  0.26559277475E+02  0.35226105533E+03  0.35451476157E+03  0.00000000000E+00 0.  1.
         12    1    5    5    0    0  0.50407708557E+01 -0.18569330886E+02  0.17224394954E+02  0.25824585223E+02  0.00000000000E+00 0. -1.
         13    1    3    3    0    0 -0.48649537692E+01 -0.12648266887E+01 -0.60568802051E+01  0.78710456451E+01  0.00000000000E+00 0. -1.
        -14    1    3    3    0    0  0.49796246385E+02 -0.49437307254E+02 -0.10437219319E+04  0.10460780012E+04  0.00000000000E+00 0.  1.
          5    1    4    4  501    0 -0.77981642747E+02 -0.25165585972E+02 -0.62044755268E+02  0.10286625967E+03  0.41800000000E+01 0. -1.
         -5    1    4    4    0  501 -0.17808528148E+01  0.67877773326E+02 -0.14951778767E+02  0.69653367735E+02  0.41800000000E+01 0. -1.
</event>
<event>
11    1  0.6930157E-009  0.1749340E+03  0.7561462E-02  0.1073816E+00
         22   -1    0    0    0    0  0.00000000000E+00  0.00000000000E+00  0.19968913751E+04  0.19968913751E+04  0.00000000000E+00 0. -1.
         22   -1    0    0    0    0 -0.00000000000E+00 -0.00000000000E+00 -0.14782343217E+03  0.14782343217E+03  0.00000000000E+00 0. -1.
        -24    2    1    2    0    0  0.43878949075E+02 -0.10510359581E+02 -0.11770809997E+03  0.14949046889E+03  0.80351562900E+02 0.  0.
         25    2    1    2    0    0  0.10396525002E+03 -0.49737977882E+01  0.11307108465E+04  0.11423608672E+04  0.12509124949E+03 0.  0.
         24    2    1    2    0    0 -0.14784419909E+03  0.15484157369E+02  0.83606519647E+03  0.85286347122E+03  0.79204933330E+02 0.  0.
        -11    1    5    5    0    0 -0.79493283309E+01  0.21215574477E+02  0.21612100913E+03  0.21730527607E+03  0.00000000000E+00 0.  1.
         12    1    5    5    0    0 -0.13989487076E+03 -0.57314171075E+01  0.61994418734E+03  0.63555819515E+03  0.00000000000E+00 0. -1.
         13    1    3    3    0    0 -0.37873534039E+01 -0.36937699466E+02 -0.55607391078E+02  0.66864935730E+02  0.00000000000E+00 0. -1.
        -14    1    3    3    0    0  0.47666302479E+02  0.26427339885E+02 -0.62100708891E+02  0.82625533161E+02  0.00000000000E+00 0.  1.
          5    1    4    4  501    0  0.90052506806E+02  0.50773868902E+02  0.64503512098E+03  0.65328035287E+03  0.41800000000E+01 0. -1.
         -5    1    4    4    0  501  0.13912743212E+02 -0.55747666690E+02  0.48567572547E+03  0.48908051431E+03  0.41800000000E+01 0. -1.
</event>
<event>
11    1  0.6930157E-009  0.1271521E+03  0.7561462E-02  0.1122818E+00
         22   -1    0    0    0    0  0.00000000000E+00  0.00000000000E+00  0.96449057295E+02  0.96449057295E+02  0.00000000000E+00 0. -1.
         22   -1    0    0    0    0 -0.00000000000E+00 -0.00000000000E+00 -0.59662109483E+03  0.59662109483E+03  0.00000000000E+00 0.  1.
        -24    2    1    2    0    0  0.83494327309E+01  0.33906047959E+01 -0.37205763593E+03  0.38082163819E+03  0.80728101836E+02 0.  0.
         25    2    1    2    0    0  0.22061161880E+01  0.17645931494E+02 -0.17602371947E+03  0.21667457616E+03  0.12508907343E+03 0.  0.
         24    2    1    2    0    0 -0.10555548919E+02 -0.21036536289E+02  0.47909317858E+02  0.95573937786E+02  0.79278744782E+02 0.  0.
        -13    1    5    5    0    0  0.13056974661E+02 -0.19845417786E+02 -0.15185877573E+02  0.28194610692E+02  0.00000000000E+00 0.  1.
         14    1    5    5    0    0 -0.23612523580E+02 -0.11911185033E+01  0.63095195431E+02  0.67379327094E+02  0.00000000000E+00 0. -1.
         11    1    3    3    0    0  0.17235272903E+02  0.39705813605E+02 -0.17722703433E+03  0.18243636689E+03  0.00000000000E+00 0. -1.
        -12    1    3    3    0    0 -0.88858401724E+01 -0.36315208809E+02 -0.19483060160E+03  0.19838527130E+03  0.00000000000E+00 0.  1.
          5    1    4    4  501    0  0.21674495543E+02 -0.16250459657E+02  0.79559308832E+01  0.28541731418E+02  0.41800000000E+01 0. -1.
         -5    1    4    4    0  501 -0.19468379355E+02  0.33896391151E+02 -0.18397965035E+03  0.18813284474E+03  0.41800000000E+01 0. -1.
</event>
<event>
11    1  0.6930157E-009  0.1327410E+03  0.7561462E-02  0.1115946E+00
         22   -1    0    0    0    0  0.00000000000E+00  0.00000000000E+00  0.23152503738E+03  0.23152503738E+03  0.00000000000E+00 0. -1.
         22   -1    0    0    0    0 -0.00000000000E+00 -0.00000000000E+00 -0.23181122763E+04  0.23181122763E+04  0.00000000000E+00 0.  1.
         24    2    1    2    0    0 -0.51067380272E+01 -0.19201387926E+02 -0.21781510959E+04  0.21797517297E+04  0.81121109545E+02 0.  0.
         25    2    1    2    0    0  0.17610145264E+02 -0.24824019954E+02 -0.95660868609E+02  0.16039168080E+03  0.12509252697E+03 0.  0.
        -24    2    1    2    0    0 -0.12503407236E+02  0.44025407880E+02  0.18722472557E+03  0.20949390322E+03  0.82097660690E+02 0.  0.
        -11    1    3    3    0    0 -0.22936632016E+00 -0.15165867612E+02 -0.21659770526E+04  0.21660301588E+04  0.00000000000E+00 0.  1.
         12    1    3    3    0    0 -0.48773717070E+01 -0.40355203144E+01 -0.12174043268E+02  0.13721570918E+02  0.00000000000E+00 0. -1.
         13    1    5    5    0    0 -0.25910725667E+02  0.62474989872E+02  0.16163937357E+03  0.17521922598E+03  0.00000000000E+00 0. -1.
        -14    1    5    5    0    0  0.13407318430E+02 -0.18449581991E+02  0.25585351992E+02  0.34274677237E+02  0.00000000000E+00 0.  1.
          5    1    4    4  501    0 -0.43975254110E+02 -0.30607981892E+02 -0.80122397892E+02  0.96476642632E+02  0.41800000000E+01 0.  1.
         -5    1    4    4    0  501  0.61585399374E+02  0.57839619383E+01 -0.15538470717E+02  0.63915038167E+02  0.41800000000E+01 0.  1.
</event>
<event>
11    1  0.6930157E-009  0.1266091E+03  0.7561462E-02  0.1123507E+00
         22   -1    0    0    0    0  0.00000000000E+00  0.00000000000E+00  0.48303559241E+03  0.48303559241E+03  0.00000000000E+00 0.  1.
         22   -1    0    0    0    0 -0.00000000000E+00 -0.00000000000E+00 -0.49317249954E+03  0.49317249954E+03  0.00000000000E+00 0.  1.
        -24    2    1    2    0    0  0.21770454471E+01 -0.19636387649E+02 -0.45705872003E+03  0.46450206147E+03  0.80431115283E+02 0.  0.
         25    2    1    2    0    0 -0.44305402798E+01  0.11246161116E+02  0.11520761436E+03  0.17048902261E+03  0.12509039370E+03 0.  0.
         24    2    1    2    0    0  0.22534948326E+01  0.83902265335E+01  0.33171419853E+03  0.34121700787E+03  0.79493791047E+02 0.  0.
        -11    1    5    5    0    0  0.29203365448E+02 -0.22547646142E+02  0.11923907120E+03  0.12481662149E+03  0.00000000000E+00 0.  1.
         12    1    5    5    0    0 -0.26949870616E+02  0.30937872675E+02  0.21247512733E+03  0.21640038638E+03  0.00000000000E+00 0. -1.
         11    1    3    3    0    0 -0.22124240018E+01 -0.50971768358E+02 -0.29596692783E+03  0.30033221332E+03  0.00000000000E+00 0. -1.
        -12    1    3    3    0    0  0.43894694490E+01  0.31335380708E+02 -0.16109179220E+03  0.16416984814E+03  0.00000000000E+00 0.  1.
          5    1    4    4  501    0 -0.12809022122E+02  0.20030455035E+01  0.14093542378E+03  0.14159219369E+03  0.41800000000E+01 0. -1.
         -5    1    4    4    0  501  0.83784818419E+01  0.92431156124E+01 -0.25727809416E+02  0.28896828919E+02  0.41800000000E+01 0. -1.
</event>
<event>
11    1  0.6930157E-009  0.1296399E+03  0.7561462E-02  0.1119712E+00
         22   -1    0    0    0    0  0.00000000000E+00  0.00000000000E+00  0.56702931796E+03  0.56702931796E+03  0.00000000000E+00 0. -1.
         22   -1    0    0    0    0 -0.00000000000E+00 -0.00000000000E+00 -0.24407726691E+03  0.24407726691E+03  0.00000000000E+00 0. -1.
         24    2    1    2    0    0  0.20770643857E+02 -0.10681281056E+00 -0.21145769619E+03  0.22714051706E+03  0.80293375561E+02 0.  0.
         25    2    1    2    0    0 -0.50064896669E+02 -0.27093342783E+01  0.21666430708E+03  0.25515601144E+03  0.12508930347E+03 0.  0.
        -24    2    1    2    0    0  0.29294252812E+02  0.28161470888E+01  0.31774544016E+03  0.32881005637E+03  0.79295677662E+02 0.  0.
        -11    1    3    3    0    0 -0.18060600399E+02 -0.10947743537E+02 -0.13379354627E+02  0.25000910095E+02  0.00000000000E+00 0.  1.
         12    1    3    3    0    0  0.38831244256E+02  0.10840930727E+02 -0.19807834156E+03  0.20213960696E+03  0.00000000000E+00 0. -1.
         11    1    5    5    0    0  0.24188440163E+02 -0.23315808570E+01  0.32022626216E+03  0.32114696929E+03  0.00000000000E+00 0. -1.
        -12    1    5    5    0    0  0.51058126489E+01  0.51477279458E+01 -0.24808220007E+01  0.76630870809E+01  0.00000000000E+00 0.  1.
          5    1    4    4  501    0 -0.88496066745E+02  0.16203022173E+02  0.16439495525E+03  0.18744936774E+03  0.41800000000E+01 0.  1.
         -5    1    4    4    0  501  0.38431170076E+02 -0.18912356452E+02  0.52269351833E+02  0.67706643700E+02  0.41800000000E+01 0.  1.
</event>
<event>
11    1  0.6930157E-009  0.1295855E+03  0.7561462E-02  0.1119779E+00
         22   -1    0    0    0    0  0.00000000000E+00  0.00000000000E+00  0.26170971218E+03  0.26170971218E+03  0.00000000000E+00 0.  1.
         22   -1    0    0    0    0 -0.00000000000E+00 -0.00000000000E+00 -0.49500864483E+03  0.49500864483E+03  0.00000000000E+00 0. -1.
         24    2    1    2    0    0  0.60217244011E+01 -0.15202209670E+02 -0.42899668787E+03  0.43648266023E+03  0.78813616470E+02 0.  0.
         25    2    1    2    0    0 -0.36168697779E+02  0.25795149514E+02  0.33605528060E+02  0.13692979978E+03  0.12508746585E+03 0.  0.
        -24    2    1    2    0    0  0.30146973378E+02 -0.10592939844E+02  0.16209222716E+03  0.18330589700E+03  0.79411028140E+02 0.  0.
        -13    1    3    3    0    0 -0.29182200646E+02  0.50145115046E+01 -0.83213542124E+02  0.88324627103E+02  0.00000000000E+00 0.  1.
         14    1    3    3    0    0  0.35203925047E+02 -0.20216721175E+02 -0.34578314574E+03  0.34815803313E+03  0.00000000000E+00 0. -1.
         11    1    5    5    0    0 -0.93523292246E+01  0.32293034267E+01 -0.49769186851E+01  0.11075386320E+02  0.00000000000E+00 0. -1.
        -12    1    5    5    0    0  0.39499302603E+02 -0.13822243270E+02  0.16706914584E+03  0.17223051067E+03  0.00000000000E+00 0.  1.
          5    1    4    4  501    0  0.21996692264E+02 -0.39327033719E+02  0.93359776122E+01  0.46207174007E+02  0.41800000000E+01 0. -1.
         -5    1    4    4    0  501 -0.58165390044E+02  0.65122183234E+02  0.24269550448E+02  0.90722625772E+02  0.41800000000E+01 0. -1.
</event>
<event>
11    1  0.6930157E-009  0.1381992E+03  0.7561462E-02  0.1109586E+00
         22   -1    0    0    0    0  0.00000000000E+00  0.00000000000E+00  0.80001968421E+03  0.80001968421E+03  0.00000000000E+00 0.  1.
         22   -1    0    0    0    0 -0.00000000000E+00 -0.00000000000E+00 -0.47437653983E+03  0.47437653983E+03  0.00000000000E+00 0. -1.
        -24    2    1    2    0    0  0.15785017428E+02 -0.55236358941E+02 -0.39089189978E+03  0.40361615951E+03  0.82518511765E+02 0.  0.
         25    2    1    2    0    0  0.19680488415E+02  0.82200524199E+02  0.25434506282E+01  0.15098211260E+03  0.12507950025E+03 0.  0.
         24    2    1    2    0    0 -0.35465505843E+02 -0.26964165258E+02  0.71399159353E+03  0.71979795193E+03  0.79625546472E+02 0.  0.
        -11    1    5    5    0    0 -0.44988654070E+01 -0.51067351380E+02  0.35845899975E+03  0.36210629471E+03  0.00000000000E+00 0.  1.
         12    1    5    5    0    0 -0.30966640436E+02  0.24103186122E+02  0.35553259378E+03  0.35769165722E+03  0.00000000000E+00 0. -1.
         13    1    3    3    0    0  0.37029118793E+02 -0.60234791934E+02 -0.35189046873E+03  0.35892379104E+03  0.00000000000E+00 0. -1.
        -14    1    3    3    0    0 -0.21244101365E+02  0.49984329931E+01 -0.39001431051E+02  0.44692368467E+02  0.00000000000E+00 0.  1.
          5    1    4    4  501    0  0.31711323611E+02  0.10759581195E+03  0.24722653375E+02  0.11493976154E+03  0.41800000000E+01 0.  1.
         -5    1    4    4    0  501 -0.12030835196E+02 -0.25395287750E+02 -0.22179202747E+02  0.36042351059E+02  0.41800000000E+01 0.  1.
</event>
<event>
11    1  0.6930157E-009  0.1651806E+03  0.7561462E-02  0.1082303E+00
         22   -1    0    0    0    0  0.00000000000E+00  0.00000000000E+00  0.10884008663E+04  0.10884008663E+04  0.00000000000E+00 0. -1.
         22   -1    0    0    0    0 -0.00000000000E+00 -0.00000000000E+00 -0.98814973058E+03  0.98814973058E+03  0.00000000000E+00 0.  1.
        -24    2    1    2    0    0 -0.22567685826E+02  0.42425760779E+02 -0.71664459583E+03  0.72277224308E+03  0.80690724393E+02 0.  0.
         25    2    1    2    0    0  0.93756724261E+02 -0.12252435121E+03 -0.22702576702E+03  0.30164647500E+03  0.12508939605E+03 0.  0.
         24    2    1    2    0    0 -0.71189038435E+02  0.80098590433E+02  0.10439214986E+04  0.10521318788E+04  0.75668565749E+02 0.  0.
        -13    1    5    5    0    0 -0.26813524644E+02  0.69598458509E+02  0.42196875009E+03  0.42850966918E+03  0.00000000000E+00 0.  1.
         14    1    5    5    0    0 -0.44375513792E+02  0.10500131923E+02  0.62195274846E+03  0.62362220961E+03  0.00000000000E+00 0. -1.
         13    1    3    3    0    0 -0.35860750193E+02 -0.70527305716E+00 -0.14583076754E+03  0.15017690760E+03  0.00000000000E+00 0. -1.
        -14    1    3    3    0    0  0.13293064367E+02  0.43131033837E+02 -0.57081382829E+03  0.57259533548E+03  0.00000000000E+00 0.  1.
          5    1    4    4  501    0  0.48859221800E+02 -0.48618108043E+02 -0.12321783872E+02  0.70144441992E+02  0.41800000000E+01 0. -1.
         -5    1    4    4    0  501  0.44897502461E+02 -0.73906243169E+02 -0.21470398315E+03  0.23150203301E+03  0.41800000000E+01 0. -1.
</event>
<event>
11    1  0.6930157E-009  0.1825934E+03  0.7561462E-02  0.1067564E+00
         22   -1    0    0    0    0  0.00000000000E+00  0.00000000000E+00  0.19894838641E+04  0.19894838641E+04  0.00000000000E+00 0.  1.
         22   -1    0    0    0    0 -0.00000000000E+00 -0.00000000000E+00 -0.35035469746E+04  0.35035469746E+04  0.00000000000E+00 0.  1.
        -24    2    1    2    0    0 -0.12771994922E+03 -0.12105101967E+02 -0.28374843104E+04  0.28415107490E+04  0.80045022579E+02 0.  0.
         25    2    1    2    0    0  0.17334324737E+03  0.12322433692E+02 -0.64566969234E+03  0.68024382469E+03  0.12507032280E+03 0.  0.
         24    2    1    2    0    0 -0.45623298148E+02 -0.21733172497E+00  0.19690908922E+04  0.19712762650E+04  0.80806178616E+02 0.  0.
        -13    1    5    5    0    0 -0.13050178862E+02  0.10985211692E+02  0.16875261362E+04  0.16876123496E+04  0.00000000000E+00 0.  1.
         14    1    5    5    0    0 -0.32573119287E+02 -0.11202543417E+02  0.28156475601E+03  0.28366391541E+03  0.00000000000E+00 0. -1.
         11    1    3    3    0    0 -0.30666790766E+02  0.10385965281E+02 -0.24720907951E+03  0.24932037486E+03  0.00000000000E+00 0. -1.
        -12    1    3    3    0    0 -0.97053158453E+02 -0.22491067249E+02 -0.25902752309E+04  0.25921903741E+04  0.00000000000E+00 0.  1.
          5    1    4    4  501    0  0.99493963430E+02 -0.26412440851E+02 -0.51479463309E+03  0.52500252613E+03  0.41800000000E+01 0.  1.
         -5    1    4    4    0  501  0.73849283937E+02  0.38734874543E+02 -0.13087505925E+03  0.15524129856E+03  0.41800000000E+01 0.  1.
</event>
<event>
11    1  0.6930157E-009  0.1407837E+03  0.7561462E-02  0.1106686E+00
         22   -1    0    0    0    0  0.00000000000E+00  0.00000000000E+00  0.99887778126E+03  0.99887778126E+03  0.00000000000E+00 0.  1.
         22   -1    0    0    0    0 -0.00000000000E+00 -0.00000000000E+00 -0.38583618137E+03  0.38583618137E+03  0.00000000000E+00 0.  1.
        -24    2    1    2    0    0  0.47196999822E+01 -0.90785953537E+00 -0.32740668337E+03  0.33740900896E+03  0.81403950990E+02 0.  0.
         25    2    1    2    0    0 -0.68394370389E+02  0.98135560268E+01  0.51499946989E+02  0.15190542941E+03  0.12509564005E+03 0.  0.
         24    2    1    2    0    0  0.63674670407E+02 -0.89056964914E+01  0.88894833627E+03  0.89539952426E+03  0.85891724954E+02 0.  0.
        -11    1    5    5    0    0  0.39831766138E+01 -0.14566493538E+02  0.60505641686E+03  0.60524483972E+03  0.00000000000E+00 0.  1.
         12    1    5    5    0    0  0.59691493793E+02  0.56607970467E+01  0.28389191941E+03  0.29015468454E+03  0.00000000000E+00 0. -1.
         13    1    3    3    0    0  0.29150217955E+02 -0.31143179731E+02 -0.17470643166E+03  0.17983873363E+03  0.00000000000E+00 0. -1.
        -14    1    3    3    0    0 -0.24430517973E+02  0.30235320196E+02 -0.15270025171E+03  0.15757027533E+03  0.00000000000E+00 0.  1.
          5    1    4    4  501    0 -0.80872350604E+02 -0.15128568082E+02 -0.11215504222E+02  0.83141268931E+02  0.41800000000E+01 0.  1.
         -5    1    4    4    0  501  0.12477980215E+02  0.24942124109E+02  0.62715451212E+02  0.68764160476E+02  0.41800000000E+01 0.  1.
</event>
<event>
11    1  0.6930157E-009  0.1528209E+03  0.7561462E-02  0.1094031E+00
         22   -1    0    0    0    0  0.00000000000E+00  0.00000000000E+00  0.19608767178E+03  0.19608767178E+03  0.00000000000E+00 0. -1.
         22   -1    0    0    0    0 -0.00000000000E+00 -0.00000000000E+00 -0.11576250711E+04  0.11576250711E+04  0.00000000000E+00 0. -1.
        -24    2    1    2    0    0 -0.92034027837E+01 -0.29093223700E+01 -0.10601337230E+04  0.10632809805E+04  0.81177375380E+02 0.  0.
         25    2    1    2    0    0 -0.81084969210E+02 -0.16355367205E+02  0.60324291408E+02  0.16164375706E+03  0.12508962305E+03 0.  0.
         24    2    1    2    0    0  0.90288371994E+02  0.19264689575E+02  0.38272032195E+02  0.12878800530E+03  0.81231049976E+02 0.  0.
        -11    1    5    5    0    0  0.46454334898E+02 -0.31325033191E+02  0.17842925711E+02  0.58801640565E+02  0.00000000000E+00 0.  1.
         12    1    5    5    0    0  0.43834037095E+02  0.50589722766E+02  0.20429106484E+02  0.69986364739E+02  0.00000000000E+00 0. -1.
         11    1    3    3    0    0  0.12912529911E+02 -0.19004088603E+02 -0.93094160033E+03  0.93122508130E+03  0.00000000000E+00 0. -1.
        -12    1    3    3    0    0 -0.22115932694E+02  0.16094766233E+02 -0.12919212262E+03  0.13205589925E+03  0.00000000000E+00 0.  1.
          5    1    4    4  501    0  0.29751024298E+02  0.87438199166E+01 -0.30838998509E+01  0.31441384699E+02  0.41800000000E+01 0.  1.
         -5    1    4    4    0  501 -0.11083599351E+03 -0.25099187121E+02  0.63408191259E+02  0.13020237237E+03  0.41800000000E+01 0.  1.
</event>
<event>
11    1  0.6930157E-009  0.1906634E+03  0.7561462E-02  0.1061330E+00
         22   -1    0    0    0    0  0.00000000000E+00  0.00000000000E+00  0.10679225838E+04  0.10679225838E+04  0.00000000000E+00 0. -1.
         22   -1    0    0    0    0 -0.00000000000E+00 -0.00000000000E+00 -0.76218151566E+03  0.76218151566E+03  0.00000000000E+00 0. -1.
         24    2    1    2    0    0 -0.13728823135E+03 -0.43949909418E+01 -0.52658034919E+03  0.55012258226E+03  0.80502279116E+02 0.  0.
         25    2    1    2    0    0  0.17192954957E+03  0.19037768678E+02 -0.16883417096E+03  0.27216691210E+03  0.12509054363E+03 0.  0.
        -24    2    1    2    0    0 -0.34641318227E+02 -0.14642777736E+02  0.10011555883E+04  0.10078146051E+04  0.10937702872E+03 0.  0.
        -13    1    3    3    0    0  0.30400970804E+00  0.12657061301E+02 -0.11762637306E+03  0.11830577865E+03  0.00000000000E+00 0.  1.
         14    1    3    3    0    0 -0.13759224105E+03 -0.17052052243E+02 -0.40895397614E+03  0.43181680361E+03  0.00000000000E+00 0. -1.
         11    1    5    5    0    0 -0.12437291924E+02 -0.57930530018E+02  0.72409339930E+03  0.72651351223E+03  0.00000000000E+00 0. -1.
        -12    1    5    5    0    0 -0.22204026303E+02  0.43287752282E+02  0.27706218904E+03  0.28130109292E+03  0.00000000000E+00 0.  1.
          5    1    4    4  501    0  0.16328947769E+03  0.51909177428E+02 -0.16465393739E+03  0.23766869319E+03  0.41800000000E+01 0.  1.
         -5    1    4    4    0  501  0.86400718841E+01 -0.32871408749E+02 -0.41802335720E+01  0.34498218911E+02  0.41800000000E+01 0.  1.
</event>
<event>
11    1  0.6930157E-009  0.1292544E+03  0.7561462E-02  0.1120189E+00
         22   -1    0    0    0    0  0.00000000000E+00  0.00000000000E+00  0.83838358017E+03  0.83838358017E+03  0.00000000000E+00 0. -1.
         22   -1    0    0    0    0 -0.00000000000E+00 -0.00000000000E+00 -0.11316434542E+03  0.11316434542E+03  0.00000000000E+00 0. -1.
        -24    2    1    2    0    0 -0.12740776081E+02  0.66914305107E+01 -0.51786160780E+02  0.98104587218E+02  0.82070707122E+02 0.  0.
         25    2    1    2    0    0  0.41123389127E+02  0.79246013034E+01  0.87484253826E+02  0.15828739662E+03  0.12508985899E+03 0.  0.
         24    2    1    2    0    0 -0.28382613046E+02 -0.14616031814E+02  0.68952114170E+03  0.69515594175E+03  0.82360047319E+02 0.  0.
        -13    1    5    5    0    0 -0.34311885909E+02 -0.13351713773E+02  0.11817511205E+03  0.12377774793E+03  0.00000000000E+00 0.  1.
         14    1    5    5    0    0  0.59292728632E+01 -0.12643180415E+01  0.57134602965E+03  0.57137819382E+03  0.00000000000E+00 0. -1.
         11    1    3    3    0    0 -0.35397320558E+01 -0.37241968450E+02 -0.31243292484E+02  0.48740509254E+02  0.00000000000E+00 0. -1.
        -12    1    3    3    0    0 -0.92010440252E+01  0.43933398961E+02 -0.20542868296E+02  0.49364077964E+02  0.00000000000E+00 0.  1.
          5    1    4    4  501    0 -0.29462776620E+02 -0.33301921292E+02  0.53425537849E+02  0.69633567066E+02  0.41800000000E+01 0. -1.
         -5    1    4    4    0  501  0.70586165747E+02  0.41226522596E+02  0.34058715977E+02  0.88653829552E+02  0.41800000000E+01 0. -1.
</event>
<event>
11    1  0.6930157E-009  0.1288593E+03  0.7561462E-02  0.1120679E+00
         22   -1    0    0    0    0  0.00000000000E+00  0.00000000000E+00  0.21364135502E+04  0.21364135502E+04  0.00000000000E+00 0.  1.
         22   -1    0    0    0    0 -0.00000000000E+00 -0.00000000000E+00 -0.13692115319E+03  0.13692115319E+03  0.00000000000E+00 0.  1.
        -24    2    1    2    0    0 -0.18439393754E+02 -0.16903885598E+02 -0.84311656668E+02  0.11882259217E+03  0.79903694337E+02 0.  0.
         25    2    1    2    0    0  0.31672212090E+02 -0.11286445477E+02  0.87673168719E+02  0.15641123758E+03  0.12508947941E+03 0.  0.
         24    2    1    2    0    0 -0.13232818335E+02  0.28190331074E+02  0.19961308850E+04  0.19981008736E+04  0.83058949547E+02 0.  0.
        -13    1    5    5    0    0  0.65954138675E+01  0.18951524583E+02  0.18685843438E+04  0.18686920853E+04  0.00000000000E+00 0.  1.
         14    1    5    5    0    0 -0.19828232203E+02  0.92388064919E+01  0.12754654119E+03  0.12940878836E+03  0.00000000000E+00 0. -1.
         13    1    3    3    0    0 -0.23390370029E+01  0.24759587621E+02 -0.17231889877E+01  0.24929453535E+02  0.00000000000E+00 0. -1.
        -14    1    3    3    0    0 -0.16100356751E+02 -0.41663473219E+02 -0.82588467680E+02  0.93893138631E+02  0.00000000000E+00 0.  1.
          5    1    4    4  501    0  0.75337840999E+02  0.39659609666E+01  0.27513461040E+02  0.80411330490E+02  0.41800000000E+01 0. -1.
         -5    1    4    4    0  501 -0.43665628909E+02 -0.15252406443E+02  0.60159707679E+02  0.75999907095E+02  0.41800000000E+01 0. -1.
</event>
<event>
11    1  0.6930157E-009  0.1399433E+03  0.7561462E-02  0.1107622E+00
         22   -1    0    0    0    0  0.00000000000E+00  0.00000000000E+00  0.15456181860E+03  0.15456181860E+03  0.00000000000E+00 0. -1.
         22   -1    0    0    0    0 -0.00000000000E+00 -0.00000000000E+00 -0.48196407428E+03  0.48196407428E+03  0.00000000000E+00 0.  1.
        -24    2    1    2    0    0  0.17898358974E+02 -0.30951588442E+02 -0.33140684967E+03  0.34292366066E+03  0.80546787320E+02 0.  0.
         25    2    1    2    0    0 -0.48073842277E+02 -0.27403045103E+02 -0.82576406731E+02  0.15977569663E+03  0.12508952431E+03 0.  0.
         24    2    1    2    0    0  0.30175483303E+02  0.58354633545E+02  0.86581000725E+02  0.13382653560E+03  0.78086163275E+02 0.  0.
        -13    1    5    5    0    0  0.52426053756E+02  0.17335202493E+02  0.43156552729E+02  0.70082011967E+02  0.00000000000E+00 0.  1.
         14    1    5    5    0    0 -0.22250570452E+02  0.41019431052E+02  0.43424447996E+02  0.63744523632E+02  0.00000000000E+00 0. -1.
         11    1    3    3    0    0 -0.10858814028E+01 -0.13876638196E+02 -0.39442610106E+01  0.14467115157E+02  0.00000000000E+00 0. -1.
        -12    1    3    3    0    0  0.18984240377E+02 -0.17074950246E+02 -0.32746258866E+03  0.32845654550E+03  0.00000000000E+00 0.  1.
          5    1    4    4  501    0  0.65260880190E+01 -0.33047098208E+02  0.22797323510E+02  0.40888762320E+02  0.41800000000E+01 0. -1.
         -5    1    4    4    0  501 -0.54599930296E+02  0.56440531053E+01 -0.10537373024E+03  0.11888693431E+03  0.41800000000E+01 0. -1.
</event>
<event>
11    1  0.6930157E-009  0.1513498E+03  0.7561462E-02  0.1095508E+00
         22   -1    0    0    0    0  0.00000000000E+00  0.00000000000E+00  0.14974561504E+04  0.14974561504E+04  0.00000000000E+00 0.  1.
         22   -1    0    0    0    0 -0.00000000000E+00 -0.00000000000E+00 -0.17459316279E+03  0.17459316279E+03  0.00000000000E+00 0.  1.
         24    2    1    2    0    0  0.69304541069E+02  0.47657085149E+02 -0.13707146152E+03  0.18088730882E+03  0.82808911048E+02 0.  0.
         25    2    1    2    0    0 -0.78069454852E+02 -0.82899521944E+02  0.51245548328E+03  0.53965290130E+03  0.12508981180E+03 0.  0.
        -24    2    1    2    0    0  0.87649137832E+01  0.35242436795E+02  0.94747896583E+03  0.95150910306E+03  0.79588500680E+02 0.  0.
        -13    1    3    3    0    0  0.74898975454E+02  0.10815554894E+02 -0.65027831934E+02  0.99777009766E+02  0.00000000000E+00 0.  1.
         14    1    3    3    0    0 -0.55944343852E+01  0.36841530254E+02 -0.72043629591E+02  0.81110299051E+02  0.00000000000E+00 0. -1.
         11    1    5    5    0    0 -0.39553293425E+01 -0.17317768130E+02  0.65264450372E+02  0.67638733027E+02  0.00000000000E+00 0. -1.
        -12    1    5    5    0    0  0.12720243126E+02  0.52560204925E+02  0.88221451546E+03  0.88387037003E+03  0.00000000000E+00 0.  1.
          5    1    4    4  501    0 -0.98914734927E+02 -0.37376194946E+02  0.23559417176E+03  0.25826960894E+03  0.41800000000E+01 0. -1.
         -5    1    4    4    0  501  0.20845280075E+02 -0.45523326997E+02  0.27686131152E+03  0.28138329236E+03  0.41800000000E+01 0. -1.
</event>
<event>
11    1  0.6930157E-009  0.1457866E+03  0.7561462E-02  0.1101263E+00
         22   -1    0    0    0    0  0.00000000000E+00  0.00000000000E+00  0.53633383045E+03  0.53633383045E+03  0.00000000000E+00 0.  1.
         22   -1    0    0    0    0 -0.00000000000E+00 -0.00000000000E+00 -0.25730087886E+03  0.25730087886E+03  0.00000000000E+00 0. -1.
        -24    2    1    2    0    0  0.65903799111E+02  0.35507702979E+02 -0.17554883160E+03  0.20807191551E+03  0.82900072617E+02 0.  0.
         25    2    1    2    0    0 -0.97946524269E+02  0.34258418028E+02  0.55717168819E+02  0.17181506212E+03  0.12509537100E+03 0.  0.
         24    2    1    2    0    0  0.32042725158E+02 -0.69766121007E+02  0.39886461438E+03  0.41374773169E+03  0.78741075674E+02 0.  0.
        -11    1    5    5    0    0  0.30622444700E+02 -0.82623735537E+02  0.26513570809E+03  0.27939463040E+03  0.00000000000E+00 0.  1.
         12    1    5    5    0    0  0.14202804585E+01  0.12857614530E+02  0.13372890629E+03  0.13435310129E+03  0.00000000000E+00 0. -1.
         13    1    3    3    0    0  0.84068890926E+02  0.35919103555E+02 -0.15943622939E+03  0.18378702801E+03  0.00000000000E+00 0. -1.
        -14    1    3    3    0    0 -0.18165091815E+02 -0.41140057640E+00 -0.16112602215E+02  0.24284887507E+02  0.00000000000E+00 0.  1.
          5    1    4    4  501    0  0.19374817197E+02  0.37648523443E+02  0.17999018234E+01  0.42585289778E+02  0.41800000000E+01 0.  1.
         -5    1    4    4    0  501 -0.11732134147E+03 -0.33901054152E+01  0.53917266996E+02  0.12922977234E+03  0.41800000000E+01 0.  1.
</event>
<event>
11    1  0.6930157E-009  0.2928742E+03  0.7561462E-02  0.1003253E+00
         22   -1    0    0    0    0  0.00000000000E+00  0.00000000000E+00  0.65204666198E+03  0.65204666198E+03  0.00000000000E+00 0.  1.
         22   -1    0    0    0    0 -0.00000000000E+00 -0.00000000000E+00 -0.52483740798E+03  0.52483740798E+03  0.00000000000E+00 0.  1.
        -24    2    1    2    0    0  0.25635146616E+03  0.10504329301E+03 -0.36797681088E+03  0.46757620150E+03  0.80438816823E+02 0.  0.
         25    2    1    2    0    0 -0.20363595284E+03 -0.95829897691E+02  0.61229029439E+02  0.26466552228E+03  0.12509146277E+03 0.  0.
         24    2    1    2    0    0 -0.52715513328E+02 -0.92133953227E+01  0.43395703544E+03  0.44464234618E+03  0.80773110696E+02 0.  0.
        -13    1    5    5    0    0 -0.14131779749E+02  0.29218631145E+02  0.26847446612E+03  0.27042924133E+03  0.00000000000E+00 0.  1.
         14    1    5    5    0    0 -0.38583733579E+02 -0.38432026468E+02  0.16548256932E+03  0.17421310486E+03  0.00000000000E+00 0. -1.
         13    1    3    3    0    0  0.85092231616E+01 -0.89368367983E+01 -0.35061157180E+02  0.37169324362E+02  0.00000000000E+00 0. -1.
        -14    1    3    3    0    0  0.24784224300E+03  0.11398012981E+03 -0.33291565370E+03  0.43040687714E+03  0.00000000000E+00 0.  1.
          5    1    4    4  501    0 -0.74098358748E+02 -0.17759348996E+02 -0.36452387052E+02  0.84570740612E+02  0.41800000000E+01 0. -1.
         -5    1    4    4    0  501 -0.12953759409E+03 -0.78070548695E+02  0.97681416491E+02  0.18009478167E+03  0.41800000000E+01 0. -1.
</event>
<event>
11    1  0.6930157E-009  0.1342751E+03  0.7561462E-02  0.1114125E+00
         22   -1    0    0    0    0  0.00000000000E+00  0.00000000000E+00  0.18199590888E+03  0.18199590888E+03  0.00000000000E+00 0. -1.
         22   -1    0    0    0    0 -0.00000000000E+00 -0.00000000000E+00 -0.71067737752E+03  0.71067737752E+03  0.00000000000E+00 0.  1.
         24    2    1    2    0    0  0.34644680683E+01  0.26740428572E+02 -0.63553163414E+03  0.63975362594E+03  0.68243614075E+02 0.  0.
         25    2    1    2    0    0  0.37334401688E+02 -0.43817900741E+02  0.76678403509E+02  0.15761110593E+03  0.12509123539E+03 0.  0.
        -24    2    1    2    0    0 -0.40798869757E+02  0.17077472169E+02  0.30171761992E+02  0.95308554533E+02  0.78849207456E+02 0.  0.
        -13    1    3    3    0    0  0.26175940117E+02 -0.76516091887E+01 -0.37415551236E+03  0.37514806996E+03  0.00000000000E+00 0.  1.
         14    1    3    3    0    0 -0.22711472048E+02  0.34392037760E+02 -0.26137612178E+03  0.26460555599E+03  0.00000000000E+00 0. -1.
         11    1    5    5    0    0 -0.40675524615E+02  0.17125934988E+02  0.54978598845E+02  0.70501363695E+02  0.00000000000E+00 0. -1.
        -12    1    5    5    0    0 -0.12334514142E+00 -0.48462818369E-01 -0.24806836852E+02  0.24807190838E+02  0.00000000000E+00 0.  1.
          5    1    4    4  501    0  0.78248417968E+02 -0.23755496837E+01  0.34877087828E+02  0.85804089682E+02  0.41800000000E+01 0.  1.
         -5    1    4    4    0  501 -0.40914016279E+02 -0.41442351057E+02  0.41801315681E+02  0.71807016244E+02  0.41800000000E+01 0.  1.
</event>
<event>
11    1  0.6930157E-009  0.1506227E+03  0.7561462E-02  0.1096244E+00
         22   -1    0    0    0    0  0.00000000000E+00  0.00000000000E+00  0.42952028429E+03  0.42952028429E+03  0.00000000000E+00 0.  1.
         22   -1    0    0    0    0 -0.00000000000E+00 -0.00000000000E+00 -0.63078030095E+03  0.63078030095E+03  0.00000000000E+00 0.  1.
        -24    2    1    2    0    0  0.86759218655E+02  0.89014193910E+01 -0.56174815841E+03  0.57399569741E+03  0.79395654006E+02 0.  0.
         25    2    1    2    0    0 -0.37887211704E+02 -0.27008030654E+02  0.24304061360E+02  0.13565701557E+03  0.12508902408E+03 0.  0.
         24    2    1    2    0    0 -0.48872006951E+02  0.18106611263E+02  0.33618408039E+03  0.35064787227E+03  0.84958060133E+02 0.  0.
        -13    1    5    5    0    0 -0.65026027513E+02  0.34978007334E+02  0.28459417861E+03  0.29401648211E+03  0.00000000000E+00 0.  1.
         14    1    5    5    0    0  0.16154020562E+02 -0.16871396071E+02  0.51589901783E+02  0.56631390162E+02  0.00000000000E+00 0. -1.
         11    1    3    3    0    0 -0.98929377783E+01 -0.15378456249E+02 -0.86859591754E+02  0.88763482436E+02  0.00000000000E+00 0. -1.
        -12    1    3    3    0    0  0.96652156433E+02  0.24279875640E+02 -0.47488856666E+03  0.48523221497E+03  0.00000000000E+00 0.  1.
          5    1    4    4  501    0  0.74958806469E+01 -0.70051801163E+02  0.91831527307E+01  0.71170540022E+02  0.41800000000E+01 0. -1.
         -5    1    4    4    0  501 -0.45383092351E+02  0.43043770509E+02  0.15120908629E+02  0.64486475549E+02  0.41800000000E+01 0. -1.
</event>
<event>
11    1  0.6930157E-009  0.1682419E+03  0.7561462E-02  0.1079572E+00
         22   -1    0    0    0    0  0.00000000000E+00  0.00000000000E+00  0.30407412859E+03  0.30407412859E+03  0.00000000000E+00 0. -1.
         22   -1    0    0    0    0 -0.00000000000E+00 -0.00000000000E+00 -0.10899022729E+04  0.10899022729E+04  0.00000000000E+00 0. -1.
        -24    2    1    2    0    0 -0.17838248063E+02 -0.16673107421E+02 -0.87296292491E+03  0.87705849677E+03  0.81062586214E+02 0.  0.
         25    2    1    2    0    0  0.78385645004E+02  0.10912025287E+03 -0.15395122917E+03  0.23958069975E+03  0.12508553793E+03 0.  0.
         24    2    1    2    0    0 -0.60547396941E+02 -0.92447145451E+02  0.24108600972E+03  0.27733720503E+03  0.81123358107E+02 0.  0.
        -13    1    5    5    0    0 -0.48635296202E+02 -0.38899034587E+02  0.54179256804E+02  0.82546464469E+02  0.00000000000E+00 0.  1.
         14    1    5    5    0    0 -0.11912100739E+02 -0.53548110863E+02  0.18690675292E+03  0.19479074056E+03  0.00000000000E+00 0. -1.
         13    1    3    3    0    0 -0.14727373356E+00  0.24817952362E+02 -0.59012111154E+03  0.59064276744E+03  0.00000000000E+00 0. -1.
        -14    1    3    3    0    0 -0.17690974330E+02 -0.41491059783E+02 -0.28284181337E+03  0.28641572932E+03  0.00000000000E+00 0.  1.
          5    1    4    4  501    0 -0.30301920474E+02  0.40783925415E+01 -0.15378485490E+02  0.34479122467E+02  0.41800000000E+01 0. -1.
         -5    1    4    4    0  501  0.10868756548E+03  0.10504186033E+03 -0.13857274368E+03  0.20510157728E+03  0.41800000000E+01 0. -1.
</event>
<event>
11    1  0.6930157E-009  0.1564238E+03  0.7561462E-02  0.1090490E+00
         22   -1    0    0    0    0  0.00000000000E+00  0.00000000000E+00  0.22760016773E+04  0.22760016773E+04  0.00000000000E+00 0. -1.
         22   -1    0    0    0    0 -0.00000000000E+00 -0.00000000000E+00 -0.49833697034E+03  0.49833697034E+03  0.00000000000E+00 0. -1.
         24    2    1    2    0    0 -0.87419249944E+02  0.32799710229E+02 -0.47183852637E+03  0.48673627808E+03  0.74583263384E+02 0.  0.
         25    2    1    2    0    0  0.11731880353E+03 -0.45561790295E+02  0.41880676494E+03  0.45484849128E+03  0.12509382582E+03 0.  0.
        -24    2    1    2    0    0 -0.29899553591E+02  0.12762080065E+02  0.18306964684E+04  0.18327538783E+04  0.80500714490E+02 0.  0.
        -13    1    3    3    0    0  0.24474956381E+00  0.91669709604E+01 -0.37231643060E+01  0.98972325115E+01  0.00000000000E+00 0.  1.
         14    1    3    3    0    0 -0.87663999508E+02  0.23632739269E+02 -0.46811536207E+03  0.47683904557E+03  0.00000000000E+00 0. -1.
         11    1    5    5    0    0  0.98851861309E+01 -0.28011567889E+02  0.67862051000E+03  0.67927031544E+03  0.00000000000E+00 0. -1.
        -12    1    5    5    0    0 -0.39784739722E+02  0.40773647955E+02  0.11520759584E+04  0.11534835629E+04  0.00000000000E+00 0.  1.
          5    1    4    4  501    0  0.10023432302E+03  0.19705338160E+02  0.31316973941E+03  0.32943584800E+03  0.41800000000E+01 0.  1.
         -5    1    4    4    0  501  0.17084480517E+02 -0.65267128454E+02  0.10563702553E+03  0.12541264328E+03  0.41800000000E+01 0.  1.
</event>
<event>
11    1  0.6930157E-009  0.1587714E+03  0.7561462E-02  0.1088239E+00
         22   -1    0    0    0    0  0.00000000000E+00  0.00000000000E+00  0.59009206947E+03  0.59009206947E+03  0.00000000000E+00 0. -1.
         22   -1    0    0    0    0 -0.00000000000E+00 -0.00000000000E+00 -0.23733775839E+03  0.23733775839E+03  0.00000000000E+00 0. -1.
        -24    2    1    2    0    0 -0.10454625573E+03 -0.35787696906E+02 -0.15565878718E+03  0.21105079228E+03  0.90011666236E+02 0.  0.
         25    2    1    2    0    0  0.32397785876E+02  0.54477722278E+02  0.56400423139E+02  0.15114830459E+03  0.12508942200E+03 0.  0.
         24    2    1    2    0    0  0.72148469855E+02 -0.18690025373E+02  0.45201267512E+03  0.46523073098E+03  0.81052179679E+02 0.  0.
        -13    1    5    5    0    0 -0.77983584595E+01 -0.42670941240E+01  0.37194066140E+01  0.96362063327E+01  0.00000000000E+00 0.  1.
         14    1    5    5    0    0  0.79946828315E+02 -0.14422931249E+02  0.44829326850E+03  0.45559452465E+03  0.00000000000E+00 0. -1.
         11    1    3    3    0    0 -0.11562833139E+03 -0.26187506430E+02 -0.15653308914E+03  0.19636268614E+03  0.00000000000E+00 0. -1.
        -12    1    3    3    0    0  0.11082075662E+02 -0.96001904757E+01  0.87430195296E+00  0.14688106142E+02  0.00000000000E+00 0.  1.
          5    1    4    4  501    0  0.46453441071E+02  0.80233924358E+02  0.72180770578E+02  0.11757100343E+03  0.41800000000E+01 0.  1.
         -5    1    4    4    0  501 -0.14055655194E+02 -0.25756202080E+02 -0.15780347439E+02  0.33577301169E+02  0.41800000000E+01 0.  1.
</event>
<event>
11    1  0.6930157E-009  0.1457100E+03  0.7561462E-02  0.1101345E+00
         22   -1    0    0    0    0  0.00000000000E+00  0.00000000000E+00  0.12224769133E+04  0.12224769133E+04  0.00000000000E+00 0.  1.
         22   -1    0    0    0    0 -0.00000000000E+00 -0.00000000000E+00 -0.66878770318E+03  0.66878770318E+03  0.00000000000E+00 0.  1.
         24    2    1    2    0    0  0.21458298395E+01  0.76583383467E+02 -0.63188144785E+03  0.64226806259E+03  0.85816553590E+02 0.  0.
         25    2    1    2    0    0 -0.25544641731E+02 -0.21923130640E+02  0.11313123058E+03  0.17198828369E+03  0.12509253381E+03 0.  0.
        -24    2    1    2    0    0  0.23398811892E+02 -0.54660252827E+02  0.10724394274E+04  0.10770082702E+04  0.79279512039E+02 0.  0.
        -13    1    3    3    0    0  0.33235988934E+02  0.44071576235E+02 -0.49759305033E+03  0.50064536204E+03  0.00000000000E+00 0.  1.
         14    1    3    3    0    0 -0.31090159094E+02  0.32511807232E+02 -0.13428839752E+03  0.14162270055E+03  0.00000000000E+00 0. -1.
         11    1    5    5    0    0 -0.38272026038E+01 -0.63286100132E+02  0.52332237505E+03  0.52714901705E+03  0.00000000000E+00 0. -1.
        -12    1    5    5    0    0  0.27226014495E+02  0.86258473050E+01  0.54911705234E+03  0.54985925315E+03  0.00000000000E+00 0.  1.
          5    1    4    4  501    0 -0.34605263113E+02  0.47532404267E+02  0.44701146691E+02  0.73976473328E+02  0.41800000000E+01 0. -1.
         -5    1    4    4    0  501  0.90606213815E+01 -0.69455534907E+02  0.68430083891E+02  0.98011810362E+02  0.41800000000E+01 0. -1.
</event>
<event>
11    1  0.6930157E-009  0.1398881E+03  0.7561462E-02  0.1107683E+00
         22   -1    0    0    0    0  0.00000000000E+00  0.00000000000E+00  0.36797867978E+03  0.36797867978E+03  0.00000000000E+00 0. -1.
         22   -1    0    0    0    0 -0.00000000000E+00 -0.00000000000E+00 -0.31171836496E+03  0.31171836496E+03  0.00000000000E+00 0. -1.
        -24    2    1    2    0    0 -0.93671843718E+01 -0.36520178977E+01 -0.23225008603E+03  0.24638482739E+03  0.81635159882E+02 0.  0.
         25    2    1    2    0    0 -0.51209332052E+02 -0.16913372787E+02  0.11405312188E+02  0.13669708895E+03  0.12509018792E+03 0.  0.
         24    2    1    2    0    0  0.60576516424E+02  0.20565390685E+02  0.27710508866E+03  0.29661512840E+03  0.84266568672E+02 0.  0.
        -13    1    5    5    0    0 -0.21793997511E+01  0.68162684514E+01 -0.40436545148E+01  0.82196375049E+01  0.00000000000E+00 0.  1.
         14    1    5    5    0    0  0.62755916175E+02  0.13749122234E+02  0.28114874318E+03  0.28839549089E+03  0.00000000000E+00 0. -1.
         13    1    3    3    0    0 -0.14408738554E+02  0.45094344480E+01 -0.23570541512E+03  0.23618846175E+03  0.00000000000E+00 0. -1.
        -14    1    3    3    0    0  0.50415541819E+01 -0.81614523457E+01  0.34553290982E+01  0.10196365634E+02  0.00000000000E+00 0.  1.
          5    1    4    4  501    0 -0.79503812223E+02 -0.47084771190E+02  0.19024409577E+02  0.94431098669E+02  0.41800000000E+01 0. -1.
         -5    1    4    4    0  501  0.28294480171E+02  0.30171398403E+02 -0.76190973884E+01  0.42265990285E+02  0.41800000000E+01 0. -1.
</event>
<event>
11    1  0.6930157E-009  0.1551028E+03  0.7561462E-02  0.1091776E+00
         22   -1    0    0    0    0  0.00000000000E+00  0.00000000000E+00  0.31684286954E+03  0.31684286954E+03  0.00000000000E+00 0.  1.
         22   -1    0    0    0    0 -0.00000000000E+00 -0.00000000000E+00 -0.66777613535E+03  0.66777613535E+03  0.00000000000E+00 0. -1.
         24    2    1    2    0    0 -0.38993301156E+02  0.29109500791E+02 -0.59957160206E+03  0.60682270733E+03  0.79873972999E+02 0.  0.
         25    2    1    2    0    0  0.36630066126E+02 -0.10996286057E+03  0.13084785512E+03  0.21494828845E+03  0.12509201842E+03 0.  0.
        -24    2    1    2    0    0  0.23632350296E+01  0.80853359777E+02  0.11779048114E+03  0.16284800911E+03  0.78115465553E+02 0.  0.
        -13    1    3    3    0    0 -0.77492614704E+00  0.33699414539E+02 -0.48056168107E+03  0.48174244194E+03  0.00000000000E+00 0.  1.
         14    1    3    3    0    0 -0.38218375009E+02 -0.45899137478E+01 -0.11900992098E+03  0.12508026539E+03  0.00000000000E+00 0. -1.
         13    1    5    5    0    0  0.27656572123E+02 -0.71563739966E-01  0.28183078549E+02  0.39486415632E+02  0.00000000000E+00 0. -1.
        -14    1    5    5    0    0 -0.25293337094E+02  0.80924923517E+02  0.89607402586E+02  0.12336159348E+03  0.00000000000E+00 0.  1.
          5    1    4    4  501    0 -0.17557798851E+02 -0.18367735381E+02  0.10115453874E+03  0.10438085606E+03  0.41800000000E+01 0. -1.
         -5    1    4    4    0  501  0.54187864977E+02 -0.91595125188E+02  0.29693316373E+02  0.11056743239E+03  0.41800000000E+01 0. -1.
</event>
<event>
11    1  0.6930157E-009  0.1565689E+03  0.7561462E-02  0.1090349E+00
         22   -1    0    0    0    0  0.00000000000E+00  0.00000000000E+00  0.11917378248E+04  0.11917378248E+04  0.00000000000E+00 0.  1.
         22   -1    0    0    0    0 -0.00000000000E+00 -0.00000000000E+00 -0.17787404403E+03  0.17787404403E+03  0.00000000000E+00 0. -1.
        -24    2    1    2    0    0 -0.12485730240E+02  0.91590590824E+02 -0.94962227728E+02  0.15563504720E+03  0.81607067312E+02 0.  0.
         25    2    1    2    0    0  0.47063638099E+02 -0.95144897388E+02  0.82051925460E+02  0.18342734126E+03  0.12508210711E+03 0.  0.
         24    2    1    2    0    0 -0.34577907860E+02  0.35543065643E+01  0.10267740831E+04  0.10305494804E+04  0.80987339020E+02 0.  0.
        -13    1    5    5    0    0 -0.30678794846E+01  0.24377934058E+02  0.81912721532E+03  0.81949563174E+03  0.00000000000E+00 0.  1.
         14    1    5    5    0    0 -0.31510028375E+02 -0.20823627494E+02  0.20764686773E+03  0.21105384865E+03  0.00000000000E+00 0. -1.
         11    1    3    3    0    0 -0.27110638902E+02  0.99814149827E+02 -0.67678587883E+02  0.12360518802E+03  0.00000000000E+00 0. -1.
        -12    1    3    3    0    0  0.14624908662E+02 -0.82235590032E+01 -0.27283639845E+02  0.32029859182E+02  0.00000000000E+00 0.  1.
          5    1    4    4  501    0 -0.11528404468E+02 -0.94936292188E+02  0.79830157316E+02  0.12464401350E+03  0.41800000000E+01 0.  1.
         -5    1    4    4    0  501  0.58592042568E+02 -0.20860520013E+00  0.22217681435E+01  0.58783327756E+02  0.41800000000E+01 0.  1.
</event>
<event>
11    1  0.6930157E-009  0.1320051E+03  0.7561462E-02  0.1116830E+00
         22   -1    0    0    0    0  0.00000000000E+00  0.00000000000E+00  0.61844062759E+03  0.61844062759E+03  0.00000000000E+00 0. -1.
         22   -1    0    0    0    0 -0.00000000000E+00 -0.00000000000E+00 -0.76381036425E+03  0.76381036425E+03  0.00000000000E+00 0. -1.
         24    2    1    2    0    0 -0.23750136727E+02  0.16801483688E+02 -0.72865487494E+03  0.73378026453E+03  0.81542571711E+02 0.  0.
         25    2    1    2    0    0 -0.21755758885E+02 -0.15904113740E+02  0.11838535422E+03  0.17432428900E+03  0.12509041435E+03 0.  0.
        -24    2    1    2    0    0  0.45505895612E+02 -0.89736994720E+00  0.46489978405E+03  0.47414643831E+03  0.81310786151E+02 0.  0.
        -11    1    3    3    0    0 -0.29525561915E+01 -0.26306645808E+02 -0.10478457951E+03  0.10807666402E+03  0.00000000000E+00 0.  1.
         12    1    3    3    0    0 -0.20797580536E+02  0.43108129496E+02 -0.62387029543E+03  0.62570360052E+03  0.00000000000E+00 0. -1.
         13    1    5    5    0    0  0.79108687829E+01  0.12899972498E+02  0.37972976640E+03  0.38003116534E+03  0.00000000000E+00 0. -1.
        -14    1    5    5    0    0  0.37595026829E+02 -0.13797342446E+02  0.85170017652E+02  0.94115272978E+02  0.00000000000E+00 0.  1.
          5    1    4    4  501    0 -0.40715498348E+02 -0.43171935141E+02  0.92921503253E+01  0.60211163809E+02  0.41800000000E+01 0. -1.
         -5    1    4    4    0  501  0.18959739463E+02  0.27267821400E+02  0.10909320390E+03  0.11411312519E+03  0.41800000000E+01 0. -1.
</event>
<event>
11    1  0.6930157E-009  0.1682257E+03  0.7561462E-02  0.1079586E+00
         22   -1    0    0    0    0  0.00000000000E+00  0.00000000000E+00  0.22733041435E+03  0.22733041435E+03  0.00000000000E+00 0. -1.
         22   -1    0    0    0    0 -0.00000000000E+00 -0.00000000000E+00 -0.52007149092E+03  0.52007149092E+03  0.00000000000E+00 0.  1.
        -24    2    1    2    0    0 -0.69100593138E+02  0.93637295566E+02 -0.37559444807E+03  0.40120748214E+03  0.79708338394E+02 0.  0.
         25    2    1    2    0    0  0.41218360751E+02 -0.89120203069E+02 -0.68198982924E+02  0.17303590693E+03  0.12509580311E+03 0.  0.
         24    2    1    2    0    0  0.27882232388E+02 -0.45170924969E+01  0.15105235442E+03  0.17315851621E+03  0.79807486821E+02 0.  0.
        -11    1    5    5    0    0  0.18300110695E+02 -0.22634897617E+02  0.10230244003E+02  0.30852723283E+02  0.00000000000E+00 0.  1.
         12    1    5    5    0    0  0.95821216922E+01  0.18117805120E+02  0.14082211041E+03  0.14230579292E+03  0.00000000000E+00 0. -1.
         13    1    3    3    0    0 -0.46473089563E+02  0.11914338325E+02 -0.76279393640E+02  0.90112404281E+02  0.00000000000E+00 0. -1.
        -14    1    3    3    0    0 -0.22627503575E+02  0.81722957241E+02 -0.29931505443E+03  0.31109507785E+03  0.00000000000E+00 0.  1.
          5    1    4    4  501    0  0.62042741982E+02  0.83625238663E+00 -0.79298881132E+01  0.62692556784E+02  0.41800000000E+01 0.  1.
         -5    1    4    4    0  501 -0.20824381231E+02 -0.89956455455E+02 -0.60269094811E+02  0.11034335014E+03  0.41800000000E+01 0.  1.
</event>
<event>
11    1  0.6930157E-009  0.1361147E+03  0.7561462E-02  0.1111976E+00
         22   -1    0    0    0    0  0.00000000000E+00  0.00000000000E+00  0.15864116019E+03  0.15864116019E+03  0.00000000000E+00 0.  1.
         22   -1    0    0    0    0 -0.00000000000E+00 -0.00000000000E+00 -0.63596439806E+03  0.63596439806E+03  0.00000000000E+00 0.  1.
         24    2    1    2    0    0 -0.29362934149E+02 -0.25960060753E+02 -0.53983083956E+03  0.54715229893E+03  0.80138606383E+02 0.  0.
         25    2    1    2    0    0 -0.84803945305E+00 -0.30001704799E+02 -0.56407369553E+01  0.12876185496E+03  0.12508787279E+03 0.  0.
        -24    2    1    2    0    0  0.30210973602E+02  0.55961765552E+02  0.68148338641E+02  0.11869140435E+03  0.73478100658E+02 0.  0.
        -11    1    3    3    0    0 -0.28895802737E+02 -0.18188955272E+02 -0.53809347709E+03  0.53917566302E+03  0.00000000000E+00 0.  1.
         12    1    3    3    0    0 -0.46713141160E+00 -0.77711054807E+01 -0.17373624732E+01  0.79766359144E+01  0.00000000000E+00 0. -1.
         11    1    5    5    0    0  0.43664280818E+02  0.65243810026E+02  0.65269380211E+02  0.10209513289E+03  0.00000000000E+00 0. -1.
        -12    1    5    5    0    0 -0.13453307217E+02 -0.92820444741E+01  0.28789584298E+01  0.16596271458E+02  0.00000000000E+00 0.  1.
          5    1    4    4  501    0 -0.44779912994E+02  0.23274995239E+02 -0.25623022679E+02  0.56753658053E+02  0.41800000000E+01 0. -1.
         -5    1    4    4    0  501  0.43931873541E+02 -0.53276700038E+02  0.19982285724E+02  0.72008196912E+02  0.41800000000E+01 0. -1.
</event>
<event>
11    1  0.6930157E-009  0.1346275E+03  0.7561462E-02  0.1113710E+00
         22   -1    0    0    0    0  0.00000000000E+00  0.00000000000E+00  0.50918898271E+02  0.50918898271E+02  0.00000000000E+00 0.  1.
         22   -1    0    0    0    0 -0.00000000000E+00 -0.00000000000E+00 -0.12007276225E+04  0.12007276225E+04  0.00000000000E+00 0. -1.
         24    2    1    2    0    0 -0.37934835109E+02  0.35716100620E+02 -0.90945504010E+03  0.91459843288E+03  0.81652506995E+02 0.  0.
         25    2    1    2    0    0 -0.18811244815E+02 -0.49559142477E+02 -0.13264311034E+03  0.18987363108E+03  0.12509128477E+03 0.  0.
        -24    2    1    2    0    0  0.56746079924E+02  0.13843041857E+02 -0.10771057380E+03  0.14717445683E+03  0.81529170480E+02 0.  0.
        -13    1    3    3    0    0 -0.51621188691E+02  0.22971241098E+02 -0.85785868229E+03  0.85971736276E+03  0.00000000000E+00 0.  1.
         14    1    3    3    0    0  0.13686353582E+02  0.12744859522E+02 -0.51596357810E+02  0.54881070123E+02  0.00000000000E+00 0. -1.
         11    1    5    5    0    0  0.58091628774E+02  0.68074440090E+01 -0.11969007538E+03  0.13321671356E+03  0.00000000000E+00 0. -1.
        -12    1    5    5    0    0 -0.13455488503E+01  0.70355978478E+01  0.11979501583E+02  0.13957743262E+02  0.00000000000E+00 0.  1.
          5    1    4    4  501    0  0.48686225003E+02 -0.37378296074E+02 -0.35964578665E+02  0.71262955601E+02  0.41800000000E+01 0.  1.
         -5    1    4    4    0  501 -0.67497469817E+02 -0.12180846403E+02 -0.96678531678E+02  0.11861067548E+03  0.41800000000E+01 0.  1.
</event>
<event>
11    1  0.6930157E-009  0.1630387E+03  0.7561462E-02  0.1084254E+00
         22   -1    0    0    0    0  0.00000000000E+00  0.00000000000E+00  0.12468616568E+04  0.12468616568E+04  0.00000000000E+00 0. -1.
         22   -1    0    0    0    0 -0.00000000000E+00 -0.00000000000E+00 -0.66443009956E+03  0.66443009956E+03  0.00000000000E+00 0. -1.
        -24    2    1    2    0    0  0.76802109953E+02 -0.71359392207E+02 -0.63968206275E+03  0.65306067121E+03  0.79400075057E+02 0.  0.
         25    2    1    2    0    0 -0.87393075429E+02  0.36047472976E+02  0.37619233546E+03  0.40756034784E+03  0.12509114247E+03 0.  0.
         24    2    1    2    0    0  0.10590965477E+02  0.35311919231E+02  0.84592128458E+03  0.85067073737E+03  0.81846096561E+02 0.  0.
        -11    1    5    5    0    0  0.27956141793E+02 -0.17572651765E+02  0.38129410333E+03  0.38272122647E+03  0.00000000000E+00 0.  1.
         12    1    5    5    0    0 -0.17365176316E+02  0.52884570997E+02  0.46462718125E+03  0.46794951090E+03  0.00000000000E+00 0. -1.
         11    1    3    3    0    0  0.41808062281E+02  0.58337836542E+01 -0.13944311739E+03  0.14569258763E+03  0.00000000000E+00 0. -1.
        -12    1    3    3    0    0  0.34994047672E+02 -0.77193175861E+02 -0.50023894537E+03  0.50736808358E+03  0.00000000000E+00 0.  1.
          5    1    4    4  501    0 -0.49718897480E+02 -0.25394382682E+02  0.28893754704E+03  0.29431143696E+03  0.41800000000E+01 0.  1.
         -5    1    4    4    0  501 -0.37674177949E+02  0.61441855658E+02  0.87254788424E+02  0.11324891087E+03  0.41800000000E+01 0.  1.
</event>
<event>
11    1  0.6930157E-009  0.1408209E+03  0.7561462E-02  0.1106645E+00
         22   -1    0    0    0    0  0.00000000000E+00  0.00000000000E+00  0.43196839879E+03  0.43196839879E+03  0.00000000000E+00 0. -1.
         22   -1    0    0    0    0 -0.00000000000E+00 -0.00000000000E+00 -0.27457948606E+03  0.27457948606E+03  0.00000000000E+00 0.  1.
         24    2    1    2    0    0 -0.54263893598E+02  0.47987555478E+02 -0.16634350505E+03  0.20967440505E+03  0.10509909054E+03 0.  0.
         25    2    1    2    0    0  0.17592864057E+02 -0.45797995751E+02 -0.24661297831E+02  0.13661044939E+03  0.12508904825E+03 0.  0.
        -24    2    1    2    0    0  0.36671029542E+02 -0.21895597275E+01  0.34839371561E+03  0.36026303040E+03  0.84033989631E+02 0.  0.
        -13    1    3    3    0    0  0.30327905453E+02  0.26453785818E+02 -0.56609894754E+02  0.69456927785E+02  0.00000000000E+00 0.  1.
         14    1    3    3    0    0 -0.84591799051E+02  0.21533769661E+02 -0.10973361030E+03  0.14021747727E+03  0.00000000000E+00 0. -1.
         13    1    5    5    0    0 -0.39212517265E+00  0.50820320275E+01  0.29398756414E+03  0.29403174774E+03  0.00000000000E+00 0. -1.
        -14    1    5    5    0    0  0.37063154714E+02 -0.72715917550E+01  0.54406151473E+02  0.66231282655E+02  0.00000000000E+00 0.  1.
          5    1    4    4  501    0  0.86847489197E+01 -0.76181148607E+02  0.22171035557E+02  0.79925086704E+02  0.41800000000E+01 0.  1.
         -5    1    4    4    0  501  0.89081151368E+01  0.30383152856E+02 -0.46832333388E+02  0.56685362691E+02  0.41800000000E+01 0.  1.
</event>
<event>
11    1  0.6930157E-009  0.2679439E+03  0.7561462E-02  0.1014752E+00
         22   -1    0    0    0    0  0.00000000000E+00  0.00000000000E+00  0.80013571448E+03  0.80013571448E+03  0.00000000000E+00 0. -1.
         22   -1    0    0    0    0 -0.00000000000E+00 -0.00000000000E+00 -0.41214584004E+03  0.41214584004E+03  0.00000000000E+00 0. -1.
        -24    2    1    2    0    0 -0.11228266432E+03 -0.17860032510E+03 -0.26448070111E+03  0.34754220955E+03  0.79561757925E+02 0.  0.
         25    2    1    2    0    0 -0.10726717975E+03 -0.10289707611E+03  0.16312369637E+03  0.25367317357E+03  0.12508670011E+03 0.  0.
         24    2    1    2    0    0  0.21954984407E+03  0.28149740121E+03  0.48934687918E+03  0.61106617140E+03  0.80613750361E+02 0.  0.
        -13    1    5    5    0    0  0.53383134434E+01  0.50528786183E+02  0.74317895253E+02  0.90026692588E+02  0.00000000000E+00 0.  1.
         14    1    5    5    0    0  0.21421153063E+03  0.23096861503E+03  0.41502898393E+03  0.52103947881E+03  0.00000000000E+00 0. -1.
         13    1    3    3    0    0 -0.11041021763E+03 -0.13908265090E+03 -0.24719725227E+03  0.30436964610E+03  0.00000000000E+00 0. -1.
        -14    1    3    3    0    0 -0.18724466919E+01 -0.39517674201E+02 -0.17283448847E+02  0.43172563451E+02  0.00000000000E+00 0.  1.
          5    1    4    4  501    0 -0.28561750323E+02 -0.11131786529E+03  0.95650261678E+02  0.14957902819E+03  0.41800000000E+01 0.  1.
         -5    1    4    4    0  501 -0.78705429430E+02  0.84207891787E+01  0.67473434697E+02  0.10409414538E+03  0.41800000000E+01 0.  1.
</event>
<event>
11    1  0.6930157E-009  0.1579120E+03  0.7561462E-02  0.1089058E+00
         22   -1    0    0    0    0  0.00000000000E+00  0.00000000000E+00  0.13497093110E+04  0.13497093110E+04  0.00000000000E+00 0.  1.
         22   -1    0    0    0    0 -0.00000000000E+00 -0.00000000000E+00 -0.17658209519E+03  0.17658209519E+03  0.00000000000E+00 0.  1.
        -24    2    1    2    0    0 -0.87014906165E+02  0.52362170819E+02 -0.13304598098E+03  0.18637070863E+03  0.81972051060E+02 0.  0.
         25    2    1    2    0    0  0.24220987548E+02 -0.31524893692E+02  0.28899107183E+03  0.31741172672E+03  0.12511550464E+03 0.  0.
         24    2    1    2    0    0  0.62793918617E+02 -0.20837277127E+02  0.10171821250E+04  0.10225089709E+04  0.80547202153E+02 0.  0.
        -13    1    5    5    0    0  0.75013846782E+02 -0.14783781902E+02  0.97870121083E+03  0.98168309422E+03  0.00000000000E+00 0.  1.
         14    1    5    5    0    0 -0.12219928165E+02 -0.60534952248E+01  0.38480914171E+02  0.40825876650E+02  0.00000000000E+00 0. -1.
         11    1    3    3    0    0 -0.12310698634E+02  0.51413321761E+02 -0.75006389058E+02  0.91765142374E+02  0.00000000000E+00 0. -1.
        -12    1    3    3    0    0 -0.74704207531E+02  0.94884905738E+00 -0.58039591919E+02  0.94605566261E+02  0.00000000000E+00 0.  1.
          5    1    4    4  501    0 -0.85718323949E+01 -0.23781811304E+02  0.28147255464E+03  0.28263637819E+03  0.41800000000E+01 0. -1.
         -5    1    4    4    0  501  0.32792819942E+02 -0.77430823877E+01  0.75185171906E+01  0.34775348530E+02  0.41800000000E+01 0. -1.
</event>
<event>
11    1  0.6930157E-009  0.1679435E+03  0.7561462E-02  0.1079835E+00
         22   -1    0    0    0    0  0.00000000000E+00  0.00000000000E+00  0.11602296447E+04  0.11602296447E+04  0.00000000000E+00 0. -1.
         22   -1    0    0    0    0 -0.00000000000E+00 -0.00000000000E+00 -0.56609325652E+03  0.56609325652E+03  0.00000000000E+00 0.  1.
        -24    2    1    2    0    0  0.56354611937E+02 -0.70649265389E+02 -0.51181855214E+03  0.52616313874E+03  0.81989372895E+02 0.  0.
         25    2    1    2    0    0  0.43610299703E+02  0.18956542477E+01  0.62357758598E+02  0.14642893264E+03  0.12508992970E+03 0.  0.
         24    2    1    2    0    0 -0.99964911640E+02  0.68753611141E+02  0.10435971817E+04  0.10537308299E+04  0.80830325187E+02 0.  0.
        -13    1    5    5    0    0 -0.36860156961E+01  0.44422707599E+02  0.24978124575E+03  0.25372748056E+03  0.00000000000E+00 0.  1.
         14    1    5    5    0    0 -0.96278895944E+02  0.24330903543E+02  0.79381593599E+03  0.80000334931E+03  0.00000000000E+00 0. -1.
         11    1    3    3    0    0  0.10265140734E+02  0.96207241022E+01 -0.20999024364E+03  0.21046100321E+03  0.00000000000E+00 0. -1.
        -12    1    3    3    0    0  0.46089471202E+02 -0.80269989491E+02 -0.30182830849E+03  0.31570213553E+03  0.00000000000E+00 0.  1.
          5    1    4    4  501    0  0.72959113604E+02 -0.33076158956E+02  0.17121144588E+02  0.82022378295E+02  0.41800000000E+01 0. -1.
         -5    1    4    4    0  501 -0.29348813901E+02  0.34971813204E+02  0.45236614010E+02  0.64406554350E+02  0.41800000000E+01 0. -1.
</event>
<event>
11    1  0.6930157E-009  0.1278847E+03  0.7561462E-02  0.1121896E+00
         22   -1    0    0    0    0  0.00000000000E+00  0.00000000000E+00  0.13707599869E+04  0.13707599869E+04  0.00000000000E+00 0.  1.
         22   -1    0    0    0    0 -0.00000000000E+00 -0.00000000000E+00 -0.93535579868E+02  0.93535579868E+02  0.00000000000E+00 0. -1.
        -24    2    1    2    0    0  0.31947938395E+00  0.71116486955E+01 -0.16824387442E+02  0.81285174943E+02  0.79205694482E+02 0.  0.
         25    2    1    2    0    0 -0.26849017859E+02 -0.59849279076E+01  0.52445810476E+02  0.13840725168E+03  0.12509722283E+03 0.  0.
         24    2    1    2    0    0  0.26529538475E+02 -0.11267207879E+01  0.12416029840E+04  0.12446031402E+04  0.82182240632E+02 0.  0.
        -11    1    5    5    0    0  0.32807928255E+02  0.35379799355E+02  0.79731645786E+03  0.79877507743E+03  0.00000000000E+00 0.  1.
         12    1    5    5    0    0 -0.62783897798E+01 -0.36506520143E+02  0.44428652615E+03  0.44582806272E+03  0.00000000000E+00 0. -1.
         11    1    3    3    0    0  0.19952183099E+02  0.26087449703E+01 -0.43459235792E+02  0.47891547651E+02  0.00000000000E+00 0. -1.
        -12    1    3    3    0    0 -0.19632703715E+02  0.45029037253E+01  0.26634848350E+02  0.33393627292E+02  0.00000000000E+00 0.  1.
          5    1    4    4  501    0  0.14841298523E+02 -0.18326147976E+02  0.82159865101E+02  0.85579364772E+02  0.41800000000E+01 0. -1.
         -5    1    4    4    0  501 -0.41690316382E+02  0.12341220068E+02 -0.29714054624E+02  0.52827886907E+02  0.41800000000E+01 0. -1.
</event>
<event>
11    1  0.6930157E-009  0.2178173E+03  0.7561462E-02  0.1042593E+00
         22   -1    0    0    0    0  0.00000000000E+00  0.00000000000E+00  0.26705587405E+03  0.26705587405E+03  0.00000000000E+00 0.  1.
         22   -1    0    0    0    0 -0.00000000000E+00 -0.00000000000E+00 -0.55436823260E+03  0.55436823260E+03  0.00000000000E+00 0. -1.
         24    2    1    2    0    0 -0.62422678001E+02  0.14448766676E+03 -0.24752801425E+03  0.30445651626E+03  0.81549836796E+02 0.  0.
         25    2    1    2    0    0  0.10707685829E+03 -0.19828927388E+03 -0.19917006779E+03  0.32572995850E+03  0.12508876945E+03 0.  0.
        -24    2    1    2    0    0 -0.44654180287E+02  0.53801607114E+02  0.15938572349E+03  0.19123763189E+03  0.79242755218E+02 0.  0.
        -11    1    3    3    0    0 -0.16634699388E+02  0.14223674160E+02 -0.10010386298E+03  0.10246857818E+03  0.00000000000E+00 0.  1.
         12    1    3    3    0    0 -0.45787978613E+02  0.13026399260E+03 -0.14742415127E+03  0.20198793808E+03  0.00000000000E+00 0. -1.
         13    1    5    5    0    0 -0.40769178971E+02  0.43667791772E+02  0.41236493584E+02  0.72590980123E+02  0.00000000000E+00 0. -1.
        -14    1    5    5    0    0 -0.38850013156E+01  0.10133815341E+02  0.11814922991E+03  0.11864665177E+03  0.00000000000E+00 0.  1.
          5    1    4    4  501    0 -0.23361434392E+02 -0.38241938494E+02 -0.66416719538E+02  0.80230016271E+02  0.41800000000E+01 0. -1.
         -5    1    4    4    0  501  0.13043829268E+03 -0.16004733538E+03 -0.13275334826E+03  0.24549994223E+03  0.41800000000E+01 0. -1.
</event>
<event>
11    1  0.6930157E-009  0.1579458E+03  0.7561462E-02  0.1089025E+00
         22   -1    0    0    0    0  0.00000000000E+00  0.00000000000E+00  0.55575892274E+03  0.55575892274E+03  0.00000000000E+00 0. -1.
         22   -1    0    0    0    0 -0.00000000000E+00 -0.00000000000E+00 -0.72140653419E+03  0.72140653419E+03  0.00000000000E+00 0.  1.
         24    2    1    2    0    0 -0.70012316408E+01  0.24187983943E+02 -0.67268607005E+03  0.67802531661E+03  0.81103053672E+02 0.  0.
         25    2    1    2    0    0  0.88443069548E+02 -0.67421262660E+02  0.16387125691E+03  0.23424070430E+03  0.12508843072E+03 0.  0.
        -24    2    1    2    0    0 -0.81441837908E+02  0.43233278717E+02  0.34316720170E+03  0.36489943601E+03  0.82981809633E+02 0.  0.
        -11    1    3    3    0    0 -0.15448799470E+02  0.34927560130E+02 -0.65269145821E+03  0.65380787658E+03  0.00000000000E+00 0.  1.
         12    1    3    3    0    0  0.84475678292E+01 -0.10739576187E+02 -0.19994611842E+02  0.24217440031E+02  0.00000000000E+00 0. -1.
         13    1    5    5    0    0 -0.52357083722E+02  0.67969050231E+02  0.23173519779E+03  0.24710778599E+03  0.00000000000E+00 0. -1.
        -14    1    5    5    0    0 -0.29084754186E+02 -0.24735771513E+02  0.11143200391E+03  0.11779165002E+03  0.00000000000E+00 0.  1.
          5    1    4    4  501    0  0.78593019100E+02 -0.94958860467E+00  0.29704534063E+02  0.84128450085E+02  0.41800000000E+01 0. -1.
         -5    1    4    4    0  501  0.98500504483E+01 -0.66471674055E+02  0.13416672285E+03  0.15011225421E+03  0.41800000000E+01 0. -1.
</event>
<event>
11    1  0.6930157E-009  0.1337378E+03  0.7561462E-02  0.1114760E+00
         22   -1    0    0    0    0  0.00000000000E+00  0.00000000000E+00  0.51895936270E+03  0.51895936270E+03  0.00000000000E+00 0. -1.
         22   -1    0    0    0    0 -0.00000000000E+00 -0.00000000000E+00 -0.34006248229E+03  0.34006248229E+03  0.00000000000E+00 0.  1.
         24    2    1    2    0    0 -0.10552891936E+02  0.58634323034E+00 -0.30922111808E+03  0.32082288869E+03  0.84840548758E+02 0.  0.
         25    2    1    2    0    0  0.37934653925E+02 -0.35323081358E+02  0.30291500791E+03  0.33180087029E+03  0.12509019731E+03 0.  0.
        -24    2    1    2    0    0 -0.27381761989E+02  0.34736738127E+02  0.18520299059E+03  0.20639808601E+03  0.79646847530E+02 0.  0.
        -11    1    3    3    0    0 -0.27609744217E+02  0.14003116997E+02 -0.29055111743E+03  0.29219571711E+03  0.00000000000E+00 0.  1.
         12    1    3    3    0    0  0.17056852281E+02 -0.13416773767E+02 -0.18670000654E+02  0.28627171577E+02  0.00000000000E+00 0. -1.
         11    1    5    5    0    0 -0.14199495512E+02  0.53399382876E+02  0.17049389732E+03  0.17922413004E+03  0.00000000000E+00 0. -1.
        -12    1    5    5    0    0 -0.13182266477E+02 -0.18662644749E+02  0.14709093265E+02  0.27173955972E+02  0.00000000000E+00 0.  1.
          5    1    4    4  501    0  0.67120314474E+01  0.27186330939E+02  0.22614177782E+03  0.22790727068E+03  0.41800000000E+01 0.  1.
         -5    1    4    4    0  501  0.31222622477E+02 -0.62509412297E+02  0.76773230095E+02  0.10389359961E+03  0.41800000000E+01 0.  1.
</event>
<event>
11    1  0.6930157E-009  0.1559544E+03  0.7561462E-02  0.1090945E+00
         22   -1    0    0    0    0  0.00000000000E+00  0.00000000000E+00  0.17861051949E+04  0.17861051949E+04  0.00000000000E+00 0.  1.
         22   -1    0    0    0    0 -0.00000000000E+00 -0.00000000000E+00 -0.22248541959E+03  0.22248541959E+03  0.00000000000E+00 0.  1.
        -24    2    1    2    0    0 -0.52943403934E+02  0.75639703150E+02 -0.17460575241E+03  0.21283509078E+03  0.79292107937E+02 0.  0.
         25    2    1    2    0    0  0.90699570885E+02 -0.62605760383E+02  0.22598414890E+03  0.28082412063E+03  0.12508979887E+03 0.  0.
         24    2    1    2    0    0 -0.37756166951E+02 -0.13033942767E+02  0.15122413788E+04  0.15149314031E+04  0.80918208128E+02 0.  0.
        -13    1    5    5    0    0 -0.18219289046E+02 -0.20036041494E+02  0.14249310377E+04  0.14251883552E+04  0.00000000000E+00 0.  1.
         14    1    5    5    0    0 -0.19536877904E+02  0.70020987273E+01  0.87310341112E+02  0.89743047920E+02  0.00000000000E+00 0. -1.
         13    1    3    3    0    0 -0.72344542141E+02  0.61547327690E+02 -0.11885168978E+03  0.15214312500E+03  0.00000000000E+00 0. -1.
        -14    1    3    3    0    0  0.19401138207E+02  0.14092375460E+02 -0.55754062637E+02  0.60691965781E+02  0.00000000000E+00 0.  1.
          5    1    4    4  501    0  0.12560697520E+02 -0.63383340290E+02  0.17707560218E+03  0.18854299307E+03  0.41800000000E+01 0.  1.
         -5    1    4    4    0  501  0.78138873365E+02  0.77757990610E+00  0.48908546717E+02  0.92281127557E+02  0.41800000000E+01 0.  1.
</event>
<event>
11    1  0.6930157E-009  0.1530553E+03  0.7561462E-02  0.1093797E+00
         22   -1    0    0    0    0  0.00000000000E+00  0.00000000000E+00  0.15609912723E+04  0.15609912723E+04  0.00000000000E+00 0.  1.
         22   -1    0    0    0    0 -0.00000000000E+00 -0.00000000000E+00 -0.40316509558E+02  0.40316509558E+02  0.00000000000E+00 0.  1.
        -24    2    1    2    0    0 -0.97411214309E+01 -0.32550619672E+02  0.15898925175E+03  0.18200440860E+03  0.81814364823E+02 0.  0.
         25    2    1    2    0    0  0.96896105373E+02  0.27012907055E+02  0.22456712898E+03  0.27602924444E+03  0.12507276276E+03 0.  0.
         24    2    1    2    0    0 -0.87154983942E+02  0.55377126164E+01  0.11371183821E+04  0.11432741289E+04  0.80067855035E+02 0.  0.
        -13    1    5    5    0    0 -0.73839646387E+02 -0.12397826334E+02  0.48250310430E+03  0.48827783600E+03  0.00000000000E+00 0.  1.
         14    1    5    5    0    0 -0.13315337555E+02  0.17935538950E+02  0.65461527776E+03  0.65499629285E+03  0.00000000000E+00 0. -1.
         11    1    3    3    0    0  0.21490618342E+02  0.18687698942E+02  0.47135159033E+02  0.55070863309E+02  0.00000000000E+00 0. -1.
        -12    1    3    3    0    0 -0.31231739773E+02 -0.51238318614E+02  0.11185409271E+03  0.12693354529E+03  0.00000000000E+00 0.  1.
          5    1    4    4  501    0  0.30945949935E+02  0.60772961744E+02  0.45215910870E+02  0.81932628985E+02  0.41800000000E+01 0. -1.
         -5    1    4    4    0  501  0.65950155438E+02 -0.33760054689E+02  0.17935121811E+03  0.19409661546E+03  0.41800000000E+01 0. -1.
</event>
<event>
11    1  0.6930157E-009  0.1595028E+03  0.7561462E-02  0.1087546E+00
         22   -1    0    0    0    0  0.00000000000E+00  0.00000000000E+00  0.92321727902E+03  0.92321727902E+03  0.00000000000E+00 0.  1.
         22   -1    0    0    0    0 -0.00000000000E+00 -0.00000000000E+00 -0.12600803246E+03  0.12600803246E+03  0.00000000000E+00 0. -1.
        -24    2    1    2    0    0  0.91809214926E+02 -0.23092349034E+02 -0.48638379118E+02  0.13323176849E+03  0.80142521069E+02 0.  0.
         25    2    1    2    0    0 -0.13150505477E+03 -0.13592607073E+02  0.23135030190E+03  0.29436143373E+03  0.12508938035E+03 0.  0.
         24    2    1    2    0    0  0.39695839848E+02  0.36684956108E+02  0.61449732378E+03  0.62163210926E+03  0.76798259278E+02 0.  0.
        -13    1    5    5    0    0  0.50616916213E+02 -0.49513875910E+01  0.33709186671E+03  0.34090690085E+03  0.00000000000E+00 0.  1.
         14    1    5    5    0    0 -0.10921076365E+02  0.41636343699E+02  0.27740545707E+03  0.28072520841E+03  0.00000000000E+00 0. -1.
         13    1    3    3    0    0  0.95241925933E+02 -0.29858912384E+02 -0.62260509750E+02  0.11763906740E+03  0.00000000000E+00 0. -1.
        -14    1    3    3    0    0 -0.34327110072E+01  0.67665633492E+01  0.13622130633E+02  0.15592701093E+02  0.00000000000E+00 0.  1.
          5    1    4    4  501    0 -0.18947182972E+02 -0.71565487069E+01  0.15899341122E+03  0.16033274508E+03  0.41800000000E+01 0.  1.
         -5    1    4    4    0  501 -0.11255787180E+03 -0.64360583666E+01  0.72356890679E+02  0.13402868865E+03  0.41800000000E+01 0.  1.
</event>
<event>
11    1  0.6930157E-009  0.1489607E+03  0.7561462E-02  0.1097945E+00
         22   -1    0    0    0    0  0.00000000000E+00  0.00000000000E+00  0.36626066543E+03  0.36626066543E+03  0.00000000000E+00 0. -1.
         22   -1    0    0    0    0 -0.00000000000E+00 -0.00000000000E+00 -0.80624590221E+03  0.80624590221E+03  0.00000000000E+00 0. -1.
         24    2    1    2    0    0  0.78596643980E+02 -0.21704702177E+02 -0.72493403395E+03  0.73379992644E+03  0.79274535226E+02 0.  0.
         25    2    1    2    0    0 -0.59424243172E+02  0.45454371539E+02  0.70928384600E+01  0.14592539211E+03  0.12508625479E+03 0.  0.
        -24    2    1    2    0    0 -0.19172400808E+02 -0.23749669361E+02  0.27785595871E+03  0.29278124908E+03  0.87093617866E+02 0.  0.
        -13    1    3    3    0    0  0.30283573865E+02  0.48077392178E+01 -0.68417250630E+02  0.74974191467E+02  0.00000000000E+00 0.  1.
         14    1    3    3    0    0  0.48313070115E+02 -0.26512441395E+02 -0.65651678332E+03  0.65882573498E+03  0.00000000000E+00 0. -1.
         13    1    5    5    0    0 -0.26380370455E+02  0.28866912334E+02  0.11207516584E+03  0.11870158117E+03  0.00000000000E+00 0. -1.
        -14    1    5    5    0    0  0.72079696474E+01 -0.52616581695E+02  0.16578079287E+03  0.17407966791E+03  0.00000000000E+00 0.  1.
          5    1    4    4  501    0 -0.38743962019E+02  0.84926429880E+02  0.26524824673E+02  0.97132032868E+02  0.41800000000E+01 0. -1.
         -5    1    4    4    0  501 -0.20680281152E+02 -0.39472058342E+02 -0.19431986213E+02  0.48793359245E+02  0.41800000000E+01 0. -1.
</event>
<event>
11    1  0.6930157E-009  0.1822890E+03  0.7561462E-02  0.1067806E+00
         22   -1    0    0    0    0  0.00000000000E+00  0.00000000000E+00  0.29631934448E+03  0.29631934448E+03  0.00000000000E+00 0.  1.
         22   -1    0    0    0    0 -0.00000000000E+00 -0.00000000000E+00 -0.36463769595E+03  0.36463769595E+03  0.00000000000E+00 0. -1.
        -24    2    1    2    0    0 -0.19837508685E+02 -0.43495880494E+02 -0.25731226100E+03  0.26888938356E+03  0.61696698101E+02 0.  0.
         25    2    1    2    0    0 -0.11940351502E+03  0.44566985178E+02  0.70012543168E+02  0.19181448453E+03  0.12509046609E+03 0.  0.
         24    2    1    2    0    0  0.13924102371E+03 -0.10711046838E+01  0.11898136637E+03  0.20025317234E+03  0.80966397615E+02 0.  0.
        -11    1    5    5    0    0  0.81811680277E+02 -0.35835436683E+02  0.91045765637E+02  0.12754082089E+03  0.00000000000E+00 0.  1.
         12    1    5    5    0    0  0.57429343429E+02  0.34764332000E+02  0.27935600729E+02  0.72712351455E+02  0.00000000000E+00 0. -1.
         11    1    3    3    0    0  0.15962960096E+01 -0.40177226463E+02 -0.23242468475E+03  0.23587706919E+03  0.00000000000E+00 0. -1.
        -12    1    3    3    0    0 -0.21433804695E+02 -0.33186540306E+01 -0.24887576250E+02  0.33012314367E+02  0.00000000000E+00 0.  1.
          5    1    4    4  501    0 -0.19147650872E+02 -0.20539156337E+02  0.66322916450E+02  0.72143545265E+02  0.41800000000E+01 0. -1.
         -5    1    4    4    0  501 -0.10025586415E+03  0.65106141515E+02  0.36896267188E+01  0.11967093926E+03  0.41800000000E+01 0. -1.
</event>
<event>
11    1  0.6930157E-009  0.1325936E+03  0.7561462E-02  0.1116123E+00
         22   -1    0    0    0    0  0.00000000000E+00  0.00000000000E+00  0.68577950271E+03  0.68577950271E+03  0.00000000000E+00 0. -1.
         22   -1    0    0    0    0 -0.00000000000E+00 -0.00000000000E+00 -0.15487648991E+04  0.15487648991E+04  0.00000000000E+00 0. -1.
         24    2    1    2    0    0 -0.43909344787E+02 -0.19407715601E+01 -0.15170909856E+04  0.15199319418E+04  0.81830630498E+02 0.  0.
         25    2    1    2    0    0  0.46081939814E+02 -0.20804353979E+02  0.14236860826E+03  0.19614678526E+03  0.12509346278E+03 0.  0.
        -24    2    1    2    0    0 -0.21725950276E+01  0.22745125539E+02  0.51173698088E+03  0.51846567477E+03  0.80061585101E+02 0.  0.
        -11    1    3    3    0    0 -0.64671138618E+02 -0.15554571852E+02 -0.96998386358E+03  0.97226179421E+03  0.00000000000E+00 0.  1.
         12    1    3    3    0    0  0.20761793831E+02  0.13613800292E+02 -0.54710712198E+03  0.54767014759E+03  0.00000000000E+00 0. -1.
         11    1    5    5    0    0  0.12935528544E+01  0.52607005594E+02  0.35394638088E+03  0.35783684950E+03  0.00000000000E+00 0. -1.
        -12    1    5    5    0    0 -0.34661478821E+01 -0.29861880054E+02  0.15779060000E+03  0.16062882527E+03  0.00000000000E+00 0.  1.
          5    1    4    4  501    0 -0.41403106334E+02  0.43647607044E+01  0.61036841968E+02  0.74001600169E+02  0.41800000000E+01 0. -1.
         -5    1    4    4    0  501  0.87485046148E+02 -0.25169114683E+02  0.81331766293E+02  0.12214518509E+03  0.41800000000E+01 0. -1.
</event>
<event>
11    1  0.6930157E-009  0.2059819E+03  0.7561462E-02  0.1050372E+00
         22   -1    0    0    0    0  0.00000000000E+00  0.00000000000E+00  0.82025804629E+02  0.82025804629E+02  0.00000000000E+00 0. -1.
         22   -1    0    0    0    0 -0.00000000000E+00 -0.00000000000E+00 -0.12832898173E+04  0.12832898173E+04  0.00000000000E+00 0.  1.
         24    2    1    2    0    0 -0.15735587760E+03  0.31464217782E+02 -0.89489291416E+03  0.91232391108E+03  0.75833513017E+02 0.  0.
         25    2    1    2    0    0  0.16855079550E+03 -0.56112456864E+02 -0.29845174389E+03  0.36915698454E+03  0.12508180256E+03 0.  0.
        -24    2    1    2    0    0 -0.11194917898E+02  0.24648239082E+02 -0.79193546589E+01  0.83834726339E+02  0.78947345019E+02 0.  0.
        -11    1    3    3    0    0 -0.14364963170E+03  0.14556641193E+02 -0.85280396906E+03  0.86494029975E+03  0.00000000000E+00 0.  1.
         12    1    3    3    0    0 -0.13706245901E+02  0.16907576589E+02 -0.42088945104E+02  0.47383611331E+02  0.00000000000E+00 0. -1.
         13    1    5    5    0    0 -0.66228487081E+01  0.15589790389E+01  0.34585229291E+02  0.35248129394E+02  0.00000000000E+00 0. -1.
        -14    1    5    5    0    0 -0.45720691898E+01  0.23089260043E+02 -0.42504583950E+02  0.48586596946E+02  0.00000000000E+00 0.  1.
          5    1    4    4  501    0  0.82418378251E+01 -0.22116182652E+02 -0.13697015978E+03  0.13905161091E+03  0.41800000000E+01 0. -1.
         -5    1    4    4    0  501  0.16030895768E+03 -0.33996274213E+02 -0.16148158411E+03  0.23010537364E+03  0.41800000000E+01 0. -1.
</event>
<event>
11    1  0.6930157E-009  0.1438486E+03  0.7561462E-02  0.1103335E+00
         22   -1    0    0    0    0  0.00000000000E+00  0.00000000000E+00  0.63415090475E+03  0.63415090475E+03  0.00000000000E+00 0. -1.
         22   -1    0    0    0    0 -0.00000000000E+00 -0.00000000000E+00 -0.11703988665E+04  0.11703988665E+04  0.00000000000E+00 0. -1.
         24    2    1    2    0    0 -0.15997542744E+02  0.66556366244E+02 -0.97857756506E+03  0.98423948131E+03  0.80172529417E+02 0.  0.
         25    2    1    2    0    0 -0.47295619545E+01 -0.10818143365E+03 -0.14839271908E+03  0.22224870316E+03  0.12509394725E+03 0.  0.
        -24    2    1    2    0    0  0.20727104699E+02  0.41625067407E+02  0.59072232240E+03  0.59806158675E+03  0.81009507218E+02 0.  0.
        -13    1    3    3    0    0 -0.25459632049E+02 -0.13638739578E+01 -0.10814864722E+03  0.11111337863E+03  0.00000000000E+00 0.  1.
         14    1    3    3    0    0  0.94620893051E+01  0.67920240202E+02 -0.87042891784E+03  0.87312610268E+03  0.00000000000E+00 0. -1.
         13    1    5    5    0    0 -0.42675187946E+01  0.66157772808E+01  0.46714860181E+03  0.46721493598E+03  0.00000000000E+00 0. -1.
        -14    1    5    5    0    0  0.24994623493E+02  0.35009290126E+02  0.12357372059E+03  0.13084665078E+03  0.00000000000E+00 0.  1.
          5    1    4    4  501    0 -0.64098082003E+02 -0.44070005255E+02 -0.73235341657E+02  0.10691874086E+03  0.41800000000E+01 0.  1.
         -5    1    4    4    0  501  0.59368520049E+02 -0.64111428396E+02 -0.75157377423E+02  0.11532996230E+03  0.41800000000E+01 0.  1.
</event>
<event>
11    1  0.6930157E-009  0.1301271E+03  0.7561462E-02  0.1119113E+00
         22   -1    0    0    0    0  0.00000000000E+00  0.00000000000E+00  0.42779532858E+03  0.42779532858E+03  0.00000000000E+00 0.  1.
         22   -1    0    0    0    0 -0.00000000000E+00 -0.00000000000E+00 -0.98943664336E+03  0.98943664336E+03  0.00000000000E+00 0. -1.
        -24    2    1    2    0    0 -0.17587768267E+02 -0.36661779544E+02 -0.94547579810E+03  0.94895505692E+03  0.70269478415E+02 0.  0.
         25    2    1    2    0    0 -0.15627168745E+02  0.49761137299E+02  0.93930706084E+02  0.16490201662E+03  0.12509723559E+03 0.  0.
         24    2    1    2    0    0  0.33214937012E+02 -0.13099357755E+02  0.28990377724E+03  0.30337489839E+03  0.81959158738E+02 0.  0.
        -13    1    5    5    0    0  0.33916743996E+02 -0.37734718047E+02  0.25861749215E+03  0.26354745629E+03  0.00000000000E+00 0.  1.
         14    1    5    5    0    0 -0.70180698410E+00  0.24635360292E+02  0.31286285089E+02  0.39827442102E+02  0.00000000000E+00 0. -1.
         11    1    3    3    0    0 -0.42740139064E+02 -0.90591604514E+01 -0.53864714128E+03  0.54041607183E+03  0.00000000000E+00 0. -1.
        -12    1    3    3    0    0  0.25152370797E+02 -0.27602619093E+02 -0.40682865681E+03  0.40853898510E+03  0.00000000000E+00 0.  1.
          5    1    4    4  501    0 -0.32256773004E+02 -0.13546509944E+02 -0.14561417764E+02  0.38124986866E+02  0.41800000000E+01 0.  1.
         -5    1    4    4    0  501  0.16629604258E+02  0.63307647243E+02  0.10849212385E+03  0.12677702976E+03  0.41800000000E+01 0.  1.
</event>
<event>
11    1  0.6930157E-009  0.1880768E+03  0.7561462E-02  0.1063291E+00
         22   -1    0    0    0    0  0.00000000000E+00  0.00000000000E+00  0.24801119416E+03  0.24801119416E+03  0.00000000000E+00 0. -1.
         22   -1    0    0    0    0 -0.00000000000E+00 -0.00000000000E+00 -0.12084687533E+04  0.12084687533E+04  0.00000000000E+00 0. -1.
         24    2    1    2    0    0 -0.93138889953E+02 -0.10599307354E+03 -0.10920447472E+04  0.11054470893E+04  0.97683944003E+02 0.  0.
         25    2    1    2    0    0  0.39930088267E+02  0.13820830338E+03  0.39476405378E+01  0.19067658676E+03  0.12508409091E+03 0.  0.
        -24    2    1    2    0    0  0.53208801686E+02 -0.32215229833E+02  0.12763954750E+03  0.16035627142E+03  0.74520346805E+02 0.  0.
        -11    1    3    3    0    0 -0.40210491595E+02 -0.28374772083E+02 -0.13302494587E+03  0.14183669323E+03  0.00000000000E+00 0.  1.
         12    1    3    3    0    0 -0.52928398358E+02 -0.77618301460E+02 -0.95901980132E+03  0.96361039606E+03  0.00000000000E+00 0. -1.
         11    1    5    5    0    0  0.29212235273E+00 -0.50708892587E+01  0.89632597329E+02  0.89776398665E+02  0.00000000000E+00 0. -1.
        -12    1    5    5    0    0  0.52916679333E+02 -0.27144340574E+02  0.38006950170E+02  0.70579872755E+02  0.00000000000E+00 0.  1.
          5    1    4    4  501    0  0.54670337259E+02  0.15273089695E+03 -0.14123093221E+02  0.16288801927E+03  0.41800000000E+01 0.  1.
         -5    1    4    4    0  501 -0.14740248992E+02 -0.14522593573E+02  0.18070733759E+02  0.27788567488E+02  0.41800000000E+01 0.  1.
</event>
<event>
11    1  0.6930157E-009  0.1728742E+03  0.7561462E-02  0.1075557E+00
         22   -1    0    0    0    0  0.00000000000E+00  0.00000000000E+00  0.12006994161E+04  0.12006994161E+04  0.00000000000E+00 0.  1.
         22   -1    0    0    0    0 -0.00000000000E+00 -0.00000000000E+00 -0.10605341551E+04  0.10605341551E+04  0.00000000000E+00 0.  1.
         24    2    1    2    0    0 -0.48449834945E+02 -0.81227952459E+02 -0.10338204546E+04  0.10411972842E+04  0.79760175687E+02 0.  0.
         25    2    1    2    0    0  0.11885278084E+03 -0.30017357189E+02  0.54697554039E+03  0.57433067164E+03  0.12508578394E+03 0.  0.
        -24    2    1    2    0    0 -0.70402945898E+02  0.11124530965E+03  0.62701017522E+03  0.64570561528E+03  0.80385869808E+02 0.  0.
        -11    1    3    3    0    0 -0.21123213917E+01 -0.62425055951E+02 -0.78004535024E+03  0.78254207423E+03  0.00000000000E+00 0.  1.
         12    1    3    3    0    0 -0.46337513554E+02 -0.18802896508E+02 -0.25377510433E+03  0.25865521000E+03  0.00000000000E+00 0. -1.
         13    1    5    5    0    0 -0.73516262038E+02  0.98257504971E+02  0.40232971496E+03  0.42062855063E+03  0.00000000000E+00 0. -1.
        -14    1    5    5    0    0  0.31133161397E+01  0.12987804677E+02  0.22468046026E+03  0.22507706465E+03  0.00000000000E+00 0.  1.
          5    1    4    4  501    0  0.91124924798E+02 -0.48741376852E+01  0.15038881269E+03  0.17595958775E+03  0.41800000000E+01 0. -1.
         -5    1    4    4    0  501  0.27727856045E+02 -0.25143219504E+02  0.39658672770E+03  0.39837108389E+03  0.41800000000E+01 0. -1.
</event>
<event>
11    1  0.6930157E-009  0.1583460E+03  0.7561462E-02  0.1088643E+00
         22   -1    0    0    0    0  0.00000000000E+00  0.00000000000E+00  0.82872220426E+03  0.82872220426E+03  0.00000000000E+00 0.  1.
         22   -1    0    0    0    0 -0.00000000000E+00 -0.00000000000E+00 -0.34361220859E+03  0.34361220859E+03  0.00000000000E+00 0. -1.
         24    2    1    2    0    0 -0.34577358665E+02  0.89276357288E+02 -0.29450200053E+03  0.31959629542E+03  0.79022161609E+02 0.  0.
         25    2    1    2    0    0  0.38505796130E+02 -0.11541366354E+03  0.19371302253E+03  0.26072011473E+03  0.12508890063E+03 0.  0.
        -24    2    1    2    0    0 -0.39284374643E+01  0.26137306257E+02  0.58589897367E+03  0.59201800270E+03  0.80679097523E+02 0.  0.
        -11    1    3    3    0    0 -0.41486338001E+02  0.83202613602E+02 -0.16205675156E+03  0.18683196160E+03  0.00000000000E+00 0.  1.
         12    1    3    3    0    0  0.69089793355E+01  0.60737436861E+01 -0.13244524897E+03  0.13276433382E+03  0.00000000000E+00 0. -1.
         13    1    5    5    0    0 -0.35872470472E+02  0.14147465791E+02  0.45883993801E+03  0.46045746127E+03  0.00000000000E+00 0. -1.
        -14    1    5    5    0    0  0.31944033008E+02  0.11989840465E+02  0.12705903566E+03  0.13156054143E+03  0.00000000000E+00 0.  1.
          5    1    4    4  501    0  0.51602463521E+01 -0.13140771154E+03  0.17533028881E+03  0.21920948284E+03  0.41800000000E+01 0.  1.
         -5    1    4    4    0  501  0.33345549778E+02  0.15994047991E+02  0.18382733721E+02  0.41510631893E+02  0.41800000000E+01 0.  1.
</event>
<event>
11    1  0.6930157E-009  0.1849185E+03  0.7561462E-02  0.1065732E+00
         22   -1    0    0    0    0  0.00000000000E+00  0.00000000000E+00  0.35202993652E+03  0.35202993652E+03  0.00000000000E+00 0. -1.
         22   -1    0    0    0    0 -0.00000000000E+00 -0.00000000000E+00 -0.41742918426E+03  0.41742918426E+03  0.00000000000E+00 0. -1.
         24    2    1    2    0    0 -0.10873350238E+02 -0.21413270379E+02 -0.22246993254E+03  0.23756297069E+03  0.79790577542E+02 0.  0.
         25    2    1    2    0    0  0.13716657716E+03 -0.28810655274E+02 -0.11300895096E+03  0.21923288265E+03  0.12508920853E+03 0.  0.
        -24    2    1    2    0    0 -0.12629322692E+03  0.50223925653E+02  0.27007963575E+03  0.31266326744E+03  0.79642245621E+02 0.  0.
        -11    1    3    3    0    0 -0.12329491247E+02 -0.38251840813E+02 -0.49462473069E+02  0.63731906625E+02  0.00000000000E+00 0.  1.
         12    1    3    3    0    0  0.14561410091E+01  0.16838570434E+02 -0.17300745947E+03  0.17383106406E+03  0.00000000000E+00 0. -1.
         13    1    5    5    0    0 -0.12927821783E+03  0.24465665268E+02  0.22351089784E+03  0.25936180875E+03  0.00000000000E+00 0. -1.
        -14    1    5    5    0    0  0.29849909107E+01  0.25758260385E+02  0.46568737906E+02  0.53301458695E+02  0.00000000000E+00 0.  1.
          5    1    4    4  501    0  0.11679271674E+02  0.41933901434E+02 -0.27517687483E+02  0.51667717201E+02  0.41800000000E+01 0.  1.
         -5    1    4    4    0  501  0.12548730548E+03 -0.70744556708E+02 -0.85491263474E+02  0.16756516545E+03  0.41800000000E+01 0.  1.
</event>
<event>
11    1  0.6930157E-009  0.2264337E+03  0.7561462E-02  0.1037260E+00
         22   -1    0    0    0    0  0.00000000000E+00  0.00000000000E+00  0.70100293909E+03  0.70100293909E+03  0.00000000000E+00 0. -1.
         22   -1    0    0    0    0 -0.00000000000E+00 -0.00000000000E+00 -0.39937740221E+03  0.39937740221E+03  0.00000000000E+00 0. -1.
        -24    2    1    2    0    0  0.26674910671E+01 -0.71261198588E+02 -0.14988701653E+03  0.18402296761E+03  0.79454772997E+02 0.  0.
         25    2    1    2    0    0 -0.19052964095E+03  0.49608166470E+02 -0.14992344635E+03  0.27728346724E+03  0.12508623897E+03 0.  0.
         24    2    1    2    0    0  0.18786214988E+03  0.21653032118E+02  0.60143599976E+03  0.63907390645E+03  0.10454259871E+03 0.  0.
        -13    1    5    5    0    0 -0.11243464716E+02  0.43228249797E+01  0.13478705621E+02  0.18076996980E+02  0.00000000000E+00 0.  1.
         14    1    5    5    0    0  0.19910561460E+03  0.17330207138E+02  0.58795729414E+03  0.62099690947E+03  0.00000000000E+00 0. -1.
         11    1    3    3    0    0  0.16080009632E+02 -0.79570800617E+02 -0.14708196151E+03  0.16799756672E+03  0.00000000000E+00 0. -1.
        -12    1    3    3    0    0 -0.13412518565E+02  0.83096020290E+01 -0.28050550133E+01  0.16025400892E+02  0.00000000000E+00 0.  1.
          5    1    4    4  501    0 -0.15921595548E+03  0.34509470328E+02 -0.17115865840E+03  0.23633320285E+03  0.41800000000E+01 0.  1.
         -5    1    4    4    0  501 -0.31313685468E+02  0.15098696142E+02  0.21235212055E+02  0.40950264392E+02  0.41800000000E+01 0.  1.
</event>
<event>
11    1  0.6930157E-009  0.1374868E+03  0.7561462E-02  0.1110398E+00
         22   -1    0    0    0    0  0.00000000000E+00  0.00000000000E+00  0.80565387816E+03  0.80565387816E+03  0.00000000000E+00 0.  1.
         22   -1    0    0    0    0 -0.00000000000E+00 -0.00000000000E+00 -0.15422082877E+03  0.15422082877E+03  0.00000000000E+00 0. -1.
         24    2    1    2    0    0  0.61037156287E+02 -0.52973141771E+01 -0.77951321620E+02  0.12709857589E+03  0.79523854698E+02 0.  0.
         25    2    1    2    0    0 -0.66736928523E+00 -0.56937862825E+01  0.33511896547E+02  0.12962187860E+03  0.12508365048E+03 0.  0.
        -24    2    1    2    0    0 -0.60369787002E+02  0.10991100460E+02  0.69587247447E+03  0.70315425244E+03  0.80137921925E+02 0.  0.
        -11    1    3    3    0    0  0.28026835685E+02 -0.42186194874E+02 -0.43788945099E+02  0.66952597182E+02  0.00000000000E+00 0.  1.
         12    1    3    3    0    0  0.33010320602E+02  0.36888880697E+02 -0.34162376521E+02  0.60145978709E+02  0.00000000000E+00 0. -1.
         11    1    5    5    0    0 -0.31306326107E+02  0.21949863209E+02  0.10993544177E+03  0.11639451837E+03  0.00000000000E+00 0. -1.
        -12    1    5    5    0    0 -0.29063460894E+02 -0.10958762750E+02  0.58593703269E+03  0.58675973407E+03  0.00000000000E+00 0.  1.
          5    1    4    4  501    0  0.18167375179E+02  0.15464799875E+02  0.75223955302E+02  0.79027396562E+02  0.41800000000E+01 0.  1.
         -5    1    4    4    0  501 -0.18834744464E+02 -0.21158586157E+02 -0.41712058755E+02  0.50594482039E+02  0.41800000000E+01 0.  1.
</event>
<event>
11    1  0.6930157E-009  0.2173786E+03  0.7561462E-02  0.1042872E+00
         22   -1    0    0    0    0  0.00000000000E+00  0.00000000000E+00  0.42933153428E+03  0.42933153428E+03  0.00000000000E+00 0.  1.
         22   -1    0    0    0    0 -0.00000000000E+00 -0.00000000000E+00 -0.19422371242E+04  0.19422371242E+04  0.00000000000E+00 0. -1.
        -24    2    1    2    0    0 -0.19636411652E+02 -0.17487614935E+03 -0.17626041478E+04  0.17732353431E+04  0.81381470957E+02 0.  0.
         25    2    1    2    0    0  0.21988304722E+02  0.20595742086E+03 -0.82700220307E+02  0.25571383548E+03  0.12509314315E+03 0.  0.
         24    2    1    2    0    0 -0.23518930700E+01 -0.31081271511E+02  0.33239877822E+03  0.34261947990E+03  0.76990800768E+02 0.  0.
        -11    1    5    5    0    0 -0.33029369528E+02 -0.37135167400E+02  0.23941168693E+03  0.24451567588E+03  0.00000000000E+00 0.  1.
         12    1    5    5    0    0  0.30677476458E+02  0.60538958887E+01  0.92987091291E+02  0.98103804025E+02  0.00000000000E+00 0. -1.
         13    1    3    3    0    0 -0.27940073758E+02 -0.16041079554E+03 -0.17165255336E+04  0.17242308948E+04  0.00000000000E+00 0. -1.
        -14    1    3    3    0    0  0.83036621058E+01 -0.14465353807E+02 -0.46078614201E+02  0.49004448286E+02  0.00000000000E+00 0.  1.
          5    1    4    4  501    0  0.40367893443E+02  0.12808642677E+03 -0.10724940312E+03  0.17191744069E+03  0.41800000000E+01 0. -1.
         -5    1    4    4    0  501 -0.18379588721E+02  0.77870994087E+02  0.24549182814E+02  0.83796394783E+02  0.41800000000E+01 0. -1.
</event>
<event>
11    1  0.6930157E-009  0.1547171E+03  0.7561462E-02  0.1092154E+00
         22   -1    0    0    0    0  0.00000000000E+00  0.00000000000E+00  0.76711763665E+03  0.76711763665E+03  0.00000000000E+00 0. -1.
         22   -1    0    0    0    0 -0.00000000000E+00 -0.00000000000E+00 -0.60107757845E+03  0.60107757845E+03  0.00000000000E+00 0. -1.
         24    2    1    2    0    0  0.74252502919E+02 -0.55862960359E+02 -0.49302071137E+03  0.50834354428E+03  0.81912347355E+02 0.  0.
         25    2    1    2    0    0 -0.28799327211E+02  0.86178528083E+02 -0.36320794219E+02  0.15879438097E+03  0.12506124653E+03 0.  0.
        -24    2    1    2    0    0 -0.45453175709E+02 -0.30315567723E+02  0.69538156378E+03  0.70105728985E+03  0.70290679200E+02 0.  0.
        -13    1    3    3    0    0  0.77983542431E+02 -0.37072207669E+02 -0.24851312797E+03  0.26308659458E+03  0.00000000000E+00 0.  1.
         14    1    3    3    0    0 -0.37310395114E+01 -0.18790752691E+02 -0.24450758339E+03  0.24525694971E+03  0.00000000000E+00 0. -1.
         11    1    5    5    0    0 -0.46014654768E+02 -0.43031297128E+02  0.66680202565E+03  0.66977158972E+03  0.00000000000E+00 0. -1.
        -12    1    5    5    0    0  0.56147905950E+00  0.12715729404E+02  0.28579538125E+02  0.31285700127E+02  0.00000000000E+00 0.  1.
          5    1    4    4  501    0  0.13370499854E+02  0.99210726059E+02 -0.50559784005E+02  0.11222879573E+03  0.41800000000E+01 0. -1.
         -5    1    4    4    0  501 -0.42169827065E+02 -0.13032197976E+02  0.14238989786E+02  0.46565585242E+02  0.41800000000E+01 0. -1.
</event>
<event>
11    1  0.6930157E-009  0.1615585E+03  0.7561462E-02  0.1085621E+00
         22   -1    0    0    0    0  0.00000000000E+00  0.00000000000E+00  0.34833748041E+03  0.34833748041E+03  0.00000000000E+00 0.  1.
         22   -1    0    0    0    0 -0.00000000000E+00 -0.00000000000E+00 -0.52957788549E+03  0.52957788549E+03  0.00000000000E+00 0.  1.
         24    2    1    2    0    0 -0.53913717712E+02  0.10451208231E+02 -0.44605208789E+03  0.45670095840E+03  0.81224279520E+02 0.  0.
         25    2    1    2    0    0 -0.54951939673E+02  0.27661662925E+02  0.22574042995E+02  0.14121597758E+03  0.12508989423E+03 0.  0.
        -24    2    1    2    0    0  0.10886565739E+03 -0.38112871156E+02  0.24223763981E+03  0.27999842992E+03  0.80098216653E+02 0.  0.
        -11    1    3    3    0    0 -0.67630030604E+02  0.23104174472E+02 -0.25769243272E+03  0.26741917246E+03  0.00000000000E+00 0.  1.
         12    1    3    3    0    0  0.13716312892E+02 -0.12652966242E+02 -0.18835965517E+03  0.18928178594E+03  0.00000000000E+00 0. -1.
         13    1    5    5    0    0 -0.11352803938E+02 -0.50099383636E+01  0.44759439191E+02  0.46447745223E+02  0.00000000000E+00 0. -1.
        -14    1    5    5    0    0  0.12021846132E+03 -0.33102932792E+02  0.19747820062E+03  0.23355068470E+03  0.00000000000E+00 0.  1.
          5    1    4    4  501    0 -0.43563816531E+02 -0.36326193823E+02  0.44799187181E+02  0.72400538952E+02  0.41800000000E+01 0.  1.
         -5    1    4    4    0  501 -0.11388123142E+02  0.63987856748E+02 -0.22225144186E+02  0.68815438631E+02  0.41800000000E+01 0.  1.
</event>
<event>
11    1  0.6930157E-009  0.1702531E+03  0.7561462E-02  0.1077812E+00
         22   -1    0    0    0    0  0.00000000000E+00  0.00000000000E+00  0.28110475686E+03  0.28110475686E+03  0.00000000000E+00 0. -1.
         22   -1    0    0    0    0 -0.00000000000E+00 -0.00000000000E+00 -0.42687779834E+03  0.42687779834E+03  0.00000000000E+00 0.  1.
         24    2    1    2    0    0 -0.26084596280E+02 -0.10289492135E+03 -0.14889172129E+03  0.20026806016E+03  0.81674844644E+02 0.  0.
         25    2    1    2    0    0  0.28829288987E+02  0.12404063740E+03 -0.21184825912E+03  0.27703016299E+03  0.12509523845E+03 0.  0.
        -24    2    1    2    0    0 -0.27446927074E+01 -0.21145716048E+02  0.21496693893E+03  0.23068433205E+03  0.80930844409E+02 0.  0.
        -13    1    3    3    0    0 -0.10300779455E+02 -0.10602478020E+03 -0.15018236827E+03  0.18412523948E+03  0.00000000000E+00 0.  1.
         14    1    3    3    0    0 -0.15783816824E+02  0.31298588511E+01  0.12906469739E+01  0.16142820683E+02  0.00000000000E+00 0. -1.
         13    1    5    5    0    0 -0.26264640628E+02 -0.41239660006E+02  0.16332104310E+03  0.17048256222E+03  0.00000000000E+00 0. -1.
        -14    1    5    5    0    0  0.23519947921E+02  0.20093943958E+02  0.51645895834E+02  0.60201769828E+02  0.00000000000E+00 0.  1.
          5    1    4    4  501    0  0.63548033406E+02  0.11351941600E+03 -0.20002261911E+03  0.23864519881E+03  0.41800000000E+01 0.  1.
         -5    1    4    4    0  501 -0.34718744419E+02  0.10521221398E+02 -0.11825640015E+02  0.38384964185E+02  0.41800000000E+01 0.  1.
</event>
<event>
11    1  0.6930157E-009  0.1472448E+03  0.7561462E-02  0.1099728E+00
         22   -1    0    0    0    0  0.00000000000E+00  0.00000000000E+00  0.30384161753E+03  0.30384161753E+03  0.00000000000E+00 0.  1.
         22   -1    0    0    0    0 -0.00000000000E+00 -0.00000000000E+00 -0.27209218495E+03  0.27209218495E+03  0.00000000000E+00 0.  1.
        -24    2    1    2    0    0  0.52379976026E+02 -0.28638273103E+02 -0.16338038801E+03  0.19057185490E+03  0.77850292980E+02 0.  0.
         25    2    1    2    0    0  0.24900921723E+02  0.59243688486E+02 -0.19572869654E+02  0.14198612591E+03  0.12508833757E+03 0.  0.
         24    2    1    2    0    0 -0.77280897749E+02 -0.30605415383E+02  0.21470269025E+03  0.24337582167E+03  0.78901944000E+02 0.  0.
        -13    1    5    5    0    0 -0.53603851180E+02 -0.46099250748E+02  0.84700780855E+02  0.11033012308E+03  0.00000000000E+00 0.  1.
         14    1    5    5    0    0 -0.23677046569E+02  0.15493835365E+02  0.13000190939E+03  0.13304569859E+03  0.00000000000E+00 0. -1.
         13    1    3    3    0    0 -0.74491015793E+01  0.10395646727E+02 -0.59637173322E+00  0.12802899845E+02  0.00000000000E+00 0. -1.
        -14    1    3    3    0    0  0.59829077605E+02 -0.39033919829E+02 -0.16278401628E+03  0.17776895505E+03  0.00000000000E+00 0.  1.
          5    1    4    4  501    0  0.68225482341E+01 -0.32087645238E+02  0.22225656419E+02  0.39844903622E+02  0.41800000000E+01 0. -1.
         -5    1    4    4    0  501  0.18078373489E+02  0.91331333725E+02 -0.41798526073E+02  0.10214122228E+03  0.41800000000E+01 0. -1.
</event>
<event>
11    1  0.6930157E-009  0.1702282E+03  0.7561462E-02  0.1077833E+00
         22   -1    0    0    0    0  0.00000000000E+00  0.00000000000E+00  0.21357025434E+03  0.21357025434E+03  0.00000000000E+00 0. -1.
         22   -1    0    0    0    0 -0.00000000000E+00 -0.00000000000E+00 -0.48837580035E+03  0.48837580035E+03  0.00000000000E+00 0. -1.
         24    2    1    2    0    0  0.69400725517E+02  0.49893799945E+02 -0.34082701296E+03  0.36074285731E+03  0.81648664205E+02 0.  0.
         25    2    1    2    0    0  0.66436908591E+02 -0.53332672730E+02 -0.33026754794E+02  0.15491110554E+03  0.12509375397E+03 0.  0.
        -24    2    1    2    0    0 -0.13583763411E+03  0.34388727852E+01  0.99048221745E+02  0.18629209184E+03  0.80190426882E+02 0.  0.
        -13    1    3    3    0    0  0.32309128004E+02 -0.16381106814E+02 -0.62492854286E+02  0.72232798988E+02  0.00000000000E+00 0.  1.
         14    1    3    3    0    0  0.37091597513E+02  0.66274906759E+02 -0.27833415867E+03  0.28851005833E+03  0.00000000000E+00 0. -1.
         11    1    5    5    0    0 -0.13284566662E+03  0.14236115068E+01  0.11142885472E+03  0.17339661898E+03  0.00000000000E+00 0. -1.
        -12    1    5    5    0    0 -0.29919674907E+01  0.20152612784E+01 -0.12380632972E+02  0.12895472860E+02  0.00000000000E+00 0.  1.
          5    1    4    4  501    0 -0.13449963188E+02 -0.37646923078E+02 -0.57174908030E+02  0.69890162650E+02  0.41800000000E+01 0.  1.
         -5    1    4    4    0  501  0.79886871779E+02 -0.15685749652E+02  0.24148153236E+02  0.85020942887E+02  0.41800000000E+01 0.  1.
</event>
<event>
11    1  0.6930157E-009  0.2485435E+03  0.7561462E-02  0.1024678E+00
         22   -1    0    0    0    0  0.00000000000E+00  0.00000000000E+00  0.50456395762E+03  0.50456395762E+03  0.00000000000E+00 0. -1.
         22   -1    0    0    0    0 -0.00000000000E+00 -0.00000000000E+00 -0.59873181439E+03  0.59873181439E+03  0.00000000000E+00 0.  1.
         24    2    1    2    0    0  0.49933793290E+02  0.10122403850E+03 -0.46351592805E+03  0.48370393197E+03  0.79892356089E+02 0.  0.
         25    2    1    2    0    0  0.91046714624E+01 -0.27329904675E+03  0.21685330624E+03  0.37073763392E+03  0.12508306351E+03 0.  0.
        -24    2    1    2    0    0 -0.59038464753E+02  0.17207500825E+03  0.15249476504E+03  0.24885420612E+03  0.74688779279E+02 0.  0.
        -11    1    3    3    0    0  0.21610708670E+02  0.84596681414E+02 -0.20104933584E+03  0.21919045754E+03  0.00000000000E+00 0.  1.
         12    1    3    3    0    0  0.28323084620E+02  0.16627357084E+02 -0.26246659221E+03  0.26451347443E+03  0.00000000000E+00 0. -1.
         11    1    5    5    0    0 -0.36504825750E+02  0.73994230567E+02  0.11483385919E+03  0.14140213462E+03  0.00000000000E+00 0. -1.
        -12    1    5    5    0    0 -0.22533639003E+02  0.98080777685E+02  0.37660905858E+02  0.10745207149E+03  0.00000000000E+00 0.  1.
          5    1    4    4  501    0 -0.95755216198E+01 -0.37189547134E+02 -0.12910093781E+02  0.40729546422E+02  0.41800000000E+01 0. -1.
         -5    1    4    4    0  501  0.18680193082E+02 -0.23610949962E+03  0.22976340003E+03  0.33000808750E+03  0.41800000000E+01 0. -1.
</event>
<event>
11    1  0.6930157E-009  0.1797487E+03  0.7561462E-02  0.1069846E+00
         22   -1    0    0    0    0  0.00000000000E+00  0.00000000000E+00  0.70863716591E+03  0.70863716591E+03  0.00000000000E+00 0. -1.
         22   -1    0    0    0    0 -0.00000000000E+00 -0.00000000000E+00 -0.23258663318E+03  0.23258663318E+03  0.00000000000E+00 0.  1.
         24    2    1    2    0    0 -0.36003024503E+02 -0.12123543344E+03 -0.14489548059E+03  0.20808920716E+03  0.79449164548E+02 0.  0.
         25    2    1    2    0    0 -0.65373890460E+01  0.15138770132E+03  0.13657837120E+03  0.23929532550E+03  0.12509047829E+03 0.  0.
        -24    2    1    2    0    0  0.42540413549E+02 -0.30152267882E+02  0.48436764211E+03  0.49383926643E+03  0.80909593403E+02 0.  0.
        -13    1    3    3    0    0  0.34331679140E-01 -0.18860742494E+02 -0.78776046514E+02  0.81002433855E+02  0.00000000000E+00 0.  1.
         14    1    3    3    0    0 -0.36037356182E+02 -0.10237469095E+03 -0.66119434073E+02  0.12708677331E+03  0.00000000000E+00 0. -1.
         11    1    5    5    0    0  0.50997786190E+02 -0.29179769376E+02  0.17988299839E+03  0.18923563683E+03  0.00000000000E+00 0. -1.
        -12    1    5    5    0    0 -0.84573726405E+01 -0.97249850574E+00  0.30448464373E+03  0.30460362961E+03  0.00000000000E+00 0.  1.
          5    1    4    4  501    0 -0.61770954459E+02  0.45962686497E+02  0.60084010563E+02  0.97753670469E+02  0.41800000000E+01 0. -1.
         -5    1    4    4    0  501  0.55233565413E+02  0.10542501483E+03  0.76494360640E+02  0.14154165503E+03  0.41800000000E+01 0. -1.
</event>
<event>
11    1  0.6930157E-009  0.1354759E+03  0.7561462E-02  0.1112718E+00
         22   -1    0    0    0    0  0.00000000000E+00  0.00000000000E+00  0.27694751873E+03  0.27694751873E+03  0.00000000000E+00 0.  1.
         22   -1    0    0    0    0 -0.00000000000E+00 -0.00000000000E+00 -0.33710046923E+03  0.33710046923E+03  0.00000000000E+00 0. -1.
        -24    2    1    2    0    0  0.24813738505E+02 -0.46233317385E+02 -0.23962763966E+03  0.25804020291E+03  0.80063096193E+02 0.  0.
         25    2    1    2    0    0 -0.43495432855E+02  0.31533945369E+02 -0.21606683373E+02  0.13784803330E+03  0.12509591971E+03 0.  0.
         24    2    1    2    0    0  0.18681694351E+02  0.14699372016E+02  0.20108137253E+03  0.21815975175E+03  0.81208876758E+02 0.  0.
        -13    1    5    5    0    0 -0.27901273016E+02  0.24363834603E+02  0.87921537281E+02  0.95405839393E+02  0.00000000000E+00 0.  1.
         14    1    5    5    0    0  0.46582967366E+02 -0.96644625867E+01  0.11315983525E+03  0.12275391236E+03  0.00000000000E+00 0. -1.
         13    1    3    3    0    0  0.48508905522E+02 -0.43407135548E+02 -0.21077570040E+03  0.22059847962E+03  0.00000000000E+00 0. -1.
        -14    1    3    3    0    0 -0.23695167017E+02 -0.28261818378E+01 -0.28851939267E+02  0.37441723294E+02  0.00000000000E+00 0.  1.
          5    1    4    4  501    0 -0.21987214014E+02  0.42203404645E+02  0.45795117202E+02  0.66175751626E+02  0.41800000000E+01 0. -1.
         -5    1    4    4    0  501 -0.21508218841E+02 -0.10669459276E+02 -0.67401800575E+02  0.71672281670E+02  0.41800000000E+01 0. -1.
</event>
<event>
11    1  0.6930157E-009  0.1339816E+03  0.7561462E-02  0.1114471E+00
         22   -1    0    0    0    0  0.00000000000E+00  0.00000000000E+00  0.11663141366E+04  0.11663141366E+04  0.00000000000E+00 0. -1.
         22   -1    0    0    0    0 -0.00000000000E+00 -0.00000000000E+00 -0.14406688782E+03  0.14406688782E+03  0.00000000000E+00 0.  1.
        -24    2    1    2    0    0  0.24490464026E+02  0.39568575841E+02 -0.66948107858E+02  0.11391909807E+03  0.79561653691E+02 0.  0.
         25    2    1    2    0    0 -0.51641204882E+02  0.87501766735E+00  0.37292294068E+02  0.14037853137E+03  0.12509131535E+03 0.  0.
         24    2    1    2    0    0  0.27150740856E+02 -0.40443593509E+02  0.10519030625E+04  0.10560833949E+04  0.80244857109E+02 0.  0.
        -13    1    5    5    0    0 -0.15307501176E+02 -0.30597739258E+02  0.18841788334E+03  0.19149892951E+03  0.00000000000E+00 0.  1.
         14    1    5    5    0    0  0.42458242033E+02 -0.98458542508E+01  0.86348517919E+03  0.86458446542E+03  0.00000000000E+00 0. -1.
         13    1    3    3    0    0  0.25904284914E+02  0.60364179659E+02 -0.31623498238E+02  0.72903441644E+02  0.00000000000E+00 0. -1.
        -14    1    3    3    0    0 -0.14138208878E+01 -0.20795603818E+02 -0.35324609620E+02  0.41015656430E+02  0.00000000000E+00 0.  1.
          5    1    4    4  501    0 -0.23813553463E+02  0.45168430330E+02  0.63607243279E+02  0.81673901735E+02  0.41800000000E+01 0.  1.
         -5    1    4    4    0  501 -0.27827651419E+02 -0.44293412662E+02 -0.26314949211E+02  0.58704629637E+02  0.41800000000E+01 0.  1.
</event>
<event>
11    1  0.6930157E-009  0.1308305E+03  0.7561462E-02  0.1118253E+00
         22   -1    0    0    0    0  0.00000000000E+00  0.00000000000E+00  0.32133384585E+04  0.32133384585E+04  0.00000000000E+00 0. -1.
         22   -1    0    0    0    0 -0.00000000000E+00 -0.00000000000E+00 -0.17207735309E+02  0.17207735309E+02  0.00000000000E+00 0.  1.
         24    2    1    2    0    0 -0.13045988743E+02 -0.37564813458E+02  0.18370326308E+03  0.20468021309E+03  0.81029548527E+02 0.  0.
         25    2    1    2    0    0  0.73852390176E+01 -0.54816892761E+01  0.66770119415E+03  0.67937974111E+03  0.12508939718E+03 0.  0.
        -24    2    1    2    0    0  0.56607497256E+01  0.43046502734E+02  0.23447262660E+04  0.23464862396E+04  0.79820829870E+02 0.  0.
        -13    1    3    3    0    0 -0.22395650044E+02 -0.11123643614E+02  0.72834980333E+01  0.26045151789E+02  0.00000000000E+00 0.  1.
         14    1    3    3    0    0  0.93496613003E+01 -0.26441169844E+02  0.17641976504E+03  0.17863506131E+03  0.00000000000E+00 0. -1.
         13    1    5    5    0    0  0.23224190271E+02  0.22758814631E+02  0.21069016388E+04  0.21071525436E+04  0.00000000000E+00 0. -1.
        -14    1    5    5    0    0 -0.17563440545E+02  0.20287688104E+02  0.23782462722E+03  0.23933369601E+03  0.00000000000E+00 0.  1.
          5    1    4    4  501    0  0.60924216706E+02  0.20869310911E+02  0.39061230502E+03  0.39590748105E+03  0.41800000000E+01 0. -1.
         -5    1    4    4    0  501 -0.53538977688E+02 -0.26351000187E+02  0.27708888913E+03  0.28347226006E+03  0.41800000000E+01 0. -1.
</event>
<event>
11    1  0.6930157E-009  0.1384331E+03  0.7561462E-02  0.1109321E+00
         22   -1    0    0    0    0  0.00000000000E+00  0.00000000000E+00  0.21753427063E+03  0.21753427063E+03  0.00000000000E+00 0.  1.
         22   -1    0    0    0    0 -0.00000000000E+00 -0.00000000000E+00 -0.93388695372E+03  0.93388695372E+03  0.00000000000E+00 0. -1.
         24    2    1    2    0    0 -0.61422604091E+02  0.21154128665E+02 -0.56186000116E+03  0.57125026075E+03  0.80124690676E+02 0.  0.
         25    2    1    2    0    0  0.47946347592E+02  0.71930926936E+01 -0.34552523292E+03  0.37065540098E+03  0.12508855609E+03 0.  0.
        -24    2    1    2    0    0  0.13476256499E+02 -0.28347221358E+02  0.19103255099E+03  0.20951556262E+03  0.80113425802E+02 0.  0.
        -11    1    3    3    0    0 -0.23634808270E+02  0.41137975741E+02 -0.15364834332E+03  0.16080656272E+03  0.00000000000E+00 0.  1.
         12    1    3    3    0    0 -0.37787795821E+02 -0.19983847076E+02 -0.40821165784E+03  0.41044369803E+03  0.00000000000E+00 0. -1.
         11    1    5    5    0    0 -0.13388216262E+02 -0.85883231987E+01  0.32002304421E+00  0.15909306861E+02  0.00000000000E+00 0. -1.
        -12    1    5    5    0    0  0.26864472761E+02 -0.19758898160E+02  0.19071252794E+03  0.19360625576E+03  0.00000000000E+00 0.  1.
          5    1    4    4  501    0 -0.22132668679E+02  0.47589446994E+02 -0.12063744520E+03  0.13162627425E+03  0.41800000000E+01 0. -1.
         -5    1    4    4    0  501  0.70079016271E+02 -0.40396354301E+02 -0.22488778772E+03  0.23902912673E+03  0.41800000000E+01 0. -1.
</event>
<event>
11    1  0.6930157E-009  0.1286603E+03  0.7561462E-02  0.1120926E+00
         22   -1    0    0    0    0  0.00000000000E+00  0.00000000000E+00  0.42741302023E+03  0.42741302023E+03  0.00000000000E+00 0.  1.
         22   -1    0    0    0    0 -0.00000000000E+00 -0.00000000000E+00 -0.96565983335E+02  0.96565983335E+02  0.00000000000E+00 0. -1.
        -24    2    1    2    0    0  0.88340737146E+01  0.22114835115E+02 -0.63474975778E+01  0.84835754330E+02  0.81177014584E+02 0.  0.
         25    2    1    2    0    0 -0.54308306581E+01 -0.49350966114E+02  0.57032578815E+02  0.14616771127E+03  0.12508906025E+03 0.  0.
         24    2    1    2    0    0 -0.34032430565E+01  0.27236130999E+02  0.28016195566E+03  0.29297553796E+03  0.81182236674E+02 0.  0.
        -11    1    5    5    0    0  0.54487837087E+01  0.47918682163E+02  0.25369804175E+03  0.25824133235E+03  0.00000000000E+00 0.  1.
         12    1    5    5    0    0 -0.88520267652E+01 -0.20682551164E+02  0.26463913907E+02  0.34734205616E+02  0.00000000000E+00 0. -1.
         13    1    3    3    0    0 -0.30371605733E+02 -0.21102220835E+01 -0.20408384003E+02  0.36652279733E+02  0.00000000000E+00 0. -1.
        -14    1    3    3    0    0  0.39205679448E+02  0.24225057198E+02  0.14060886425E+02  0.48183474597E+02  0.00000000000E+00 0.  1.
          5    1    4    4  501    0 -0.98755876977E+01 -0.48089025301E+02  0.95360451066E+02  0.10733671140E+03  0.41800000000E+01 0. -1.
         -5    1    4    4    0  501  0.44447570397E+01 -0.12619408127E+01 -0.38327872251E+02  0.38830999872E+02  0.41800000000E+01 0. -1.
</event>
<event>
11    1  0.6930157E-009  0.1312935E+03  0.7561462E-02  0.1117690E+00
         22   -1    0    0    0    0  0.00000000000E+00  0.00000000000E+00  0.28407888963E+03  0.28407888963E+03  0.00000000000E+00 0.  1.
         22   -1    0    0    0    0 -0.00000000000E+00 -0.00000000000E+00 -0.13653822941E+04  0.13653822941E+04  0.00000000000E+00 0. -1.
         24    2    1    2    0    0  0.21053709998E+02  0.82380281862E+01 -0.12101007071E+04  0.12129568843E+04  0.80059716279E+02 0.  0.
         25    2    1    2    0    0 -0.56516496340E+02 -0.23796716180E+02 -0.11267498136E+03  0.17917257479E+03  0.12508701799E+03 0.  0.
        -24    2    1    2    0    0  0.35462786342E+02  0.15558687994E+02  0.24147228399E+03  0.25733172460E+03  0.80069161116E+02 0.  0.
        -11    1    3    3    0    0  0.70811370466E+01 -0.35624966276E+02 -0.62019305133E+03  0.62125574576E+03  0.00000000000E+00 0.  1.
         12    1    3    3    0    0  0.13972572951E+02  0.43862994463E+02 -0.58990765576E+03  0.59170113858E+03  0.00000000000E+00 0. -1.
         13    1    5    5    0    0  0.14586922558E+01 -0.16254712207E+02  0.61403130139E+01  0.17436940556E+02  0.00000000000E+00 0. -1.
        -14    1    5    5    0    0  0.34004094087E+02  0.31813400201E+02  0.23533197098E+03  0.23989478404E+03  0.00000000000E+00 0.  1.
          5    1    4    4  501    0 -0.24344658018E+02  0.45913806433E+02 -0.13823189696E+02  0.53937862106E+02  0.41800000000E+01 0. -1.
         -5    1    4    4    0  501 -0.32171838322E+02 -0.69710522614E+02 -0.98851791667E+02  0.12523471268E+03  0.41800000000E+01 0. -1.
</event>
<event>
11    1  0.6930157E-009  0.1617593E+03  0.7561462E-02  0.1085434E+00
         22   -1    0    0    0    0  0.00000000000E+00  0.00000000000E+00  0.25242553784E+03  0.25242553784E+03  0.00000000000E+00 0. -1.
         22   -1    0    0    0    0 -0.00000000000E+00 -0.00000000000E+00 -0.16736699608E+04  0.16736699608E+04  0.00000000000E+00 0. -1.
         24    2    1    2    0    0 -0.31817384995E+02 -0.50622584108E+02 -0.10741124510E+04  0.10786121261E+04  0.78176525532E+02 0.  0.
         25    2    1    2    0    0  0.10198084768E+03  0.12300266267E+03 -0.56170998472E+03  0.59724106795E+03  0.12509611502E+03 0.  0.
        -24    2    1    2    0    0 -0.70163462681E+02 -0.72380078561E+02  0.21457801275E+03  0.25024230462E+03  0.80098066132E+02 0.  0.
        -13    1    3    3    0    0 -0.23756017428E+01  0.20920916423E+02 -0.23089199185E+03  0.23185003801E+03  0.00000000000E+00 0.  1.
         14    1    3    3    0    0 -0.29441783252E+02 -0.71543500531E+02 -0.84322045912E+03  0.84676208805E+03  0.00000000000E+00 0. -1.
         11    1    5    5    0    0  0.42794672810E+00 -0.38922102587E+02  0.12726090573E+03  0.13308061969E+03  0.00000000000E+00 0. -1.
        -12    1    5    5    0    0 -0.70591409409E+02 -0.33457975974E+02  0.87317107015E+02  0.11716168493E+03  0.00000000000E+00 0.  1.
          5    1    4    4  501    0  0.19947328705E+02 -0.25069598403E+02 -0.67643245321E+02  0.74963069068E+02  0.41800000000E+01 0. -1.
         -5    1    4    4    0  501  0.82033518970E+02  0.14807226107E+03 -0.49406673940E+03  0.52227799888E+03  0.41800000000E+01 0. -1.
</event>
<event>
11    1  0.6930157E-009  0.1997642E+03  0.7561462E-02  0.1054691E+00
         22   -1    0    0    0    0  0.00000000000E+00  0.00000000000E+00  0.88628584981E+03  0.88628584981E+03  0.00000000000E+00 0. -1.
         22   -1    0    0    0    0 -0.00000000000E+00 -0.00000000000E+00 -0.26462730925E+03  0.26462730925E+03  0.00000000000E+00 0. -1.
        -24    2    1    2    0    0 -0.65880400404E+02  0.13507746718E+03 -0.16895923506E+03  0.23992417727E+03  0.80188767486E+02 0.  0.
         25    2    1    2    0    0  0.10261632830E+02 -0.21601514861E+03  0.24143113440E+03  0.34742098074E+03  0.12507797435E+03 0.  0.
         24    2    1    2    0    0  0.55618767574E+02  0.80937681435E+02  0.54918664121E+03  0.56356800105E+03  0.79740637923E+02 0.  0.
        -11    1    5    5    0    0  0.39766818005E+02  0.26744665260E+02  0.10048827324E+03  0.11133090314E+03  0.00000000000E+00 0.  1.
         12    1    5    5    0    0  0.15851949569E+02  0.54193016174E+02  0.44869836797E+03  0.45223709791E+03  0.00000000000E+00 0. -1.
         13    1    3    3    0    0 -0.38714878172E+02  0.13516877713E+03 -0.12439458710E+03  0.18773239839E+03  0.00000000000E+00 0. -1.
        -14    1    3    3    0    0 -0.27165522232E+02 -0.91309956437E-01 -0.44564647952E+02  0.52191778881E+02  0.00000000000E+00 0.  1.
          5    1    4    4  501    0  0.56312037321E+02 -0.16646437416E+03  0.13672418211E+03  0.22269352884E+03  0.41800000000E+01 0. -1.
         -5    1    4    4    0  501 -0.46050404491E+02 -0.49550774453E+02  0.10470695228E+03  0.12472745191E+03  0.41800000000E+01 0. -1.
</event>
<event>
11    1  0.6930157E-009  0.1374391E+03  0.7561462E-02  0.1110452E+00
         22   -1    0    0    0    0  0.00000000000E+00  0.00000000000E+00  0.58332750125E+03  0.58332750125E+03  0.00000000000E+00 0. -1.
         22   -1    0    0    0    0 -0.00000000000E+00 -0.00000000000E+00 -0.44437608684E+03  0.44437608684E+03  0.00000000000E+00 0. -1.
         24    2    1    2    0    0 -0.54896237898E+02  0.30971562622E+02 -0.35080831935E+03  0.36542147197E+03  0.80582508153E+02 0.  0.
         25    2    1    2    0    0  0.25467995450E+00 -0.55903425755E+02 -0.18880692215E+02  0.13830598867E+03  0.12508720194E+03 0.  0.
        -24    2    1    2    0    0  0.54641557943E+02  0.24931863133E+02  0.50864042598E+03  0.52397612746E+03  0.11058300753E+03 0.  0.
        -13    1    3    3    0    0 -0.28598307195E+02 -0.18301922169E+02 -0.56956518432E+02  0.66308887197E+02  0.00000000000E+00 0.  1.
         14    1    3    3    0    0 -0.26297930703E+02  0.49273484791E+02 -0.29385180092E+03  0.29911258477E+03  0.00000000000E+00 0. -1.
         11    1    5    5    0    0  0.75592929939E+02  0.47651954316E+02  0.43551667169E+03  0.44458944109E+03  0.00000000000E+00 0. -1.
        -12    1    5    5    0    0 -0.20951371996E+02 -0.22720091183E+02  0.73123754285E+02  0.79386686368E+02  0.00000000000E+00 0.  1.
          5    1    4    4  501    0  0.69759619626E+01  0.10477934516E+02  0.44348433807E+02  0.46289384725E+02  0.41800000000E+01 0. -1.
         -5    1    4    4    0  501 -0.67212820081E+01 -0.66381360272E+02 -0.63229126022E+02  0.92016603941E+02  0.41800000000E+01 0. -1.
</event>
<event>
11    1  0.8346800E-009  0.1655046E+03  0.7561462E-02  0.1082011E+00
         22   -1    0    0    0    0  0.00000000000E+00  0.00000000000E+00  0.95997937159E+03  0.95997937159E+03  0.00000000000E+00 0. -1.
         22   -1    0    0    0    0 -0.00000000000E+00 -0.00000000000E+00 -0.98453471507E+03  0.98453471507E+03  0.00000000000E+00 0.  1.
        -24    2    1    2    0    0 -0.92971028231E+02  0.69000950430E+00 -0.69583722566E+03  0.70662998758E+03  0.80575471086E+02 0.  0.
         25    2    1    2    0    0  0.17081763033E+03 -0.74306348669E+02 -0.23312876105E+03  0.32358042763E+03  0.12512065230E+03 0.  0.
         24    2    1    2    0    0 -0.77846602100E+02  0.73616339165E+02  0.90441064323E+03  0.91430367145E+03  0.80703984958E+02 0.  0.
        -11    1    5    5    0    0 -0.66607488221E+02  0.14061626471E+02  0.34752014233E+03  0.35412502898E+03  0.00000000000E+00 0.  1.
         12    1    5    5    0    0 -0.11239113880E+02  0.59554712694E+02  0.55689050090E+03  0.56017864247E+03  0.00000000000E+00 0. -1.
         13    1    3    3    0    0 -0.11436340155E+02 -0.32225349013E+02 -0.23563077400E+03  0.23809898078E+03  0.00000000000E+00 0. -1.
        -14    1    3    3    0    0 -0.81534688077E+02  0.32915358517E+02 -0.46020645166E+03  0.46853100680E+03  0.00000000000E+00 0.  1.
          5    1    4    4  501    0  0.97027757068E+02 -0.10273081974E+03 -0.17696351023E+03  0.22649848414E+03  0.41800000000E+01 0.  1.
         -5    1    4    4    0  501  0.73789873264E+02  0.28424471070E+02 -0.56165250822E+02  0.97081943490E+02  0.41800000000E+01 0.  1.
</event>
<event>
11    1  0.6930157E-009  0.1320371E+03  0.7561462E-02  0.1116791E+00
         22   -1    0    0    0    0  0.00000000000E+00  0.00000000000E+00  0.12367286336E+04  0.12367286336E+04  0.00000000000E+00 0.  1.
         22   -1    0    0    0    0 -0.00000000000E+00 -0.00000000000E+00 -0.12354656901E+03  0.12354656901E+03  0.00000000000E+00 0. -1.
         24    2    1    2    0    0 -0.67756491019E+01  0.92169188378E+01 -0.32865206508E+02  0.85295528409E+02  0.77873900340E+02 0.  0.
         25    2    1    2    0    0 -0.19266836788E+02  0.24479194651E+02  0.36901208600E+01  0.12896409695E+03  0.12509068446E+03 0.  0.
        -24    2    1    2    0    0  0.26042485890E+02 -0.33696113489E+02  0.11423571502E+04  0.11460155772E+04  0.80982748127E+02 0.  0.
        -11    1    3    3    0    0 -0.41100441244E+01 -0.19865201913E+02  0.17687191207E+02  0.26913852243E+02  0.00000000000E+00 0.  1.
         12    1    3    3    0    0 -0.26656049775E+01  0.29082120751E+02 -0.50552397715E+02  0.58381676166E+02  0.00000000000E+00 0. -1.
         11    1    5    5    0    0  0.53336152222E+02 -0.10247537943E+02  0.59335315130E+03  0.59583363393E+03  0.00000000000E+00 0. -1.
        -12    1    5    5    0    0 -0.27293666332E+02 -0.23448575546E+02  0.54900399890E+03  0.55018194330E+03  0.00000000000E+00 0.  1.
          5    1    4    4  501    0 -0.24966789830E+02  0.36275990258E+02  0.57998043777E+02  0.72941987535E+02  0.41800000000E+01 0. -1.
         -5    1    4    4    0  501  0.56999530419E+01 -0.11796795608E+02 -0.54307922917E+02  0.56022109411E+02  0.41800000000E+01 0. -1.
</event>
<event>
11    1  0.6930157E-009  0.1289937E+03  0.7561462E-02  0.1120512E+00
         22   -1    0    0    0    0  0.00000000000E+00  0.00000000000E+00  0.21890718546E+03  0.21890718546E+03  0.00000000000E+00 0.  1.
         22   -1    0    0    0    0 -0.00000000000E+00 -0.00000000000E+00 -0.25714777951E+03  0.25714777951E+03  0.00000000000E+00 0.  1.
         24    2    1    2    0    0  0.24236755966E+02  0.22567418639E+02 -0.88306817727E+02  0.12457213154E+03  0.81384354615E+02 0.  0.
         25    2    1    2    0    0 -0.35770365288E+01 -0.33965215293E+02 -0.11045459672E+03  0.17033436832E+03  0.12508856084E+03 0.  0.
        -24    2    1    2    0    0 -0.20659719437E+02  0.11397796654E+02  0.16052082040E+03  0.18114846511E+03  0.80567355995E+02 0.  0.
        -13    1    3    3    0    0  0.48222908304E+02  0.24569076237E+02 -0.84290614267E+02  0.10016983601E+03  0.00000000000E+00 0.  1.
         14    1    3    3    0    0 -0.23986152338E+02 -0.20016575972E+01 -0.40162034597E+01  0.24402295534E+02  0.00000000000E+00 0. -1.
         11    1    5    5    0    0  0.64817964017E+01  0.35056455926E+01 -0.76481458589E+01  0.10620610655E+02  0.00000000000E+00 0. -1.
        -12    1    5    5    0    0 -0.27141515839E+02  0.78921510611E+01  0.16816896626E+03  0.17052785445E+03  0.00000000000E+00 0.  1.
          5    1    4    4  501    0 -0.21726599976E+02  0.43935679738E+02 -0.48420249778E+02  0.69024503541E+02  0.41800000000E+01 0. -1.
         -5    1    4    4    0  501  0.18149563447E+02 -0.77900895031E+02 -0.62034346944E+02  0.10130986477E+03  0.41800000000E+01 0. -1.
</event>
<event>
11    1  0.6930157E-009  0.1333612E+03  0.7561462E-02  0.1115207E+00
         22   -1    0    0    0    0  0.00000000000E+00  0.00000000000E+00  0.48952715617E+03  0.48952715617E+03  0.00000000000E+00 0. -1.
         22   -1    0    0    0    0 -0.00000000000E+00 -0.00000000000E+00 -0.19437028925E+03  0.19437028925E+03  0.00000000000E+00 0. -1.
        -24    2    1    2    0    0 -0.19295925796E+02 -0.70196489276E+01 -0.13780240275E+03  0.16050859128E+03  0.79698792010E+02 0.  0.
         25    2    1    2    0    0 -0.29021605366E+02 -0.16675471193E+01  0.67506407642E+02  0.14508966554E+03  0.12509541032E+03 0.  0.
         24    2    1    2    0    0  0.48317531162E+02  0.86871960469E+01  0.36545286203E+03  0.37829918859E+03  0.84524733252E+02 0.  0.
        -11    1    5    5    0    0  0.25749696482E+02 -0.74791961903E+01  0.24822872334E+02  0.36539844492E+02  0.00000000000E+00 0.  1.
         12    1    5    5    0    0  0.22567834680E+02  0.16166392237E+02  0.34062998969E+03  0.34175934410E+03  0.00000000000E+00 0. -1.
         13    1    3    3    0    0  0.15274566694E+02 -0.14990858016E+02 -0.11790616289E+03  0.11983280628E+03  0.00000000000E+00 0. -1.
        -14    1    3    3    0    0 -0.34570492490E+02  0.79712090883E+01 -0.19896239856E+02  0.40675785005E+02  0.00000000000E+00 0.  1.
          5    1    4    4  501    0  0.32570785077E+01 -0.55166202203E+02  0.60548725091E+02  0.82082512973E+02  0.41800000000E+01 0. -1.
         -5    1    4    4    0  501 -0.32278683874E+02  0.53498655083E+02  0.69576825507E+01  0.63007152569E+02  0.41800000000E+01 0. -1.
</event>
<event>
11    1  0.6930157E-009  0.1349851E+03  0.7561462E-02  0.1113291E+00
         22   -1    0    0    0    0  0.00000000000E+00  0.00000000000E+00  0.43221865536E+03  0.43221865536E+03  0.00000000000E+00 0.  1.
         22   -1    0    0    0    0 -0.00000000000E+00 -0.00000000000E+00 -0.25460629889E+04  0.25460629889E+04  0.00000000000E+00 0. -1.
         24    2    1    2    0    0  0.18071995849E+02  0.47198946457E+02 -0.23631182886E+04  0.23650942455E+04  0.82391788721E+02 0.  0.
         25    2    1    2    0    0 -0.59663050149E+02 -0.36697370846E+02 -0.14797695715E+03  0.20603725934E+03  0.12509115001E+03 0.  0.
        -24    2    1    2    0    0  0.41591054301E+02 -0.10501575611E+02  0.39725091221E+03  0.40715013936E+03  0.78248641174E+02 0.  0.
        -11    1    3    3    0    0  0.60466596155E+01  0.14814739367E+01 -0.12162293392E+02  0.13663024486E+02  0.00000000000E+00 0.  1.
         12    1    3    3    0    0  0.12025336233E+02  0.45717472521E+02 -0.23509559952E+04  0.23514312210E+04  0.00000000000E+00 0. -1.
         11    1    5    5    0    0  0.29908308517E+02  0.19699523155E+02  0.73261144371E+02  0.81546142799E+02  0.00000000000E+00 0. -1.
        -12    1    5    5    0    0  0.11682745784E+02 -0.30201098766E+02  0.32398976784E+03  0.32560399656E+03  0.00000000000E+00 0.  1.
          5    1    4    4  501    0 -0.41469491068E+02  0.39681881633E+02 -0.95523287402E+02  0.11151924164E+03  0.41800000000E+01 0.  1.
         -5    1    4    4    0  501 -0.18193559081E+02 -0.76379252479E+02 -0.52453669747E+02  0.94518017707E+02  0.41800000000E+01 0.  1.
</event>
<event>
11    1  0.6930157E-009  0.1267580E+03  0.7561462E-02  0.1123318E+00
         22   -1    0    0    0    0  0.00000000000E+00  0.00000000000E+00  0.17172285444E+04  0.17172285444E+04  0.00000000000E+00 0.  1.
         22   -1    0    0    0    0 -0.00000000000E+00 -0.00000000000E+00 -0.31319670175E+02  0.31319670175E+02  0.00000000000E+00 0.  1.
         24    2    1    2    0    0  0.10409370339E+02  0.16374950691E+02  0.58821302063E+02  0.10252170635E+03  0.81696148592E+02 0.  0.
         25    2    1    2    0    0 -0.36002082363E+02 -0.71850128328E+01  0.52917985796E+03  0.54500210918E+03  0.12509277598E+03 0.  0.
        -24    2    1    2    0    0  0.25592712024E+02 -0.91899378578E+01  0.10979077142E+04  0.11010243991E+04  0.78191665285E+02 0.  0.
        -11    1    3    3    0    0 -0.85641388833E+01  0.42862687996E+02  0.11728090834E+02  0.45255967691E+02  0.00000000000E+00 0.  1.
         12    1    3    3    0    0  0.18973509223E+02 -0.26487737306E+02  0.47093211229E+02  0.57265738655E+02  0.00000000000E+00 0. -1.
         11    1    5    5    0    0  0.33938815399E+01 -0.79594716838E+01  0.11512493647E+02  0.14401705849E+02  0.00000000000E+00 0. -1.
        -12    1    5    5    0    0  0.22198830484E+02 -0.12304661740E+01  0.10863952206E+04  0.10866226932E+04  0.00000000000E+00 0.  1.
          5    1    4    4  501    0 -0.15750973923E+02  0.46330380765E+02  0.94001134332E+02  0.10605792293E+03  0.41800000000E+01 0. -1.
         -5    1    4    4    0  501 -0.20251108441E+02 -0.53515393598E+02  0.43517872363E+03  0.43894418625E+03  0.41800000000E+01 0. -1.
</event>
<event>
11    1  0.6930157E-009  0.1653737E+03  0.7561462E-02  0.1082129E+00
         22   -1    0    0    0    0  0.00000000000E+00  0.00000000000E+00  0.48332924331E+03  0.48332924331E+03  0.00000000000E+00 0.  1.
         22   -1    0    0    0    0 -0.00000000000E+00 -0.00000000000E+00 -0.15818626086E+04  0.15818626086E+04  0.00000000000E+00 0. -1.
        -24    2    1    2    0    0  0.55170658674E+02  0.58880438864E+02 -0.15256381350E+04  0.15298776002E+04  0.80268580072E+02 0.  0.
         25    2    1    2    0    0 -0.92681350961E+02 -0.13014354200E+03  0.25849406726E+03  0.32862319080E+03  0.12508734702E+03 0.  0.
         24    2    1    2    0    0  0.37510692286E+02  0.71263103139E+02  0.16861070248E+03  0.20669106090E+03  0.88352384008E+02 0.  0.
        -11    1    5    5    0    0  0.58684733164E+02  0.65463976919E+02  0.16102712122E+03  0.18346433972E+03  0.00000000000E+00 0.  1.
         12    1    5    5    0    0 -0.21174040877E+02  0.57991262207E+01  0.75835812601E+01  0.23226721179E+02  0.00000000000E+00 0. -1.
         13    1    3    3    0    0  0.13655814971E+02  0.57927447588E+02 -0.12175249691E+04  0.12189787204E+04  0.00000000000E+00 0. -1.
        -14    1    3    3    0    0  0.41514843703E+02  0.95299127615E+00 -0.30811316587E+03  0.31089887974E+03  0.00000000000E+00 0.  1.
          5    1    4    4  501    0 -0.15917470131E+02 -0.10927345134E+03  0.20431536696E+03  0.23228494268E+03  0.41800000000E+01 0. -1.
         -5    1    4    4    0  501 -0.76763880830E+02 -0.20870090663E+02  0.54178700301E+02  0.96338248119E+02  0.41800000000E+01 0. -1.
</event>
<event>
11    1  0.6930157E-009  0.1581152E+03  0.7561462E-02  0.1088863E+00
         22   -1    0    0    0    0  0.00000000000E+00  0.00000000000E+00  0.16582888317E+04  0.16582888317E+04  0.00000000000E+00 0.  1.
         22   -1    0    0    0    0 -0.00000000000E+00 -0.00000000000E+00 -0.38794176536E+03  0.38794176536E+03  0.00000000000E+00 0. -1.
         24    2    1    2    0    0  0.79879159573E+01 -0.10394580865E+02 -0.35957834218E+03  0.36849168226E+03  0.79483844985E+02 0.  0.
         25    2    1    2    0    0  0.22536556586E+02  0.10122803741E+03  0.29311966151E+03  0.33514166286E+03  0.12508311749E+03 0.  0.
        -24    2    1    2    0    0 -0.30524472543E+02 -0.90833456543E+02  0.13368057470E+04  0.13425972519E+04  0.79594694696E+02 0.  0.
        -13    1    3    3    0    0 -0.42708542672E+01  0.24677106521E+02 -0.43160621628E+02  0.49900290999E+02  0.00000000000E+00 0.  1.
         14    1    3    3    0    0  0.12258770225E+02 -0.35071687386E+02 -0.31641772055E+03  0.31859139126E+03  0.00000000000E+00 0. -1.
         11    1    5    5    0    0  0.35492889638E-01  0.12960590295E+02  0.70818584885E+02  0.71994792350E+02  0.00000000000E+00 0. -1.
        -12    1    5    5    0    0 -0.30559965433E+02 -0.10379404684E+03  0.12659871621E+04  0.12706024595E+04  0.00000000000E+00 0.  1.
          5    1    4    4  501    0  0.37157324882E+02  0.12441281734E+03  0.26756266157E+03  0.29743312892E+03  0.41800000000E+01 0. -1.
         -5    1    4    4    0  501 -0.14620768296E+02 -0.23184779935E+02  0.25556999947E+02  0.37708533947E+02  0.41800000000E+01 0. -1.
</event>
<event>
11    1  0.6930157E-009  0.1440556E+03  0.7561462E-02  0.1103112E+00
         22   -1    0    0    0    0  0.00000000000E+00  0.00000000000E+00  0.23682782858E+03  0.23682782858E+03  0.00000000000E+00 0.  1.
         22   -1    0    0    0    0 -0.00000000000E+00 -0.00000000000E+00 -0.37267487956E+03  0.37267487956E+03  0.00000000000E+00 0.  1.
         24    2    1    2    0    0 -0.58919317395E+02  0.23658578140E+02 -0.17817520039E+03  0.20584583854E+03  0.81208946128E+02 0.  0.
         25    2    1    2    0    0  0.93343533570E+02 -0.12049011634E+02 -0.13368626251E+03  0.20585836165E+03  0.12508978510E+03 0.  0.
        -24    2    1    2    0    0 -0.34424216175E+02 -0.11609566505E+02  0.17601441191E+03  0.19779850795E+03  0.82603679398E+02 0.  0.
        -11    1    3    3    0    0 -0.57237492192E+01 -0.19060148770E+02 -0.10054849666E+03  0.10249902807E+03  0.00000000000E+00 0.  1.
         12    1    3    3    0    0 -0.53195568176E+02  0.42718726910E+02 -0.77626703731E+02  0.10334681047E+03  0.00000000000E+00 0. -1.
         13    1    5    5    0    0 -0.58764067383E+01 -0.37029190335E+02  0.33606388779E+02  0.50349602379E+02  0.00000000000E+00 0. -1.
        -14    1    5    5    0    0 -0.28547809437E+02  0.25419623829E+02  0.14240802314E+03  0.14744890557E+03  0.00000000000E+00 0.  1.
          5    1    4    4  501    0 -0.94759136140E+01 -0.11979330441E+02 -0.94385212652E+02  0.95704430744E+02  0.41800000000E+01 0. -1.
         -5    1    4    4    0  501  0.10281944718E+03 -0.69681193957E-01 -0.39301049861E+02  0.11015393091E+03  0.41800000000E+01 0. -1.
</event>
<event>
11    1  0.6930157E-009  0.1270572E+03  0.7561462E-02  0.1122939E+00
         22   -1    0    0    0    0  0.00000000000E+00  0.00000000000E+00  0.20411988781E+04  0.20411988781E+04  0.00000000000E+00 0. -1.
         22   -1    0    0    0    0 -0.00000000000E+00 -0.00000000000E+00 -0.36950656418E+02  0.36950656418E+02  0.00000000000E+00 0.  1.
         24    2    1    2    0    0 -0.26271220848E+02 -0.33073473507E+01  0.45506053543E+02  0.94545384297E+02  0.78529696239E+02 0.  0.
         25    2    1    2    0    0  0.20869292222E+01  0.69622306368E+01  0.33416635745E+03  0.35688582127E+03  0.12508999579E+03 0.  0.
        -24    2    1    2    0    0  0.24184291625E+02 -0.36548832860E+01  0.16245758107E+04  0.16267183290E+04  0.79797988219E+02 0.  0.
        -11    1    3    3    0    0  0.97451032286E+01 -0.21477120180E+02 -0.10258859859E+02  0.25719213319E+02  0.00000000000E+00 0.  1.
         12    1    3    3    0    0 -0.36016324076E+02  0.18169772829E+02  0.55764913403E+02  0.68826170978E+02  0.00000000000E+00 0. -1.
         13    1    5    5    0    0 -0.85508452264E+01  0.14301558281E+02  0.12829660056E+04  0.12830742080E+04  0.00000000000E+00 0. -1.
        -14    1    5    5    0    0  0.32735136852E+02 -0.17956441567E+02  0.34160980507E+03  0.34364412100E+03  0.00000000000E+00 0.  1.
          5    1    4    4  501    0 -0.89319098622E+01  0.64479251442E+02  0.20186300293E+03  0.21214027725E+03  0.41800000000E+01 0. -1.
         -5    1    4    4    0  501  0.11018839084E+02 -0.57517020806E+02  0.13230335452E+03  0.14474554402E+03  0.41800000000E+01 0. -1.
</event>
<event>
11    1  0.6930157E-009  0.1900494E+03  0.7561462E-02  0.1061792E+00
         22   -1    0    0    0    0  0.00000000000E+00  0.00000000000E+00  0.33651942479E+03  0.33651942479E+03  0.00000000000E+00 0.  1.
         22   -1    0    0    0    0 -0.00000000000E+00 -0.00000000000E+00 -0.66116652731E+03  0.66116652731E+03  0.00000000000E+00 0. -1.
         24    2    1    2    0    0  0.32932435996E+02  0.47533890319E+02 -0.44581293739E+03  0.46034537503E+03  0.99119488987E+02 0.  0.
         25    2    1    2    0    0  0.37236457218E+02 -0.16857731234E+03 -0.12032570981E+03  0.24481013240E+03  0.12509540559E+03 0.  0.
        -24    2    1    2    0    0 -0.70168893214E+02  0.12104342203E+03  0.24149154468E+03  0.29253044467E+03  0.87639667482E+02 0.  0.
        -13    1    3    3    0    0  0.40349717059E+02  0.56517242265E+02 -0.16153768076E+03  0.17583151210E+03  0.00000000000E+00 0.  1.
         14    1    3    3    0    0 -0.74172810630E+01 -0.89833519462E+01 -0.28427525662E+03  0.28451386293E+03  0.00000000000E+00 0. -1.
         13    1    5    5    0    0 -0.62566763000E+02  0.24135979883E+02  0.11319107771E+03  0.13156506159E+03  0.00000000000E+00 0. -1.
        -14    1    5    5    0    0 -0.76021302144E+01  0.96907442143E+02  0.12830046697E+03  0.16096538308E+03  0.00000000000E+00 0.  1.
          5    1    4    4  501    0  0.77200622209E+01 -0.86041279386E+02  0.10663162873E+02  0.87142851466E+02  0.41800000000E+01 0.  1.
         -5    1    4    4    0  501  0.29516394998E+02 -0.82536032958E+02 -0.13098887268E+03  0.15766728093E+03  0.41800000000E+01 0.  1.
</event>
<event>
11    1  0.6930157E-009  0.1433303E+03  0.7561462E-02  0.1103896E+00
         22   -1    0    0    0    0  0.00000000000E+00  0.00000000000E+00  0.10605892525E+03  0.10605892525E+03  0.00000000000E+00 0.  1.
         22   -1    0    0    0    0 -0.00000000000E+00 -0.00000000000E+00 -0.49240576537E+03  0.49240576537E+03  0.00000000000E+00 0. -1.
        -24    2    1    2    0    0  0.28737964100E+02  0.27250739389E+01 -0.13796236464E+03  0.16206858690E+03  0.79995726103E+02 0.  0.
         25    2    1    2    0    0  0.16047535498E+02 -0.58587922853E+02 -0.29049594209E+03  0.32206401500E+03  0.12508904544E+03 0.  0.
         24    2    1    2    0    0 -0.44785499598E+02  0.55862848914E+02  0.42111466605E+02  0.11433208873E+03  0.78562408506E+02 0.  0.
        -13    1    5    5    0    0 -0.44064754745E+02  0.68690962544E+02  0.13168354417E+02  0.82665328306E+02  0.00000000000E+00 0.  1.
         14    1    5    5    0    0 -0.72074485302E+00 -0.12828113630E+02  0.28943112188E+02  0.31666760421E+02  0.00000000000E+00 0. -1.
         11    1    3    3    0    0 -0.31508726466E+01  0.34126994017E+02 -0.31367834692E+02  0.46459883473E+02  0.00000000000E+00 0. -1.
        -12    1    3    3    0    0  0.31888836747E+02 -0.31401920078E+02 -0.10659452994E+03  0.11560870343E+03  0.00000000000E+00 0.  1.
          5    1    4    4  501    0  0.59134358026E+01 -0.89225022948E+02 -0.26786840690E+03  0.28243057423E+03  0.41800000000E+01 0.  1.
         -5    1    4    4    0  501  0.10134099696E+02  0.30637100096E+02 -0.22627535190E+02  0.39633440775E+02  0.41800000000E+01 0.  1.
</event>
<event>
11    1  0.6930157E-009  0.1596510E+03  0.7561462E-02  0.1087406E+00
         22   -1    0    0    0    0  0.00000000000E+00  0.00000000000E+00  0.15958543823E+04  0.15958543823E+04  0.00000000000E+00 0.  1.
         22   -1    0    0    0    0 -0.00000000000E+00 -0.00000000000E+00 -0.13674817594E+04  0.13674817594E+04  0.00000000000E+00 0.  1.
         24    2    1    2    0    0  0.72981861845E+02 -0.64293760852E+02 -0.12335843284E+04  0.12402731520E+04  0.84185250438E+02 0.  0.
         25    2    1    2    0    0 -0.15902312437E+03  0.40826742750E+02 -0.45026563933E+02  0.21125815152E+03  0.12508972026E+03 0.  0.
        -24    2    1    2    0    0  0.86041262528E+02  0.23467018102E+02  0.15069835153E+04  0.15118048383E+04  0.81245023458E+02 0.  0.
        -13    1    3    3    0    0  0.84131520072E+02 -0.63894340621E+02 -0.12044735408E+04  0.12090976428E+04  0.00000000000E+00 0.  1.
         14    1    3    3    0    0 -0.11149658227E+02 -0.39942023089E+00 -0.29110787594E+02  0.31175509129E+02  0.00000000000E+00 0. -1.
         11    1    5    5    0    0 -0.11694477129E+02  0.43208919667E+01  0.44171090784E+03  0.44188681470E+03  0.00000000000E+00 0. -1.
        -12    1    5    5    0    0  0.97735739657E+02  0.19146126135E+02  0.10652726074E+04  0.10699180236E+04  0.00000000000E+00 0.  1.
          5    1    4    4  501    0 -0.88756934708E+02  0.85052615344E+02 -0.21534508806E+02  0.12487172741E+03  0.41800000000E+01 0.  1.
         -5    1    4    4    0  501 -0.70266189666E+02 -0.44225872594E+02 -0.23492055127E+02  0.86386424112E+02  0.41800000000E+01 0.  1.
</event>
<event>
11    1  0.6930157E-009  0.1493314E+03  0.7561462E-02  0.1097564E+00
         22   -1    0    0    0    0  0.00000000000E+00  0.00000000000E+00  0.60421828881E+02  0.60421828881E+02  0.00000000000E+00 0.  1.
         22   -1    0    0    0    0 -0.00000000000E+00 -0.00000000000E+00 -0.16111310107E+04  0.16111310107E+04  0.00000000000E+00 0. -1.
        -24    2    1    2    0    0 -0.63295275261E+02 -0.45883807733E+02 -0.12435580633E+04  0.12484497441E+04  0.77964677057E+02 0.  0.
         25    2    1    2    0    0  0.12671969027E+03  0.57850518458E+02 -0.18107982792E+03  0.26045898827E+03  0.12507764830E+03 0.  0.
         24    2    1    2    0    0 -0.63424415008E+02 -0.11966710725E+02 -0.12607129052E+03  0.16264410721E+03  0.79957968532E+02 0.  0.
        -13    1    5    5    0    0 -0.71182449843E+02 -0.24144800586E+02 -0.63407696431E+02  0.98338438709E+02  0.00000000000E+00 0.  1.
         14    1    5    5    0    0  0.77580348351E+01  0.12178089861E+02 -0.62663594086E+02  0.64305668498E+02  0.00000000000E+00 0. -1.
         11    1    3    3    0    0 -0.77645202553E+01 -0.53713288759E+02 -0.63169449740E+03  0.63402156368E+03  0.00000000000E+00 0. -1.
        -12    1    3    3    0    0 -0.55530755006E+02  0.78294810259E+01 -0.61186356595E+03  0.61442818039E+03  0.00000000000E+00 0.  1.
          5    1    4    4  501    0  0.10937054135E+02 -0.19474079166E+02 -0.92815834524E+02  0.95556844082E+02  0.41800000000E+01 0. -1.
         -5    1    4    4    0  501  0.11578263613E+03  0.77324597625E+02 -0.88263993396E+02  0.16490214419E+03  0.41800000000E+01 0. -1.
</event>
<event>
11    1  0.6930157E-009  0.1351697E+03  0.7561462E-02  0.1113075E+00
         22   -1    0    0    0    0  0.00000000000E+00  0.00000000000E+00  0.14525667045E+04  0.14525667045E+04  0.00000000000E+00 0. -1.
         22   -1    0    0    0    0 -0.00000000000E+00 -0.00000000000E+00 -0.67732566254E+02  0.67732566254E+02  0.00000000000E+00 0.  1.
         24    2    1    2    0    0  0.15774958373E+02  0.25029843073E+02 -0.85416873507E+01  0.85518299922E+02  0.79781431692E+02 0.  0.
         25    2    1    2    0    0  0.27090063428E+02 -0.52845858054E+02  0.23764900755E+03  0.27504771666E+03  0.12509052482E+03 0.  0.
        -24    2    1    2    0    0 -0.42865021801E+02  0.27816014981E+02  0.11557268180E+04  0.11597332541E+04  0.81643138727E+02 0.  0.
        -13    1    3    3    0    0 -0.22444151647E+02  0.36884040460E+02 -0.13403636141E+02  0.45208736386E+02  0.00000000000E+00 0.  1.
         14    1    3    3    0    0  0.38219110020E+02 -0.11854197388E+02  0.48619487906E+01  0.40309563536E+02  0.00000000000E+00 0. -1.
         13    1    5    5    0    0 -0.58307963917E+02  0.41154141693E+02  0.71989622005E+03  0.72342522052E+03  0.00000000000E+00 0. -1.
        -14    1    5    5    0    0  0.15442942117E+02 -0.13338126712E+02  0.43583059796E+03  0.43630803363E+03  0.00000000000E+00 0.  1.
          5    1    4    4  501    0  0.40506485376E+02  0.29992401464E+02  0.59577818276E+02  0.78149269565E+02  0.41800000000E+01 0. -1.
         -5    1    4    4    0  501 -0.13416421949E+02 -0.82838259518E+02  0.17807118928E+03  0.19689844710E+03  0.41800000000E+01 0. -1.
</event>
<event>
11    1  0.6930157E-009  0.2127012E+03  0.7561462E-02  0.1045888E+00
         22   -1    0    0    0    0  0.00000000000E+00  0.00000000000E+00  0.33789339348E+04  0.33789339348E+04  0.00000000000E+00 0.  1.
         22   -1    0    0    0    0 -0.00000000000E+00 -0.00000000000E+00 -0.15379713534E+04  0.15379713534E+04  0.00000000000E+00 0. -1.
        -24    2    1    2    0    0  0.16557819095E+03  0.39927673846E+02 -0.14326165082E+04  0.14449420305E+04  0.80355805518E+02 0.  0.
         25    2    1    2    0    0 -0.20403873601E+03 -0.75428846126E+02  0.61376678828E+02  0.25833714772E+03  0.12509863536E+03 0.  0.
         24    2    1    2    0    0  0.38460545058E+02  0.35501172280E+02  0.32122024108E+04  0.32136261099E+04  0.80055604603E+02 0.  0.
        -13    1    5    5    0    0  0.18381057562E+02  0.36069867573E+02  0.30379446249E+04  0.30382143510E+04  0.00000000000E+00 0.  1.
         14    1    5    5    0    0  0.20079487496E+02 -0.56869529276E+00  0.17425778582E+03  0.17541175887E+03  0.00000000000E+00 0. -1.
         13    1    3    3    0    0  0.16689059536E+03  0.49039845816E+02 -0.12441743374E+04  0.12562751129E+04  0.00000000000E+00 0. -1.
        -14    1    3    3    0    0 -0.13124044072E+01 -0.91121719697E+01 -0.18844217083E+03  0.18866691769E+03  0.00000000000E+00 0.  1.
          5    1    4    4  501    0 -0.14109031032E+03 -0.38017836357E+02  0.98361962473E+02  0.17619415316E+03  0.41800000000E+01 0. -1.
         -5    1    4    4    0  501 -0.62948425693E+02 -0.37411009769E+02 -0.36985283645E+02  0.82142994561E+02  0.41800000000E+01 0. -1.
</event>
<event>
11    1  0.6930157E-009  0.1356093E+03  0.7561462E-02  0.1112563E+00
         22   -1    0    0    0    0  0.00000000000E+00  0.00000000000E+00  0.79362174652E+03  0.79362174652E+03  0.00000000000E+00 0.  1.
         22   -1    0    0    0    0 -0.00000000000E+00 -0.00000000000E+00 -0.19929546113E+03  0.19929546113E+03  0.00000000000E+00 0.  1.
        -24    2    1    2    0    0 -0.61472015244E+02 -0.12488049375E+02 -0.10531671447E+03  0.14635952960E+03  0.79967127766E+02 0.  0.
         25    2    1    2    0    0  0.23705802185E+02 -0.42483006713E+02 -0.53153459179E+01  0.13432442453E+03  0.12509207491E+03 0.  0.
         24    2    1    2    0    0  0.37766213059E+02  0.54971056088E+02  0.70495834578E+03  0.71223325353E+03  0.76562616801E+02 0.  0.
        -13    1    5    5    0    0 -0.43298991357E+00  0.29911564649E+02  0.54656378604E+03  0.54738182413E+03  0.00000000000E+00 0.  1.
         14    1    5    5    0    0  0.38199202973E+02  0.25059491439E+02  0.15839455974E+03  0.16485142940E+03  0.00000000000E+00 0. -1.
         13    1    3    3    0    0 -0.51305970732E+00  0.27320283172E+02 -0.18228673893E+02  0.32847308181E+02  0.00000000000E+00 0. -1.
        -14    1    3    3    0    0 -0.60958955537E+02 -0.39808332547E+02 -0.87088040576E+02  0.11351222142E+03  0.00000000000E+00 0.  1.
          5    1    4    4  501    0 -0.45791575729E+01  0.42873721398E+02  0.54646331788E+01  0.43663019666E+02  0.41800000000E+01 0.  1.
         -5    1    4    4    0  501  0.28284959758E+02 -0.85356728111E+02 -0.10779979097E+02  0.90661404862E+02  0.41800000000E+01 0.  1.
</event>
<event>
11    1  0.6930157E-009  0.1307051E+03  0.7561462E-02  0.1118406E+00
         22   -1    0    0    0    0  0.00000000000E+00  0.00000000000E+00  0.62551945909E+02  0.62551945909E+02  0.00000000000E+00 0. -1.
         22   -1    0    0    0    0 -0.00000000000E+00 -0.00000000000E+00 -0.11194443068E+04  0.11194443068E+04  0.00000000000E+00 0. -1.
        -24    2    1    2    0    0 -0.77212601549E+01 -0.37165385495E+02 -0.84583446838E+03  0.85042718268E+03  0.79684135209E+02 0.  0.
         25    2    1    2    0    0 -0.58971062444E+01  0.39367819134E+02 -0.21485380005E+03  0.25177872315E+03  0.12508304837E+03 0.  0.
         24    2    1    2    0    0  0.13618366399E+02 -0.22024336393E+01  0.37959075267E+01  0.79790346889E+02  0.78497005837E+02 0.  0.
        -11    1    5    5    0    0  0.27678766739E+02 -0.10230585630E+02 -0.30145797220E+02  0.42184690357E+02  0.00000000000E+00 0.  1.
         12    1    5    5    0    0 -0.14060400339E+02  0.80281519903E+01  0.33941704747E+02  0.37605656532E+02  0.00000000000E+00 0. -1.
         11    1    3    3    0    0  0.57045435906E+01 -0.27738093631E+02 -0.81507201011E+03  0.81556380825E+03  0.00000000000E+00 0. -1.
        -12    1    3    3    0    0 -0.13425803746E+02 -0.94272918636E+01 -0.30762458268E+02  0.34863374432E+02  0.00000000000E+00 0.  1.
          5    1    4    4  501    0 -0.24070802450E+02 -0.38064236969E+02 -0.11806981307E+03  0.12643671470E+03  0.41800000000E+01 0. -1.
         -5    1    4    4    0  501  0.18173696205E+02  0.77432056103E+02 -0.96783986981E+02  0.12534200845E+03  0.41800000000E+01 0. -1.
</event>
<event>
11    1  0.6930157E-009  0.1442345E+03  0.7561462E-02  0.1102920E+00
         22   -1    0    0    0    0  0.00000000000E+00  0.00000000000E+00  0.17973512809E+04  0.17973512809E+04  0.00000000000E+00 0.  1.
         22   -1    0    0    0    0 -0.00000000000E+00 -0.00000000000E+00 -0.72053239352E+03  0.72053239352E+03  0.00000000000E+00 0. -1.
         24    2    1    2    0    0  0.64964777641E+02  0.29375549111E+02 -0.69802702973E+03  0.70624850907E+03  0.80385801604E+02 0.  0.
         25    2    1    2    0    0 -0.13085320026E+03 -0.49724242198E+02  0.53034277461E+03  0.56258834854E+03  0.12508849286E+03 0.  0.
        -24    2    1    2    0    0  0.65888422617E+02  0.20348693088E+02  0.12445031425E+04  0.12490468168E+04  0.81083446810E+02 0.  0.
        -11    1    3    3    0    0  0.22219514680E+02 -0.23721370113E+02 -0.12402128758E+03  0.12820955505E+03  0.00000000000E+00 0.  1.
         12    1    3    3    0    0  0.42745262960E+02  0.53096919223E+02 -0.57400574215E+03  0.57803895402E+03  0.00000000000E+00 0. -1.
         11    1    5    5    0    0  0.23481501573E+02  0.46980672470E+02  0.46976271456E+03  0.47268972117E+03  0.00000000000E+00 0. -1.
        -12    1    5    5    0    0  0.42406921044E+02 -0.26631979383E+02  0.77474042794E+03  0.77635709565E+03  0.00000000000E+00 0.  1.
          5    1    4    4  501    0 -0.51042653872E+02  0.27347493552E+02  0.80535142685E+02  0.99280509292E+02  0.41800000000E+01 0. -1.
         -5    1    4    4    0  501 -0.79810546386E+02 -0.77071735750E+02  0.44980763193E+03  0.46330783924E+03  0.41800000000E+01 0. -1.
</event>
<event>
11    1  0.6930157E-009  0.1513187E+03  0.7561462E-02  0.1095539E+00
         22   -1    0    0    0    0  0.00000000000E+00  0.00000000000E+00  0.77881260507E+03  0.77881260507E+03  0.00000000000E+00 0.  1.
         22   -1    0    0    0    0 -0.00000000000E+00 -0.00000000000E+00 -0.20961681165E+03  0.20961681165E+03  0.00000000000E+00 0. -1.
         24    2    1    2    0    0  0.32085356959E+02  0.23284851922E+01 -0.13585766172E+03  0.16182241290E+03  0.81818684262E+02 0.  0.
         25    2    1    2    0    0  0.55810071563E+02 -0.74098864429E+01  0.29534155318E+02  0.14028178453E+03  0.12504815966E+03 0.  0.
        -24    2    1    2    0    0 -0.87895428523E+02  0.50814012508E+01  0.67551929982E+03  0.68632521928E+03  0.83453910612E+02 0.  0.
        -13    1    3    3    0    0  0.38443572562E+02  0.16619640023E+02 -0.22796518752E+02  0.47684399682E+02  0.00000000000E+00 0.  1.
         14    1    3    3    0    0 -0.63582156023E+01 -0.14291154831E+02 -0.11306114297E+03  0.11413801322E+03  0.00000000000E+00 0. -1.
         11    1    5    5    0    0 -0.25743704502E+00 -0.27698649507E+02  0.14687084499E+03  0.14946011697E+03  0.00000000000E+00 0. -1.
        -12    1    5    5    0    0 -0.87637991478E+02  0.32780050757E+02  0.52864845484E+03  0.53686510231E+03  0.00000000000E+00 0.  1.
          5    1    4    4  501    0  0.41075358488E+02 -0.62019383965E+02  0.36806058023E+02  0.83100826527E+02  0.41800000000E+01 0.  1.
         -5    1    4    4    0  501  0.14734713075E+02  0.54609497522E+02 -0.72719027051E+01  0.57180958001E+02  0.41800000000E+01 0.  1.
</event>
<event>
11    1  0.6930157E-009  0.1605834E+03  0.7561462E-02  0.1086530E+00
         22   -1    0    0    0    0  0.00000000000E+00  0.00000000000E+00  0.19917839737E+03  0.19917839737E+03  0.00000000000E+00 0.  1.
         22   -1    0    0    0    0 -0.00000000000E+00 -0.00000000000E+00 -0.17979746775E+04  0.17979746775E+04  0.00000000000E+00 0. -1.
        -24    2    1    2    0    0  0.60796046471E+02 -0.70118209688E+02 -0.11774777291E+04  0.11839346706E+04  0.81454154310E+02 0.  0.
         25    2    1    2    0    0 -0.39144620348E+02  0.14636118600E+03 -0.58520700519E+03  0.61730840693E+03  0.12509409368E+03 0.  0.
         24    2    1    2    0    0 -0.21651426123E+02 -0.76242976316E+02  0.16388845410E+03  0.19590999734E+03  0.72384570037E+02 0.  0.
        -11    1    5    5    0    0 -0.34676668917E+02 -0.83737542417E+02  0.15100266227E+03  0.17611431342E+03  0.00000000000E+00 0.  1.
         12    1    5    5    0    0  0.13025242795E+02  0.74945661012E+01  0.12885791830E+02  0.19795683924E+02  0.00000000000E+00 0. -1.
         11    1    3    3    0    0  0.23505974734E+02 -0.81235507615E+02 -0.80842634342E+03  0.81283755529E+03  0.00000000000E+00 0. -1.
        -12    1    3    3    0    0  0.37290071737E+02  0.11117297927E+02 -0.36905138563E+03  0.37109711532E+03  0.00000000000E+00 0.  1.
          5    1    4    4  501    0 -0.61805945314E+02  0.10221953579E+03 -0.52847620887E+03  0.54182412655E+03  0.41800000000E+01 0.  1.
         -5    1    4    4    0  501  0.22661324966E+02  0.44141650218E+02 -0.56730796322E+02  0.75484280380E+02  0.41800000000E+01 0.  1.
</event>
<event>
11    1  0.6930157E-009  0.1303817E+03  0.7561462E-02  0.1118801E+00
         22   -1    0    0    0    0  0.00000000000E+00  0.00000000000E+00  0.26601625544E+04  0.26601625544E+04  0.00000000000E+00 0. -1.
         22   -1    0    0    0    0 -0.00000000000E+00 -0.00000000000E+00 -0.81823594090E+02  0.81823594090E+02  0.00000000000E+00 0. -1.
        -24    2    1    2    0    0  0.12668078429E+02 -0.56302440943E+01 -0.20805285514E+02  0.84070312954E+02  0.80266915695E+02 0.  0.
         25    2    1    2    0    0 -0.48735978886E+02  0.43416019073E+00  0.12903671381E+03  0.18620937757E+03  0.12509226455E+03 0.  0.
         24    2    1    2    0    0  0.36067900457E+02  0.51960839035E+01  0.24701075320E+04  0.24717064580E+04  0.81078369001E+02 0.  0.
        -11    1    5    5    0    0 -0.21841986134E+02 -0.16145313136E+02  0.73605889229E+03  0.73655986614E+03  0.00000000000E+00 0.  1.
         12    1    5    5    0    0  0.57909886591E+02  0.21341397039E+02  0.17340486397E+04  0.17351465918E+04  0.00000000000E+00 0. -1.
         13    1    3    3    0    0  0.30284698583E+02 -0.35569242083E+02 -0.11615554897E+02  0.48137875589E+02  0.00000000000E+00 0. -1.
        -14    1    3    3    0    0 -0.17616620153E+02  0.29938997989E+02 -0.91897306168E+01  0.35932437366E+02  0.00000000000E+00 0.  1.
          5    1    4    4  501    0 -0.31821892558E+02 -0.19220251406E+02 -0.14624336293E+02  0.40167082569E+02  0.41800000000E+01 0. -1.
         -5    1    4    4    0  501 -0.16914086328E+02  0.19654411596E+02  0.14366105011E+03  0.14604229500E+03  0.41800000000E+01 0. -1.
</event>
<event>
11    1  0.6930157E-009  0.2321094E+03  0.7561462E-02  0.1033886E+00
         22   -1    0    0    0    0  0.00000000000E+00  0.00000000000E+00  0.20137284136E+03  0.20137284136E+03  0.00000000000E+00 0. -1.
         22   -1    0    0    0    0 -0.00000000000E+00 -0.00000000000E+00 -0.17953719495E+04  0.17953719495E+04  0.00000000000E+00 0. -1.
        -24    2    1    2    0    0  0.11543925929E+03 -0.59266023144E+02 -0.14793963393E+04  0.14872068903E+04  0.79574630928E+02 0.  0.
         25    2    1    2    0    0  0.56187668896E+02  0.18054679510E+03 -0.16276085912E+03  0.27909354012E+03  0.12509159651E+03 0.  0.
         24    2    1    2    0    0 -0.17162692819E+03 -0.12128077196E+03  0.48158090228E+02  0.23044436044E+03  0.81366906522E+02 0.  0.
        -11    1    5    5    0    0 -0.57054566130E+00 -0.31494667037E+02  0.67994553414E+00  0.31507172200E+02  0.00000000000E+00 0.  1.
         12    1    5    5    0    0 -0.17105638253E+03 -0.89786104918E+02  0.47478144694E+02  0.19893718824E+03  0.00000000000E+00 0. -1.
         11    1    3    3    0    0  0.92790142291E+01 -0.20252880595E+02 -0.61999471515E+03  0.62039481469E+03  0.00000000000E+00 0. -1.
        -12    1    3    3    0    0  0.10616024506E+03 -0.39013142550E+02 -0.85940162413E+03  0.86681207564E+03  0.00000000000E+00 0.  1.
          5    1    4    4  501    0  0.11792058236E+02  0.18030274626E+03 -0.11760522979E+03  0.21563069220E+03  0.41800000000E+01 0.  1.
         -5    1    4    4    0  501  0.44395610660E+02  0.24404884263E+00 -0.45155629329E+02  0.63462847917E+02  0.41800000000E+01 0.  1.
</event>
<event>
11    1  0.6930157E-009  0.1859607E+03  0.7561462E-02  0.1064921E+00
         22   -1    0    0    0    0  0.00000000000E+00  0.00000000000E+00  0.55106411619E+03  0.55106411619E+03  0.00000000000E+00 0. -1.
         22   -1    0    0    0    0 -0.00000000000E+00 -0.00000000000E+00 -0.41812137090E+04  0.41812137090E+04  0.00000000000E+00 0.  1.
        -24    2    1    2    0    0  0.11074247458E+02 -0.27948090727E+02 -0.41104468047E+04  0.41112298574E+04  0.74392683879E+02 0.  0.
         25    2    1    2    0    0  0.12805841126E+03  0.45386465571E+01  0.94441187802E+02  0.20245114839E+03  0.12509106093E+03 0.  0.
         24    2    1    2    0    0 -0.13913265872E+03  0.23409444170E+02  0.38585602404E+03  0.41859681944E+03  0.80203037078E+02 0.  0.
        -13    1    5    5    0    0  0.94005814332E+01 -0.30323222836E+01  0.41186507765E+02  0.42354389756E+02  0.00000000000E+00 0.  1.
         14    1    5    5    0    0 -0.14853324015E+03  0.26441766453E+02  0.34466951628E+03  0.37624242969E+03  0.00000000000E+00 0. -1.
         11    1    3    3    0    0  0.84670732371E+01  0.35169065504E+01 -0.63361599838E+02  0.64021498693E+02  0.00000000000E+00 0. -1.
        -12    1    3    3    0    0  0.26071742206E+01 -0.31464997277E+02 -0.40470852048E+04  0.40472083587E+04  0.00000000000E+00 0.  1.
          5    1    4    4  501    0  0.12732494705E+03  0.45881814827E+02  0.84867808173E+02  0.15980237901E+03  0.41800000000E+01 0.  1.
         -5    1    4    4    0  501  0.73346421425E+00 -0.41343168270E+02  0.95733796288E+01  0.42648769382E+02  0.41800000000E+01 0.  1.
</event>
<event>
11    1  0.6930157E-009  0.2454834E+03  0.7561462E-02  0.1026333E+00
         22   -1    0    0    0    0  0.00000000000E+00  0.00000000000E+00  0.32548054998E+03  0.32548054998E+03  0.00000000000E+00 0.  1.
         22   -1    0    0    0    0 -0.00000000000E+00 -0.00000000000E+00 -0.27784977633E+04  0.27784977633E+04  0.00000000000E+00 0. -1.
        -24    2    1    2    0    0  0.34795754484E+02 -0.39884271719E+02 -0.24534872303E+04  0.24553978414E+04  0.81101606404E+02 0.  0.
         25    2    1    2    0    0 -0.18187045910E+03 -0.11244905899E+03 -0.22075446158E+03  0.33181544235E+03  0.12508917103E+03 0.  0.
         24    2    1    2    0    0  0.14707470462E+03  0.15233333071E+03  0.22122447858E+03  0.31676502954E+03  0.81014823539E+02 0.  0.
        -11    1    5    5    0    0  0.13311173124E+03  0.13499807255E+03  0.22496031988E+03  0.29419442229E+03  0.00000000000E+00 0.  1.
         12    1    5    5    0    0  0.13962973378E+02  0.17335258162E+02 -0.37358413096E+01  0.22570607244E+02  0.00000000000E+00 0. -1.
         13    1    3    3    0    0  0.52245277408E+02  0.11457018040E+01 -0.13291154128E+04  0.13301423466E+04  0.00000000000E+00 0. -1.
        -14    1    3    3    0    0 -0.17449522925E+02 -0.41029973523E+02 -0.11243718175E+04  0.11252554947E+04  0.00000000000E+00 0.  1.
          5    1    4    4  501    0 -0.15737422118E+03 -0.58811914032E+02 -0.95459795108E+02  0.19327579157E+03  0.41800000000E+01 0. -1.
         -5    1    4    4    0  501 -0.24496237924E+02 -0.53637144960E+02 -0.12529466647E+03  0.13853965078E+03  0.41800000000E+01 0. -1.
</event>
<event>
11    1  0.6930157E-009  0.1368172E+03  0.7561462E-02  0.1111165E+00
         22   -1    0    0    0    0  0.00000000000E+00  0.00000000000E+00  0.64105447583E+03  0.64105447583E+03  0.00000000000E+00 0. -1.
         22   -1    0    0    0    0 -0.00000000000E+00 -0.00000000000E+00 -0.54449615935E+03  0.54449615935E+03  0.00000000000E+00 0.  1.
        -24    2    1    2    0    0 -0.25315241899E+02  0.51368656378E+02 -0.49387861014E+03  0.50390623057E+03  0.82011019577E+02 0.  0.
         25    2    1    2    0    0 -0.84047054672E+01 -0.25473270761E+02  0.56441014571E+02  0.13983020817E+03  0.12508945757E+03 0.  0.
         24    2    1    2    0    0  0.33719947366E+02 -0.25895385617E+02  0.53399591204E+03  0.54181419643E+03  0.81261205584E+02 0.  0.
        -13    1    5    5    0    0  0.26118393657E+02  0.15674105853E+02  0.76062247899E+02  0.81934813339E+02  0.00000000000E+00 0.  1.
         14    1    5    5    0    0  0.76015537094E+01 -0.41569491471E+02  0.45793366414E+03  0.45987938309E+03  0.00000000000E+00 0. -1.
         11    1    3    3    0    0 -0.21913578257E+02  0.43220115467E+02 -0.11333153343E+03  0.12325672300E+03  0.00000000000E+00 0. -1.
        -12    1    3    3    0    0 -0.34016636419E+01  0.81485409113E+01 -0.38054707670E+03  0.38064950758E+03  0.00000000000E+00 0.  1.
          5    1    4    4  501    0 -0.33707348042E+02 -0.61010660941E+02  0.64745415088E+02  0.95225664794E+02  0.41800000000E+01 0. -1.
         -5    1    4    4    0  501  0.25302642575E+02  0.35537390180E+02 -0.83044005175E+01  0.44604543379E+02  0.41800000000E+01 0. -1.
</event>
<event>
11    1  0.6930157E-009  0.1313949E+03  0.7561462E-02  0.1117567E+00
         22   -1    0    0    0    0  0.00000000000E+00  0.00000000000E+00  0.14441259318E+04  0.14441259318E+04  0.00000000000E+00 0. -1.
         22   -1    0    0    0    0 -0.00000000000E+00 -0.00000000000E+00 -0.38985224688E+02  0.38985224688E+02  0.00000000000E+00 0. -1.
        -24    2    1    2    0    0  0.57610673218E+01 -0.35996027888E+02  0.76508949326E+02  0.11465339091E+03  0.77219665890E+02 0.  0.
         25    2    1    2    0    0 -0.61738621252E+01  0.49485167212E+02  0.22719461728E+03  0.26410676204E+03  0.12509232305E+03 0.  0.
         24    2    1    2    0    0  0.41279480338E+00 -0.13489139324E+02  0.11014371405E+04  0.11043510035E+04  0.79026813498E+02 0.  0.
        -13    1    5    5    0    0  0.20983091561E+02  0.41602646426E+01  0.88402472050E+02  0.90953806946E+02  0.00000000000E+00 0.  1.
         14    1    5    5    0    0 -0.20570296757E+02 -0.17649403967E+02  0.10130346684E+04  0.10133971966E+04  0.00000000000E+00 0. -1.
         13    1    3    3    0    0  0.61718834480E+01  0.82014785279E+01 -0.11958261437E+02  0.15759327776E+02  0.00000000000E+00 0. -1.
        -14    1    3    3    0    0 -0.41081612625E+00 -0.44197506416E+02  0.88467210764E+02  0.98894063136E+02  0.00000000000E+00 0.  1.
          5    1    4    4  501    0 -0.63278914488E+02  0.21741890898E+02  0.84453670775E+02  0.10782775963E+03  0.41800000000E+01 0. -1.
         -5    1    4    4    0  501  0.57105052362E+02  0.27743276315E+02  0.14274094650E+03  0.15627900241E+03  0.41800000000E+01 0. -1.
</event>
<event>
11    1  0.6930157E-009  0.1260023E+03  0.7561462E-02  0.1124281E+00
         22   -1    0    0    0    0  0.00000000000E+00  0.00000000000E+00  0.17373177549E+03  0.17373177549E+03  0.00000000000E+00 0. -1.
         22   -1    0    0    0    0 -0.00000000000E+00 -0.00000000000E+00 -0.10779340878E+04  0.10779340878E+04  0.00000000000E+00 0. -1.
        -24    2    1    2    0    0 -0.39081766946E+01 -0.15207437993E+02 -0.96675834799E+03  0.97022582048E+03  0.80435684279E+02 0.  0.
         25    2    1    2    0    0 -0.61414627123E+01  0.40200789548E+01 -0.56060219907E+02  0.13727138750E+03  0.12508719748E+03 0.  0.
         24    2    1    2    0    0  0.10049639407E+02  0.11187359038E+02  0.11861625558E+03  0.14416865530E+03  0.80552050427E+02 0.  0.
        -11    1    5    5    0    0 -0.27236235663E+02  0.16809726394E+02  0.93591603074E+02  0.98912929390E+02  0.00000000000E+00 0.  1.
         12    1    5    5    0    0  0.37285875070E+02 -0.56223673564E+01  0.25024652509E+02  0.45255725910E+02  0.00000000000E+00 0. -1.
         13    1    3    3    0    0 -0.14018553964E+02 -0.26905181878E+01 -0.92988767447E+03  0.92999722896E+03  0.00000000000E+00 0. -1.
        -14    1    3    3    0    0  0.10110377269E+02 -0.12516919805E+02 -0.36870673519E+02  0.40228591520E+02  0.00000000000E+00 0.  1.
          5    1    4    4  501    0  0.41338186147E+02 -0.19890005593E+02 -0.68469002542E+02  0.82522328285E+02  0.41800000000E+01 0. -1.
         -5    1    4    4    0  501 -0.47479648859E+02  0.23910084548E+02  0.12408782635E+02  0.54749059219E+02  0.41800000000E+01 0. -1.
</event>
<event>
11    1  0.6930157E-009  0.1348861E+03  0.7561462E-02  0.1113407E+00
         22   -1    0    0    0    0  0.00000000000E+00  0.00000000000E+00  0.26161085590E+03  0.26161085590E+03  0.00000000000E+00 0.  1.
         22   -1    0    0    0    0 -0.00000000000E+00 -0.00000000000E+00 -0.41874680216E+03  0.41874680216E+03  0.00000000000E+00 0.  1.
        -24    2    1    2    0    0  0.10595111540E+02 -0.52653989687E+02 -0.36066434811E+03  0.37968477052E+03  0.10581613275E+03 0.  0.
         25    2    1    2    0    0 -0.83275187718E+01  0.45623052296E-01  0.11493075534E+03  0.17007864441E+03  0.12509323368E+03 0.  0.
         24    2    1    2    0    0 -0.22675927677E+01  0.52608366634E+02  0.88597646506E+02  0.13059424312E+03  0.80203061995E+02 0.  0.
        -13    1    5    5    0    0 -0.15955823032E+02  0.70117084637E+02  0.77606332179E+02  0.10580045671E+03  0.00000000000E+00 0.  1.
         14    1    5    5    0    0  0.13688230264E+02 -0.17508718002E+02  0.10991314327E+02  0.24793786409E+02  0.00000000000E+00 0. -1.
         11    1    3    3    0    0  0.26145638767E+02 -0.30199674587E+02 -0.35696237387E+02  0.53570851545E+02  0.00000000000E+00 0. -1.
        -12    1    3    3    0    0 -0.15550527227E+02 -0.22454315100E+02 -0.32496811072E+03  0.32611391898E+03  0.00000000000E+00 0.  1.
          5    1    4    4  501    0  0.33931894641E+02  0.43369886970E+02  0.22752035439E+02  0.59728118055E+02  0.41800000000E+01 0. -1.
         -5    1    4    4    0  501 -0.42259413413E+02 -0.43324263917E+02  0.92178719897E+02  0.11035052636E+03  0.41800000000E+01 0. -1.
</event>
<event>
11    1  0.6930157E-009  0.1652415E+03  0.7561462E-02  0.1082248E+00
         22   -1    0    0    0    0  0.00000000000E+00  0.00000000000E+00  0.10788048697E+04  0.10788048697E+04  0.00000000000E+00 0. -1.
         22   -1    0    0    0    0 -0.00000000000E+00 -0.00000000000E+00 -0.53014060452E+03  0.53014060452E+03  0.00000000000E+00 0. -1.
        -24    2    1    2    0    0  0.81386115830E+02 -0.71666738229E+02 -0.47349279645E+03  0.49249533841E+03  0.81218279036E+02 0.  0.
         25    2    1    2    0    0 -0.91824213590E+02  0.47785474659E+02  0.10055153786E+03  0.19098073533E+03  0.12509153333E+03 0.  0.
         24    2    1    2    0    0  0.10438097761E+02  0.23881263570E+02  0.92160552375E+03  0.92546940046E+03  0.80359200776E+02 0.  0.
        -11    1    5    5    0    0  0.15081367660E+02  0.49364276563E+02  0.41429874968E+03  0.41750177657E+03  0.00000000000E+00 0.  1.
         12    1    5    5    0    0 -0.46432698994E+01 -0.25483012993E+02  0.50730677407E+03  0.50796762389E+03  0.00000000000E+00 0. -1.
         13    1    3    3    0    0  0.38419977237E+02 -0.14320822210E+02 -0.32544803089E+03  0.32802073320E+03  0.00000000000E+00 0. -1.
        -14    1    3    3    0    0  0.42966138592E+02 -0.57345916019E+02 -0.14804476556E+03  0.16447460521E+03  0.00000000000E+00 0.  1.
          5    1    4    4  501    0 -0.55186265204E+02 -0.57243040811E+01  0.11193965656E+03  0.12500500244E+03  0.41800000000E+01 0. -1.
         -5    1    4    4    0  501 -0.36637948386E+02  0.53509778740E+02 -0.11388118699E+02  0.65975732889E+02  0.41800000000E+01 0. -1.
</event>
<event>
11    1  0.6930157E-009  0.1377917E+03  0.7561462E-02  0.1110050E+00
         22   -1    0    0    0    0  0.00000000000E+00  0.00000000000E+00  0.19687036352E+03  0.19687036352E+03  0.00000000000E+00 0.  1.
         22   -1    0    0    0    0 -0.00000000000E+00 -0.00000000000E+00 -0.64454155474E+03  0.64454155474E+03  0.00000000000E+00 0.  1.
        -24    2    1    2    0    0 -0.34328561106E+02  0.32252426967E+01 -0.39603165724E+03  0.40553871325E+03  0.80198018115E+02 0.  0.
         25    2    1    2    0    0  0.63870307471E+02  0.45341605554E+02 -0.20523392956E+03  0.25279096687E+03  0.12508808782E+03 0.  0.
         24    2    1    2    0    0 -0.29541746365E+02 -0.48566848251E+02  0.15359439558E+03  0.18308223814E+03  0.81831620045E+02 0.  0.
        -13    1    5    5    0    0 -0.12871127412E+02 -0.70306600796E+02  0.10033714455E+03  0.12319182851E+03  0.00000000000E+00 0.  1.
         14    1    5    5    0    0 -0.16670618953E+02  0.21739752545E+02  0.53257251036E+02  0.59890409624E+02  0.00000000000E+00 0. -1.
         13    1    3    3    0    0  0.25456428916E+02  0.92713540236E+01 -0.13284411140E+03  0.13557855919E+03  0.00000000000E+00 0. -1.
        -14    1    3    3    0    0 -0.59784990022E+02 -0.60461113269E+01 -0.26318754585E+03  0.26996015407E+03  0.00000000000E+00 0.  1.
          5    1    4    4  501    0  0.42418746101E+01 -0.40922845092E+02 -0.73796355353E+02  0.84593422995E+02  0.41800000000E+01 0. -1.
         -5    1    4    4    0  501  0.59628432861E+02  0.86264450646E+02 -0.13143757421E+03  0.16819754387E+03  0.41800000000E+01 0. -1.
</event>
<event>
11    1  0.6930157E-009  0.1395059E+03  0.7561462E-02  0.1108111E+00
         22   -1    0    0    0    0  0.00000000000E+00  0.00000000000E+00  0.85373359250E+03  0.85373359250E+03  0.00000000000E+00 0.  1.
         22   -1    0    0    0    0 -0.00000000000E+00 -0.00000000000E+00 -0.13482844965E+03  0.13482844965E+03  0.00000000000E+00 0. -1.
         24    2    1    2    0    0 -0.34671195472E+02 -0.16308036633E+02 -0.95216897297E+02  0.13065802149E+03  0.80853059284E+02 0.  0.
         25    2    1    2    0    0  0.19414022586E+02  0.74010799169E+02  0.29773836928E+03  0.33188821918E+03  0.12508857191E+03 0.  0.
        -24    2    1    2    0    0  0.15257172886E+02 -0.57702762536E+02  0.51638367087E+03  0.52601580148E+03  0.80486879248E+02 0.  0.
        -13    1    3    3    0    0 -0.47698488157E+02 -0.15018401871E+02 -0.19270314935E+02  0.53591447125E+02  0.00000000000E+00 0.  1.
         14    1    3    3    0    0  0.13027292685E+02 -0.12896347620E+01 -0.75946582362E+02  0.77066574369E+02  0.00000000000E+00 0. -1.
         11    1    5    5    0    0 -0.30386821391E+02 -0.88850373056E+01  0.12379194541E+03  0.12777616582E+03  0.00000000000E+00 0. -1.
        -12    1    5    5    0    0  0.45643994277E+02 -0.48817725230E+02  0.39259172546E+03  0.39823963566E+03  0.00000000000E+00 0.  1.
          5    1    4    4  501    0 -0.41888407843E+02  0.65151377092E+02  0.11351653828E+03  0.13748751766E+03  0.41800000000E+01 0. -1.
         -5    1    4    4    0  501  0.61302430429E+02  0.88594220771E+01  0.18422183099E+03  0.19440070152E+03  0.41800000000E+01 0. -1.
</event>
<event>
11    1  0.6930157E-009  0.1289237E+03  0.7561462E-02  0.1120599E+00
         22   -1    0    0    0    0  0.00000000000E+00  0.00000000000E+00  0.11032032882E+04  0.11032032882E+04  0.00000000000E+00 0.  1.
         22   -1    0    0    0    0 -0.00000000000E+00 -0.00000000000E+00 -0.41772365324E+03  0.41772365324E+03  0.00000000000E+00 0.  1.
         24    2    1    2    0    0 -0.27316970365E+01  0.46715657579E+01 -0.39624514430E+03  0.40400755185E+03  0.78629522943E+02 0.  0.
         25    2    1    2    0    0 -0.28375494513E+02  0.13468278207E+01  0.25293898747E+03  0.28360390407E+03  0.12508421319E+03 0.  0.
        -24    2    1    2    0    0  0.31107191549E+02 -0.60183935786E+01  0.82878579176E+03  0.83331548549E+03  0.80777046946E+02 0.  0.
        -13    1    3    3    0    0 -0.28354143148E+02 -0.26260143530E+02 -0.19616860500E+03  0.19993917615E+03  0.00000000000E+00 0.  1.
         14    1    3    3    0    0  0.25622446111E+02  0.30931709288E+02 -0.20007653929E+03  0.20406837569E+03  0.00000000000E+00 0. -1.
         13    1    5    5    0    0  0.39017149465E+02 -0.26458082083E+02  0.26891197175E+03  0.27301285063E+03  0.00000000000E+00 0. -1.
        -14    1    5    5    0    0 -0.79099579158E+01  0.20439688504E+02  0.55987382001E+03  0.56030263486E+03  0.00000000000E+00 0.  1.
          5    1    4    4  501    0 -0.66518899145E+02 -0.10627283500E+02  0.73789925418E+02  0.10000064295E+03  0.41800000000E+01 0.  1.
         -5    1    4    4    0  501  0.38143404633E+02  0.11974111321E+02  0.17914906205E+03  0.18360326112E+03  0.41800000000E+01 0.  1.
</event>
<event>
11    1  0.6930157E-009  0.1377115E+03  0.7561462E-02  0.1110141E+00
         22   -1    0    0    0    0  0.00000000000E+00  0.00000000000E+00  0.37189511513E+04  0.37189511513E+04  0.00000000000E+00 0.  1.
         22   -1    0    0    0    0 -0.00000000000E+00 -0.00000000000E+00 -0.15267100961E+04  0.15267100961E+04  0.00000000000E+00 0.  1.
        -24    2    1    2    0    0  0.25559089709E+02 -0.17164501147E+02 -0.11177545603E+04  0.11210823274E+04  0.80637712137E+02 0.  0.
         25    2    1    2    0    0  0.29038222515E+02 -0.12857457978E+01 -0.39649423615E+03  0.41677482606E+03  0.12509478338E+03 0.  0.
         24    2    1    2    0    0 -0.54597312225E+02  0.18450246945E+02  0.37064898517E+04  0.37078040939E+04  0.80142997921E+02 0.  0.
        -11    1    5    5    0    0 -0.62933826482E+02  0.39815128700E+02  0.30645385920E+04  0.30654433109E+04  0.00000000000E+00 0.  1.
         12    1    5    5    0    0  0.83365142572E+01 -0.21364881755E+02  0.64195125969E+03  0.64236078294E+03  0.00000000000E+00 0. -1.
         11    1    3    3    0    0  0.18255376998E+02 -0.12172398537E+02 -0.71511763897E+02  0.74802128654E+02  0.00000000000E+00 0. -1.
        -12    1    3    3    0    0  0.73037127115E+01 -0.49921026099E+01 -0.10462427964E+04  0.10462801988E+04  0.00000000000E+00 0.  1.
          5    1    4    4  501    0 -0.14847262938E+01 -0.60055822054E+02 -0.22413789985E+03  0.23208657162E+03  0.41800000000E+01 0.  1.
         -5    1    4    4    0  501  0.30522948809E+02  0.58770076256E+02 -0.17235633630E+03  0.18468825444E+03  0.41800000000E+01 0.  1.
</event>
<event>
11    1  0.7072251E-009  0.1792234E+03  0.7561462E-02  0.1070273E+00
         22   -1    0    0    0    0  0.00000000000E+00  0.00000000000E+00  0.67851546661E+03  0.67851546661E+03  0.00000000000E+00 0.  1.
         22   -1    0    0    0    0 -0.00000000000E+00 -0.00000000000E+00 -0.54156817132E+03  0.54156817132E+03  0.00000000000E+00 0.  1.
        -24    2    1    2    0    0  0.21707813743E+02  0.36231272446E+02 -0.37227627809E+03  0.38340396716E+03  0.81394351947E+02 0.  0.
         25    2    1    2    0    0 -0.94277726318E+01 -0.16208868702E+03 -0.86712492462E+02  0.22254935580E+03  0.12509010377E+03 0.  0.
         24    2    1    2    0    0 -0.12280041111E+02  0.12585741457E+03  0.59593606585E+03  0.61413031496E+03  0.77623198647E+02 0.  0.
        -13    1    5    5    0    0 -0.38554570833E+02  0.82718473682E+02  0.28904274483E+03  0.30310808164E+03  0.00000000000E+00 0.  1.
         14    1    5    5    0    0  0.26274529721E+02  0.43138940891E+02  0.30689332102E+03  0.31102223332E+03  0.00000000000E+00 0. -1.
         11    1    3    3    0    0  0.16416518547E+02  0.17399642154E+01 -0.96895991035E+01  0.19142045017E+02  0.00000000000E+00 0. -1.
        -12    1    3    3    0    0  0.52912951964E+01  0.34491308231E+02 -0.36258667899E+03  0.36426192215E+03  0.00000000000E+00 0.  1.
          5    1    4    4  501    0  0.26254216439E+02 -0.10305525265E+03  0.63687871019E+01  0.10661942988E+03  0.41800000000E+01 0. -1.
         -5    1    4    4    0  501 -0.35681989070E+02 -0.59033434369E+02 -0.93081279564E+02  0.11592992592E+03  0.41800000000E+01 0. -1.
</event>
<event>
11    1  0.6930157E-009  0.1292128E+03  0.7561462E-02  0.1120240E+00
         22   -1    0    0    0    0  0.00000000000E+00  0.00000000000E+00  0.77048815226E+03  0.77048815226E+03  0.00000000000E+00 0.  1.
         22   -1    0    0    0    0 -0.00000000000E+00 -0.00000000000E+00 -0.36887354904E+03  0.36887354904E+03  0.00000000000E+00 0.  1.
         24    2    1    2    0    0 -0.18001745961E+02 -0.28648240159E+02 -0.30880896650E+03  0.32076198031E+03  0.79877942507E+02 0.  0.
         25    2    1    2    0    0  0.12498072801E+02  0.80531555637E+01  0.25293156886E+02  0.12848736330E+03  0.12509277999E+03 0.  0.
        -24    2    1    2    0    0  0.55036731603E+01  0.20595084596E+02  0.68513041283E+03  0.69011235769E+03  0.79980846037E+02 0.  0.
        -13    1    3    3    0    0 -0.41054894533E+02 -0.36123204093E+01 -0.24502089276E+03  0.24846285660E+03  0.00000000000E+00 0.  1.
         14    1    3    3    0    0  0.23053148572E+02 -0.25035919750E+02 -0.63788073741E+02  0.72299123705E+02  0.00000000000E+00 0. -1.
         13    1    5    5    0    0 -0.32724819404E+02  0.25723933358E+02  0.26943634777E+03  0.27263268339E+03  0.00000000000E+00 0. -1.
        -14    1    5    5    0    0  0.38228492564E+02 -0.51288487622E+01  0.41569406506E+03  0.41747967430E+03  0.00000000000E+00 0.  1.
          5    1    4    4  501    0  0.66048401107E+02  0.64848549868E+01 -0.52030289568E+01  0.66700738702E+02  0.41800000000E+01 0. -1.
         -5    1    4    4    0  501 -0.53550328307E+02  0.15683005769E+01  0.30496185843E+02  0.61786624600E+02  0.41800000000E+01 0. -1.
</event>
<event>
11    1  0.6930157E-009  0.1700945E+03  0.7561462E-02  0.1077949E+00
         22   -1    0    0    0    0  0.00000000000E+00  0.00000000000E+00  0.59274282481E+03  0.59274282481E+03  0.00000000000E+00 0. -1.
         22   -1    0    0    0    0 -0.00000000000E+00 -0.00000000000E+00 -0.11586835803E+04  0.11586835803E+04  0.00000000000E+00 0.  1.
         24    2    1    2    0    0  0.41683066733E+02  0.10582187715E+03 -0.83649246711E+03  0.84827060619E+03  0.83112129416E+02 0.  0.
         25    2    1    2    0    0 -0.11552296825E+03 -0.81539348098E+02 -0.28207828856E+03  0.33942622099E+03  0.12509107536E+03 0.  0.
        -24    2    1    2    0    0  0.73839901517E+02 -0.24282529055E+02  0.55263000021E+03  0.56372957792E+03  0.79681538739E+02 0.  0.
        -11    1    3    3    0    0  0.39666073775E+02  0.42529522410E+02 -0.61959022460E+03  0.62231358984E+03  0.00000000000E+00 0.  1.
         12    1    3    3    0    0  0.20169929582E+01  0.63292354744E+02 -0.21690224251E+03  0.22595701635E+03  0.00000000000E+00 0. -1.
         13    1    5    5    0    0  0.84835156189E+02 -0.55887645956E+00  0.44001034610E+03  0.44811429428E+03  0.00000000000E+00 0. -1.
        -14    1    5    5    0    0 -0.10995254672E+02 -0.23723652595E+02  0.11261965411E+03  0.11561528363E+03  0.00000000000E+00 0.  1.
          5    1    4    4  501    0  0.22764887235E+02  0.21310375554E+01 -0.62955639493E+02  0.67109361165E+02  0.41800000000E+01 0. -1.
         -5    1    4    4    0  501 -0.13828785549E+03 -0.83670385654E+02 -0.21912264906E+03  0.27231685982E+03  0.41800000000E+01 0. -1.
</event>
<event>
11    1  0.6930157E-009  0.1349711E+03  0.7561462E-02  0.1113308E+00
         22   -1    0    0    0    0  0.00000000000E+00  0.00000000000E+00  0.18139047348E+04  0.18139047348E+04  0.00000000000E+00 0. -1.
         22   -1    0    0    0    0 -0.00000000000E+00 -0.00000000000E+00 -0.15815913668E+03  0.15815913668E+03  0.00000000000E+00 0. -1.
         24    2    1    2    0    0 -0.24401463900E+02  0.34638651529E+02 -0.67503191667E+02  0.12048984176E+03  0.90365111968E+02 0.  0.
         25    2    1    2    0    0  0.25443605928E+02 -0.76484567353E+02  0.25365905628E+02  0.15095513973E+03  0.12508700539E+03 0.  0.
        -24    2    1    2    0    0 -0.10421420279E+01  0.41845915824E+02  0.16978828842E+04  0.17006188900E+04  0.86868601757E+02 0.  0.
        -13    1    3    3    0    0 -0.56385609628E+01  0.90346792093E+01  0.22586551108E+02  0.24971405429E+02  0.00000000000E+00 0.  1.
         14    1    3    3    0    0 -0.18762902937E+02  0.25603972319E+02 -0.90089742775E+02  0.95518436327E+02  0.00000000000E+00 0. -1.
         11    1    5    5    0    0  0.18142577230E+02  0.61449940333E+02  0.14032387381E+04  0.14047007526E+04  0.00000000000E+00 0. -1.
        -12    1    5    5    0    0 -0.19184719258E+02 -0.19604024509E+02  0.29464414615E+03  0.29591813748E+03  0.00000000000E+00 0.  1.
          5    1    4    4  501    0  0.86556032739E+01  0.11800572285E+02  0.54347086285E+02  0.56438029395E+02  0.41800000000E+01 0. -1.
         -5    1    4    4    0  501  0.16788002654E+02 -0.88285139638E+02 -0.28981180656E+02  0.94517110336E+02  0.41800000000E+01 0. -1.
</event>
<event>
11    1  0.6930157E-009  0.2791536E+03  0.7561462E-02  0.1009421E+00
         22   -1    0    0    0    0  0.00000000000E+00  0.00000000000E+00  0.16263147130E+04  0.16263147130E+04  0.00000000000E+00 0.  1.
         22   -1    0    0    0    0 -0.00000000000E+00 -0.00000000000E+00 -0.11550245830E+04  0.11550245830E+04  0.00000000000E+00 0.  1.
         24    2    1    2    0    0  0.20895845687E+03  0.13657222521E+03 -0.10800237767E+04  0.11112913459E+04  0.78749525883E+02 0.  0.
         25    2    1    2    0    0 -0.20021301168E+03 -0.14692670782E+03  0.27486244756E+03  0.39098579357E+03  0.12509123940E+03 0.  0.
        -24    2    1    2    0    0 -0.87454451906E+01  0.10354482609E+02  0.12764514592E+04  0.12790621565E+04  0.80547964233E+02 0.  0.
        -11    1    3    3    0    0  0.13742400004E+03  0.45467847686E+02 -0.65166306773E+03  0.66754582974E+03  0.00000000000E+00 0.  1.
         12    1    3    3    0    0  0.71534456836E+02  0.91104377525E+02 -0.42836070895E+03  0.44374551614E+03  0.00000000000E+00 0. -1.
         11    1    5    5    0    0  0.33614436840E+01 -0.52636326605E+01  0.67092971173E+01  0.91662315175E+01  0.00000000000E+00 0. -1.
        -12    1    5    5    0    0 -0.12106888875E+02  0.15618115269E+02  0.12697421620E+04  0.12698959250E+04  0.00000000000E+00 0.  1.
          5    1    4    4  501    0 -0.20343437435E+03 -0.11923929205E+03  0.27567074543E+03  0.36278834838E+03  0.41800000000E+01 0.  1.
         -5    1    4    4    0  501  0.32213626672E+01 -0.27687415772E+02 -0.80829786873E+00  0.28197445186E+02  0.41800000000E+01 0.  1.
</event>
<event>
11    1  0.6930157E-009  0.1881522E+03  0.7561462E-02  0.1063233E+00
         22   -1    0    0    0    0  0.00000000000E+00  0.00000000000E+00  0.18126099674E+04  0.18126099674E+04  0.00000000000E+00 0.  1.
         22   -1    0    0    0    0 -0.00000000000E+00 -0.00000000000E+00 -0.27335367135E+03  0.27335367135E+03  0.00000000000E+00 0.  1.
         24    2    1    2    0    0  0.45944534084E+02 -0.12018735836E+03 -0.12970632163E+03  0.20053691715E+03  0.82676622746E+02 0.  0.
         25    2    1    2    0    0 -0.93618890946E+02  0.15428892700E+03  0.62539272788E+01  0.21967286464E+03  0.12508991212E+03 0.  0.
        -24    2    1    2    0    0  0.47674356862E+02 -0.34101568643E+02  0.16627086904E+04  0.16657538570E+04  0.81853293134E+02 0.  0.
        -11    1    3    3    0    0  0.19482818060E+02 -0.75320356650E+02 -0.12629708476E+03  0.14833640802E+03  0.00000000000E+00 0.  1.
         12    1    3    3    0    0  0.26461716024E+02 -0.44867001710E+02 -0.34092368648E+01  0.52200509130E+02  0.00000000000E+00 0. -1.
         13    1    5    5    0    0  0.29389534585E+02 -0.30308766204E+02  0.30407209238E+03  0.30698893044E+03  0.00000000000E+00 0. -1.
        -14    1    5    5    0    0  0.18284822277E+02 -0.37928024389E+01  0.13586365980E+04  0.13587649265E+04  0.00000000000E+00 0.  1.
          5    1    4    4  501    0 -0.10525770444E+03  0.81116441571E+02 -0.31173316002E+02  0.13655881322E+03  0.41800000000E+01 0. -1.
         -5    1    4    4    0  501  0.11638813493E+02  0.73172485433E+02  0.37427243281E+02  0.83114051421E+02  0.41800000000E+01 0. -1.
</event>
<event>
11    1  0.6930157E-009  0.2071039E+03  0.7561462E-02  0.1049611E+00
         22   -1    0    0    0    0  0.00000000000E+00  0.00000000000E+00  0.54328496666E+03  0.54328496666E+03  0.00000000000E+00 0. -1.
         22   -1    0    0    0    0 -0.00000000000E+00 -0.00000000000E+00 -0.73631760433E+03  0.73631760433E+03  0.00000000000E+00 0. -1.
        -24    2    1    2    0    0 -0.89296836137E+01 -0.87865772089E+01 -0.40343248058E+03  0.41236189592E+03  0.84425254736E+02 0.  0.
         25    2    1    2    0    0 -0.15570734753E+03 -0.85222210000E+01 -0.28014348260E+03  0.34415866692E+03  0.12508961127E+03 0.  0.
         24    2    1    2    0    0  0.16463703114E+03  0.17308798209E+02  0.49054332551E+03  0.52308200814E+03  0.74679893621E+02 0.  0.
        -11    1    5    5    0    0  0.63593965731E+01 -0.14554515869E+02  0.19574864321E+02  0.25208156818E+02  0.00000000000E+00 0.  1.
         12    1    5    5    0    0  0.15827763457E+03  0.31863314078E+02  0.47096846119E+03  0.49787385132E+03  0.00000000000E+00 0. -1.
         11    1    3    3    0    0 -0.41046995877E+02  0.40612809961E+01 -0.30998909832E+03  0.31272126719E+03  0.00000000000E+00 0. -1.
        -12    1    3    3    0    0  0.32117312264E+02 -0.12847858205E+02 -0.93443382256E+02  0.99640628736E+02  0.00000000000E+00 0.  1.
          5    1    4    4  501    0  0.58884342805E+01  0.13871383607E+02 -0.99478827885E+02  0.10070053892E+03  0.41800000000E+01 0. -1.
         -5    1    4    4    0  501 -0.16159578181E+03 -0.22393604607E+02 -0.18066465472E+03  0.24345812800E+03  0.41800000000E+01 0. -1.
</event>
<event>
11    1  0.6930157E-009  0.1378324E+03  0.7561462E-02  0.1110003E+00
         22   -1    0    0    0    0  0.00000000000E+00  0.00000000000E+00  0.59273068173E+03  0.59273068173E+03  0.00000000000E+00 0.  1.
         22   -1    0    0    0    0 -0.00000000000E+00 -0.00000000000E+00 -0.60160998414E+03  0.60160998414E+03  0.00000000000E+00 0. -1.
         24    2    1    2    0    0 -0.51685317543E+02 -0.35841320056E+02 -0.50927996752E+03  0.51942735875E+03  0.80515361480E+02 0.  0.
         25    2    1    2    0    0  0.21110216590E+02 -0.15487286970E+02 -0.33102109686E+02  0.13201722814E+03  0.12508917443E+03 0.  0.
        -24    2    1    2    0    0  0.30575100952E+02  0.51328607026E+02  0.53350277479E+03  0.54289607898E+03  0.80879411271E+02 0.  0.
        -13    1    3    3    0    0 -0.60747865623E+02  0.30172721447E+00 -0.23940788675E+03  0.24699500087E+03  0.00000000000E+00 0.  1.
         14    1    3    3    0    0  0.90625480809E+01 -0.36143047270E+02 -0.26987208077E+03  0.27243235788E+03  0.00000000000E+00 0. -1.
         11    1    5    5    0    0 -0.21551853140E+02 -0.26346793640E+01  0.19344850669E+03  0.19466316717E+03  0.00000000000E+00 0. -1.
        -12    1    5    5    0    0  0.52126954093E+02  0.53963286390E+02  0.34005426809E+03  0.34823291181E+03  0.00000000000E+00 0.  1.
          5    1    4    4  501    0 -0.46908392101E+02 -0.72370295292E+01 -0.41079391616E+02  0.62910735661E+02  0.41800000000E+01 0.  1.
         -5    1    4    4    0  501  0.68018608691E+02 -0.82502574409E+01  0.79772819300E+01  0.69106492481E+02  0.41800000000E+01 0.  1.
</event>
<event>
11    1  0.6930157E-009  0.1547568E+03  0.7561462E-02  0.1092115E+00
         22   -1    0    0    0    0  0.00000000000E+00  0.00000000000E+00  0.49359260764E+03  0.49359260764E+03  0.00000000000E+00 0.  1.
         22   -1    0    0    0    0 -0.00000000000E+00 -0.00000000000E+00 -0.10005928778E+04  0.10005928778E+04  0.00000000000E+00 0. -1.
        -24    2    1    2    0    0 -0.21384042182E+02 -0.45358005188E+02 -0.51684604927E+03  0.52564404354E+03  0.81591641541E+02 0.  0.
         25    2    1    2    0    0 -0.43840514330E+02  0.10860279752E+03 -0.45611745623E+03  0.48724472759E+03  0.12509089639E+03 0.  0.
         24    2    1    2    0    0  0.65224556512E+02 -0.63244792331E+02  0.46596323534E+03  0.48129671431E+03  0.79187397894E+02 0.  0.
        -11    1    5    5    0    0  0.17775842131E+02 -0.18294225841E+02  0.32408559490E+03  0.32508788363E+03  0.00000000000E+00 0.  1.
         12    1    5    5    0    0  0.47448714380E+02 -0.44950566490E+02  0.14187764044E+03  0.15620883068E+03  0.00000000000E+00 0. -1.
         13    1    3    3    0    0 -0.19408225922E+02 -0.39511486097E+01 -0.41784895562E+03  0.41831810925E+03  0.00000000000E+00 0. -1.
        -14    1    3    3    0    0 -0.19758162593E+01 -0.41406856578E+02 -0.98997093651E+02  0.10732593430E+03  0.00000000000E+00 0.  1.
          5    1    4    4  501    0 -0.13415700048E+02  0.17063860079E+02 -0.11392083693E+01  0.22134283912E+02  0.41800000000E+01 0. -1.
         -5    1    4    4    0  501 -0.30424814282E+02  0.91538937440E+02 -0.45497824786E+03  0.46511044368E+03  0.41800000000E+01 0. -1.
</event>
<event>
11    1  0.6930157E-009  0.2745570E+03  0.7561462E-02  0.1011574E+00
         22   -1    0    0    0    0  0.00000000000E+00  0.00000000000E+00  0.10430069070E+04  0.10430069070E+04  0.00000000000E+00 0. -1.
         22   -1    0    0    0    0 -0.00000000000E+00 -0.00000000000E+00 -0.48652811132E+03  0.48652811132E+03  0.00000000000E+00 0. -1.
         24    2    1    2    0    0  0.54132432057E+02 -0.23580719796E+03 -0.35000417488E+03  0.43307964062E+03  0.80744646122E+02 0.  0.
         25    2    1    2    0    0 -0.20371661964E+03  0.21719742790E+03  0.22462661645E+03  0.39342155855E+03  0.12509285395E+03 0.  0.
        -24    2    1    2    0    0  0.14958418758E+03  0.18609770060E+02  0.68185635410E+03  0.70303381915E+03  0.81281673967E+02 0.  0.
        -13    1    3    3    0    0  0.20341465556E+02 -0.16663450759E+02 -0.12161785821E+02  0.28971621400E+02  0.00000000000E+00 0.  1.
         14    1    3    3    0    0  0.33790966500E+02 -0.21914374720E+03 -0.33784238906E+03  0.40410801922E+03  0.00000000000E+00 0. -1.
         13    1    5    5    0    0  0.82273098496E+02 -0.30680292455E+02  0.34430697310E+03  0.35532722216E+03  0.00000000000E+00 0. -1.
        -14    1    5    5    0    0  0.67311089083E+02  0.49290062516E+02  0.33754938100E+03  0.34770659699E+03  0.00000000000E+00 0.  1.
          5    1    4    4  501    0 -0.95343499224E+02  0.19541217580E+02  0.72742817228E+02  0.12157808967E+03  0.41800000000E+01 0. -1.
         -5    1    4    4    0  501 -0.10837312041E+03  0.19765621032E+03  0.15188379922E+03  0.27184346888E+03  0.41800000000E+01 0. -1.
</event>
<event>
11    1  0.6930157E-009  0.1651106E+03  0.7561462E-02  0.1082367E+00
         22   -1    0    0    0    0  0.00000000000E+00  0.00000000000E+00  0.13020177467E+03  0.13020177467E+03  0.00000000000E+00 0. -1.
         22   -1    0    0    0    0 -0.00000000000E+00 -0.00000000000E+00 -0.51884494931E+03  0.51884494931E+03  0.00000000000E+00 0. -1.
         24    2    1    2    0    0  0.17545478533E+02 -0.10515137041E+02 -0.22998341974E+03  0.24399025064E+03  0.78869874659E+02 0.  0.
         25    2    1    2    0    0 -0.40867058686E+02 -0.95796526246E+02 -0.20489023038E+03  0.26167609689E+03  0.12508909726E+03 0.  0.
        -24    2    1    2    0    0  0.23321580152E+02  0.10631166329E+03  0.46230475469E+02  0.14338037645E+03  0.81083966581E+02 0.  0.
        -13    1    3    3    0    0 -0.23876903120E+02 -0.21607675033E+02 -0.14806990240E+03  0.15153116551E+03  0.00000000000E+00 0.  1.
         14    1    3    3    0    0  0.41422381653E+02  0.11092537993E+02 -0.81913517336E+02  0.92459085131E+02  0.00000000000E+00 0. -1.
         13    1    5    5    0    0  0.51457207850E+02  0.69209790476E+02  0.43863723686E+02  0.96756734097E+02  0.00000000000E+00 0. -1.
        -14    1    5    5    0    0 -0.28135627698E+02  0.37101872810E+02  0.23667517826E+01  0.46623642350E+02  0.00000000000E+00 0.  1.
          5    1    4    4  501    0 -0.16340120970E+02 -0.12348978788E+03 -0.14552151884E+03  0.19160039694E+03  0.41800000000E+01 0.  1.
         -5    1    4    4    0  501 -0.24526937715E+02  0.27693261633E+02 -0.59368711539E+02  0.70075699949E+02  0.41800000000E+01 0.  1.
</event>
<event>
11    1  0.6930157E-009  0.1421807E+03  0.7561462E-02  0.1105147E+00
         22   -1    0    0    0    0  0.00000000000E+00  0.00000000000E+00  0.10819951232E+04  0.10819951232E+04  0.00000000000E+00 0.  1.
         22   -1    0    0    0    0 -0.00000000000E+00 -0.00000000000E+00 -0.54701315264E+02  0.54701315264E+02  0.00000000000E+00 0.  1.
         24    2    1    2    0    0  0.28542170741E+01 -0.64121502271E+02  0.44059670692E+02  0.11154677728E+03  0.79885639076E+02 0.  0.
         25    2    1    2    0    0 -0.61906719709E+02  0.76803181585E+02  0.35774527910E+03  0.39161592412E+03  0.12510066611E+03 0.  0.
        -24    2    1    2    0    0  0.59052502635E+02 -0.12681679314E+02  0.62548885810E+03  0.63353373702E+03  0.80502554480E+02 0.  0.
        -13    1    3    3    0    0 -0.74298299784E+01 -0.61542567554E+01 -0.21420068393E+02  0.23492479215E+02  0.00000000000E+00 0.  1.
         14    1    3    3    0    0  0.10284047053E+02 -0.57967245516E+02  0.65479739085E+02  0.88054298062E+02  0.00000000000E+00 0. -1.
         13    1    5    5    0    0  0.17272823771E+02  0.31803097947E+02  0.15881800324E+03  0.16288936624E+03  0.00000000000E+00 0. -1.
        -14    1    5    5    0    0  0.41779678864E+02 -0.44484777260E+02  0.46667085486E+03  0.47064437078E+03  0.00000000000E+00 0.  1.
          5    1    4    4  501    0  0.76126818227E+01  0.23977150031E+02  0.25688442371E+03  0.25814712122E+03  0.41800000000E+01 0. -1.
         -5    1    4    4    0  501 -0.69519401532E+02  0.52826031554E+02  0.10086085539E+03  0.13346880291E+03  0.41800000000E+01 0. -1.
</event>
<event>
11    1  0.6930157E-009  0.1620656E+03  0.7561462E-02  0.1085150E+00
         22   -1    0    0    0    0  0.00000000000E+00  0.00000000000E+00  0.55384837017E+03  0.55384837017E+03  0.00000000000E+00 0.  1.
         22   -1    0    0    0    0 -0.00000000000E+00 -0.00000000000E+00 -0.85643511502E+03  0.85643511502E+03  0.00000000000E+00 0.  1.
         24    2    1    2    0    0 -0.73020513069E+02 -0.75756090571E+02 -0.77831435146E+03  0.78944318120E+03  0.79851900909E+02 0.  0.
         25    2    1    2    0    0  0.22203478295E+02  0.76976805673E+02  0.13472438268E+02  0.14915459791E+03  0.12508862628E+03 0.  0.
        -24    2    1    2    0    0  0.50817034773E+02 -0.12207151025E+01  0.46225516834E+03  0.47168570608E+03  0.78890452456E+02 0.  0.
        -13    1    3    3    0    0 -0.58747642348E+02 -0.59713817578E+02 -0.74572960341E+03  0.75041966052E+03  0.00000000000E+00 0.  1.
         14    1    3    3    0    0 -0.14272870721E+02 -0.16042272993E+02 -0.32584748045E+02  0.39023520684E+02  0.00000000000E+00 0. -1.
         11    1    5    5    0    0 -0.12057970003E+02  0.19804352963E+02  0.66748087072E+02  0.70660555932E+02  0.00000000000E+00 0. -1.
        -12    1    5    5    0    0  0.62875004777E+02 -0.21025068066E+02  0.39550708127E+03  0.40102515015E+03  0.00000000000E+00 0.  1.
          5    1    4    4  501    0  0.52410602242E+02  0.14715276930E+02 -0.34737498213E+02  0.64711488814E+02  0.41800000000E+01 0.  1.
         -5    1    4    4    0  501 -0.30207123946E+02  0.62261528743E+02  0.48209936481E+02  0.84443109098E+02  0.41800000000E+01 0.  1.
</event>
<event>
11    1  0.6930157E-009  0.1910078E+03  0.7561462E-02  0.1061071E+00
         22   -1    0    0    0    0  0.00000000000E+00  0.00000000000E+00  0.37010984089E+03  0.37010984089E+03  0.00000000000E+00 0.  1.
         22   -1    0    0    0    0 -0.00000000000E+00 -0.00000000000E+00 -0.50144995733E+03  0.50144995733E+03  0.00000000000E+00 0. -1.
        -24    2    1    2    0    0  0.49878188462E+02 -0.98366052132E+02 -0.27255958063E+03  0.30573429190E+03  0.83791517174E+02 0.  0.
         25    2    1    2    0    0 -0.17973354945E+03  0.13753974229E+03 -0.10020661776E+03  0.27732589458E+03  0.12508779338E+03 0.  0.
         24    2    1    2    0    0  0.12985536099E+03 -0.39173690157E+02  0.24142608195E+03  0.28849961175E+03  0.80922680101E+02 0.  0.
        -13    1    5    5    0    0  0.89244603825E+02 -0.26055086591E+01  0.20278523602E+03  0.22156994367E+03  0.00000000000E+00 0.  1.
         14    1    5    5    0    0  0.40610757163E+02 -0.36568181498E+02  0.38640845925E+02  0.66929668079E+02  0.00000000000E+00 0. -1.
         11    1    3    3    0    0  0.66281549095E+02 -0.96361023853E+02 -0.20340124811E+03  0.23462898031E+03  0.00000000000E+00 0. -1.
        -12    1    3    3    0    0 -0.16403360633E+02 -0.20050282790E+01 -0.69158332527E+02  0.71105311590E+02  0.00000000000E+00 0.  1.
          5    1    4    4  501    0 -0.12193487533E+03  0.15563758969E+03 -0.80228131172E+02  0.21341321088E+03  0.41800000000E+01 0.  1.
         -5    1    4    4    0  501 -0.57798674121E+02 -0.18097847403E+02 -0.19978486588E+02  0.63912683696E+02  0.41800000000E+01 0.  1.
</event>
<event>
11    1  0.6930157E-009  0.1441165E+03  0.7561462E-02  0.1103047E+00
         22   -1    0    0    0    0  0.00000000000E+00  0.00000000000E+00  0.47455782136E+03  0.47455782136E+03  0.00000000000E+00 0. -1.
         22   -1    0    0    0    0 -0.00000000000E+00 -0.00000000000E+00 -0.20237029232E+04  0.20237029232E+04  0.00000000000E+00 0. -1.
         24    2    1    2    0    0 -0.19665835435E+02 -0.48996833550E+02 -0.19363773506E+04  0.19391651539E+04  0.89536670288E+02 0.  0.
         25    2    1    2    0    0  0.84367255949E+02  0.18065825727E+02 -0.58434982847E+01  0.15207244366E+03  0.12509066197E+03 0.  0.
        -24    2    1    2    0    0 -0.64701420514E+02  0.30931007823E+02  0.39307574708E+03  0.40702314698E+03  0.77564799832E+02 0.  0.
        -13    1    3    3    0    0 -0.42187689055E+02  0.12041974191E+01 -0.51624579280E+03  0.51796811657E+03  0.00000000000E+00 0.  1.
         14    1    3    3    0    0  0.22521853621E+02 -0.50201030969E+02 -0.14201315578E+04  0.14211970373E+04  0.00000000000E+00 0. -1.
         11    1    5    5    0    0 -0.72329276422E+02  0.16132645765E+02  0.37577625714E+03  0.38301381426E+03  0.00000000000E+00 0. -1.
        -12    1    5    5    0    0  0.76278559080E+01  0.14798362057E+02  0.17299489949E+02  0.24009332723E+02  0.00000000000E+00 0.  1.
          5    1    4    4  501    0  0.27452026257E+02 -0.51850800433E+02  0.12113860912E+02  0.60052787424E+02  0.41800000000E+01 0. -1.
         -5    1    4    4    0  501  0.56915229691E+02  0.69916626160E+02 -0.17957359197E+02  0.92019656235E+02  0.41800000000E+01 0. -1.
</event>
<event>
11    1  0.6930157E-009  0.1442503E+03  0.7561462E-02  0.1102903E+00
         22   -1    0    0    0    0  0.00000000000E+00  0.00000000000E+00  0.32151740498E+03  0.32151740498E+03  0.00000000000E+00 0. -1.
         22   -1    0    0    0    0 -0.00000000000E+00 -0.00000000000E+00 -0.58991558400E+03  0.58991558400E+03  0.00000000000E+00 0. -1.
         24    2    1    2    0    0 -0.67861085710E+02  0.21929753548E+02 -0.53583927162E+03  0.54652422077E+03  0.80491973715E+02 0.  0.
         25    2    1    2    0    0  0.85690297615E+02 -0.16215569300E+02  0.11177403575E+03  0.18906746033E+03  0.12508915898E+03 0.  0.
        -24    2    1    2    0    0 -0.17829211905E+02 -0.57141842481E+01  0.15566705685E+03  0.17584130788E+03  0.79607790266E+02 0.  0.
        -11    1    3    3    0    0 -0.63452593010E+01  0.20226455089E+02 -0.35241213972E+03  0.35304912976E+03  0.00000000000E+00 0.  1.
         12    1    3    3    0    0 -0.61515826409E+02  0.17032984590E+01 -0.18342713190E+03  0.19347509101E+03  0.00000000000E+00 0. -1.
         11    1    5    5    0    0  0.19350128718E+02 -0.28069209934E+02  0.97423495426E+02  0.10321649814E+03  0.00000000000E+00 0. -1.
        -12    1    5    5    0    0 -0.37179340623E+02  0.22355025686E+02  0.58243561425E+02  0.72624809742E+02  0.00000000000E+00 0.  1.
          5    1    4    4  501    0  0.68872626497E+02  0.49055462953E+02  0.68012543724E+02  0.10859583615E+03  0.41800000000E+01 0. -1.
         -5    1    4    4    0  501  0.16817671119E+02 -0.65271032253E+02  0.43761492021E+02  0.80471624174E+02  0.41800000000E+01 0. -1.
</event>
<event>
11    1  0.6930157E-009  0.1371221E+03  0.7561462E-02  0.1110815E+00
         22   -1    0    0    0    0  0.00000000000E+00  0.00000000000E+00  0.48644626521E+03  0.48644626521E+03  0.00000000000E+00 0. -1.
         22   -1    0    0    0    0 -0.00000000000E+00 -0.00000000000E+00 -0.73484754061E+03  0.73484754061E+03  0.00000000000E+00 0. -1.
         24    2    1    2    0    0 -0.18913285963E+02  0.16836878273E+02 -0.66570078650E+03  0.67114920285E+03  0.81501671667E+02 0.  0.
         25    2    1    2    0    0  0.34883230442E+02 -0.68662969634E+02  0.28673030738E+02  0.14966764908E+03  0.12508724685E+03 0.  0.
        -24    2    1    2    0    0 -0.15969944479E+02  0.51826091361E+02  0.38862648036E+03  0.40047695389E+03  0.80064139811E+02 0.  0.
        -13    1    3    3    0    0  0.59408196841E+01 -0.30849084373E+02 -0.26528396807E+03  0.26713768558E+03  0.00000000000E+00 0.  1.
         14    1    3    3    0    0 -0.24854105647E+02  0.47685962647E+02 -0.40041681843E+03  0.40401151727E+03  0.00000000000E+00 0. -1.
         11    1    5    5    0    0 -0.44830085879E+02  0.30944793816E+02  0.30095149448E+03  0.30584165657E+03  0.00000000000E+00 0. -1.
        -12    1    5    5    0    0  0.28860141400E+02  0.20881297544E+02  0.87674985887E+02  0.94635297321E+02  0.00000000000E+00 0.  1.
          5    1    4    4  501    0 -0.23784620486E+02 -0.48916501120E+02  0.59216073094E+02  0.80514271816E+02  0.41800000000E+01 0.  1.
         -5    1    4    4    0  501  0.58667850927E+02 -0.19746468514E+02 -0.30543042356E+02  0.69153377268E+02  0.41800000000E+01 0.  1.
</event>
<event>
11    1  0.6930157E-009  0.1821884E+03  0.7561462E-02  0.1067886E+00
         22   -1    0    0    0    0  0.00000000000E+00  0.00000000000E+00  0.18644262134E+04  0.18644262134E+04  0.00000000000E+00 0. -1.
         22   -1    0    0    0    0 -0.00000000000E+00 -0.00000000000E+00 -0.94790887947E+03  0.94790887947E+03  0.00000000000E+00 0.  1.
        -24    2    1    2    0    0  0.57163934551E+02 -0.58805043920E+02 -0.91515405240E+03  0.92222842397E+03  0.79199607079E+02 0.  0.
         25    2    1    2    0    0 -0.90401526782E+01  0.17681986074E+03  0.44224777312E+03  0.49252217871E+03  0.12509203083E+03 0.  0.
         24    2    1    2    0    0 -0.48123781873E+02 -0.11801481682E+03  0.13894236132E+04  0.13975844902E+04  0.80628995555E+02 0.  0.
        -11    1    5    5    0    0  0.22571876363E+02 -0.23312468942E+02  0.27191758979E+03  0.27384692156E+03  0.00000000000E+00 0.  1.
         12    1    5    5    0    0 -0.70695658236E+02 -0.94702347876E+02  0.11175060234E+04  0.11237375686E+04  0.00000000000E+00 0. -1.
         11    1    3    3    0    0 -0.13057890671E+02 -0.90717487209E+01 -0.43100678250E+02  0.45939891154E+02  0.00000000000E+00 0. -1.
        -12    1    3    3    0    0  0.70221825222E+02 -0.49733295199E+02 -0.87205337415E+03  0.87628853282E+03  0.00000000000E+00 0.  1.
          5    1    4    4  501    0  0.20877140491E+02  0.32041953256E+02  0.16576647031E+02  0.41890325737E+02  0.41800000000E+01 0.  1.
         -5    1    4    4    0  501 -0.29917293170E+02  0.14477790748E+03  0.42567112609E+03  0.45063185297E+03  0.41800000000E+01 0.  1.
</event>
<event>
11    1  0.6930157E-009  0.1662705E+03  0.7561462E-02  0.1081324E+00
         22   -1    0    0    0    0  0.00000000000E+00  0.00000000000E+00  0.25571763200E+03  0.25571763200E+03  0.00000000000E+00 0. -1.
         22   -1    0    0    0    0 -0.00000000000E+00 -0.00000000000E+00 -0.72518580186E+03  0.72518580186E+03  0.00000000000E+00 0. -1.
        -24    2    1    2    0    0 -0.10274495253E+02 -0.45894153871E+01 -0.58384237750E+03  0.58939709206E+03  0.79939867291E+02 0.  0.
         25    2    1    2    0    0 -0.57215734759E+02 -0.83846861195E+02 -0.57884260670E+02  0.17117835970E+03  0.12508999465E+03 0.  0.
         24    2    1    2    0    0  0.67490230012E+02  0.88436276582E+02  0.17225846832E+03  0.22032798209E+03  0.80594873440E+02 0.  0.
        -11    1    5    5    0    0 -0.17778322103E+02  0.22206908335E+02  0.26024957166E+02  0.38555335689E+02  0.00000000000E+00 0.  1.
         12    1    5    5    0    0  0.85268552115E+02  0.66229368247E+02  0.14623351115E+03  0.18177264641E+03  0.00000000000E+00 0. -1.
         13    1    3    3    0    0  0.67058477185E+01 -0.39466382361E+02 -0.23266684067E+03  0.23608562531E+03  0.00000000000E+00 0. -1.
        -14    1    3    3    0    0 -0.16980342972E+02  0.34876966974E+02 -0.35117553683E+03  0.35331146675E+03  0.00000000000E+00 0.  1.
          5    1    4    4  501    0  0.91832371501E+01 -0.73057141894E+02 -0.71160047373E+02  0.10248366976E+03  0.41800000000E+01 0. -1.
         -5    1    4    4    0  501 -0.66398971909E+02 -0.10789719301E+02  0.13275786703E+02  0.68694689939E+02  0.41800000000E+01 0. -1.
</event>
<event>
11    1  0.6930157E-009  0.1914177E+03  0.7561462E-02  0.1060764E+00
         22   -1    0    0    0    0  0.00000000000E+00  0.00000000000E+00  0.95763326530E+03  0.95763326530E+03  0.00000000000E+00 0.  1.
         22   -1    0    0    0    0 -0.00000000000E+00 -0.00000000000E+00 -0.52695613788E+03  0.52695613788E+03  0.00000000000E+00 0.  1.
        -24    2    1    2    0    0  0.18273663664E+02 -0.15226543253E+03 -0.40614585585E+03  0.44158834428E+03  0.80790598796E+02 0.  0.
         25    2    1    2    0    0 -0.36267556216E+02  0.10715846533E+03 -0.29803096592E+02  0.17127199065E+03  0.12509035889E+03 0.  0.
         24    2    1    2    0    0  0.17993892552E+02  0.45106967193E+02  0.86662607987E+03  0.87172906825E+03  0.80699364710E+02 0.  0.
        -13    1    5    5    0    0 -0.29532831640E+02  0.17677383560E+02  0.47942567178E+03  0.48065960180E+03  0.00000000000E+00 0.  1.
         14    1    5    5    0    0  0.47526724192E+02  0.27429583632E+02  0.38720040809E+03  0.39106946646E+03  0.00000000000E+00 0. -1.
         11    1    3    3    0    0  0.28966086629E+02 -0.54966784625E+02 -0.81349419453E+02  0.10236263787E+03  0.00000000000E+00 0. -1.
        -12    1    3    3    0    0 -0.10692422965E+02 -0.97298647902E+02 -0.32479643640E+03  0.33922570641E+03  0.00000000000E+00 0.  1.
          5    1    4    4  501    0 -0.31199558998E+02  0.13383441452E+03 -0.37929202970E+02  0.14262243803E+03  0.41800000000E+01 0. -1.
         -5    1    4    4    0  501 -0.50679972185E+01 -0.26675949180E+02  0.81261063787E+01  0.28649552621E+02  0.41800000000E+01 0. -1.
</event>
<event>
11    1  0.6930157E-009  0.1381027E+03  0.7561462E-02  0.1109696E+00
         22   -1    0    0    0    0  0.00000000000E+00  0.00000000000E+00  0.96881235694E+02  0.96881235694E+02  0.00000000000E+00 0.  1.
         22   -1    0    0    0    0 -0.00000000000E+00 -0.00000000000E+00 -0.97484027441E+03  0.97484027441E+03  0.00000000000E+00 0.  1.
        -24    2    1    2    0    0 -0.83923854658E+01  0.56311354292E+02 -0.56595349000E+03  0.57433066316E+03  0.79441532221E+02 0.  0.
         25    2    1    2    0    0  0.31020677290E+02 -0.58381157423E+02 -0.36991665802E+03  0.39605650539E+03  0.12510707264E+03 0.  0.
         24    2    1    2    0    0 -0.22628291824E+02  0.20698031311E+01  0.57911109301E+02  0.10133434156E+03  0.79991427804E+02 0.  0.
        -11    1    5    5    0    0  0.14498453433E+00  0.64874873461E+01  0.73241632130E+02  0.73528533167E+02  0.00000000000E+00 0.  1.
         12    1    5    5    0    0 -0.22773276358E+02 -0.44176842150E+01 -0.15330522829E+02  0.27805808388E+02  0.00000000000E+00 0. -1.
         13    1    3    3    0    0  0.16368897542E+02 -0.82435967607E+00 -0.25574035862E+02  0.30375182071E+02  0.00000000000E+00 0. -1.
        -14    1    3    3    0    0 -0.24761283008E+02  0.57135713968E+02 -0.54037945414E+03  0.54395548109E+03  0.00000000000E+00 0.  1.
          5    1    4    4  501    0  0.84053208876E+01  0.28644407351E+02 -0.21326884294E+03  0.21538854023E+03  0.41800000000E+01 0. -1.
         -5    1    4    4    0  501  0.22615356402E+02 -0.87025564774E+02 -0.15664781508E+03  0.18066796517E+03  0.41800000000E+01 0. -1.
</event>
<event>
11    1  0.6930157E-009  0.1469365E+03  0.7561462E-02  0.1100051E+00
         22   -1    0    0    0    0  0.00000000000E+00  0.00000000000E+00  0.16758212536E+03  0.16758212536E+03  0.00000000000E+00 0.  1.
         22   -1    0    0    0    0 -0.00000000000E+00 -0.00000000000E+00 -0.26123307077E+04  0.26123307077E+04  0.00000000000E+00 0.  1.
         24    2    1    2    0    0 -0.18855904850E+02 -0.10685019689E+02 -0.19216277384E+04  0.19234031568E+04  0.79729691872E+02 0.  0.
         25    2    1    2    0    0  0.18173307975E+02  0.87472243026E+02 -0.66155297078E+03  0.67917720085E+03  0.12509066549E+03 0.  0.
        -24    2    1    2    0    0  0.68259687505E+00 -0.76787223338E+02  0.13843212683E+03  0.17733247544E+03  0.79916265557E+02 0.  0.
        -13    1    3    3    0    0  0.25679730107E+02  0.43942834460E+01 -0.11793334483E+04  0.11796211852E+04  0.00000000000E+00 0.  1.
         14    1    3    3    0    0 -0.44535634957E+02 -0.15079303135E+02 -0.74229429002E+03  0.74378197152E+03  0.00000000000E+00 0. -1.
         13    1    5    5    0    0 -0.23259753134E+02 -0.76503582960E+02  0.75394590337E+02  0.10990067595E+03  0.00000000000E+00 0. -1.
        -14    1    5    5    0    0  0.23942350009E+02 -0.28364037764E+00  0.63037536488E+02  0.67431799488E+02  0.00000000000E+00 0.  1.
          5    1    4    4  501    0  0.54983474694E+02  0.87095993706E+02 -0.58636142536E+03  0.59535375044E+03  0.41800000000E+01 0. -1.
         -5    1    4    4    0  501 -0.36810166719E+02  0.37624932085E+00 -0.75191545416E+02  0.83823450415E+02  0.41800000000E+01 0. -1.
</event>
<event>
11    1  0.6930157E-009  0.1368865E+03  0.7561462E-02  0.1111086E+00
         22   -1    0    0    0    0  0.00000000000E+00  0.00000000000E+00  0.57668311476E+02  0.57668311476E+02  0.00000000000E+00 0. -1.
         22   -1    0    0    0    0 -0.00000000000E+00 -0.00000000000E+00 -0.88805597255E+03  0.88805597255E+03  0.00000000000E+00 0.  1.
        -24    2    1    2    0    0  0.19416085147E+01 -0.53955318892E+02 -0.45200426374E+03  0.46183520227E+03  0.77903487354E+02 0.  0.
         25    2    1    2    0    0  0.47838584724E+01  0.59677182026E+02 -0.37973699932E+03  0.40426704715E+03  0.12508958952E+03 0.  0.
         24    2    1    2    0    0 -0.67254669871E+01 -0.57218631346E+01  0.13536019787E+01  0.79622034602E+02  0.79119305684E+02 0.  0.
        -11    1    5    5    0    0  0.73764976225E+01 -0.19144398977E+02 -0.33741035319E+02  0.39488962936E+02  0.00000000000E+00 0.  1.
         12    1    5    5    0    0 -0.14101964610E+02  0.13422535842E+02  0.35094637297E+02  0.40133071666E+02  0.00000000000E+00 0. -1.
         13    1    3    3    0    0  0.17573476269E+02  0.15584610589E+02 -0.11615547507E+03  0.11850654642E+03  0.00000000000E+00 0. -1.
        -14    1    3    3    0    0 -0.15631867755E+02 -0.69539929480E+02 -0.33584878867E+03  0.34332865586E+03  0.00000000000E+00 0.  1.
          5    1    4    4  501    0  0.26843620206E+02  0.92230694393E+02 -0.30377359088E+03  0.31862665904E+03  0.41800000000E+01 0. -1.
         -5    1    4    4    0  501 -0.22059761734E+02 -0.32553512367E+02 -0.75963408442E+02  0.85640388120E+02  0.41800000000E+01 0. -1.
</event>
<event>
11    1  0.6930157E-009  0.1362355E+03  0.7561462E-02  0.1111836E+00
         22   -1    0    0    0    0  0.00000000000E+00  0.00000000000E+00  0.17787246941E+03  0.17787246941E+03  0.00000000000E+00 0.  1.
         22   -1    0    0    0    0 -0.00000000000E+00 -0.00000000000E+00 -0.56793020748E+03  0.56793020748E+03  0.00000000000E+00 0. -1.
         24    2    1    2    0    0  0.38414082132E+02 -0.33991029322E+02 -0.42163228088E+03  0.43228260357E+03  0.80395505407E+02 0.  0.
         25    2    1    2    0    0 -0.37712418074E+02  0.71041221822E+02 -0.81454149928E+02  0.16956165453E+03  0.12508914610E+03 0.  0.
        -24    2    1    2    0    0 -0.70166405779E+00 -0.37050192500E+02  0.11302869274E+03  0.14395841879E+03  0.81088420014E+02 0.  0.
        -13    1    3    3    0    0 -0.11848316898E+02  0.11695319531E+02 -0.26078849566E+02  0.30939772251E+02  0.00000000000E+00 0.  1.
         14    1    3    3    0    0  0.50262399030E+02 -0.45686348853E+02 -0.39555343131E+03  0.40134283132E+03  0.00000000000E+00 0. -1.
         11    1    5    5    0    0  0.13364195930E+02 -0.89146239514E+01 -0.86737089858E+01  0.18256655790E+02  0.00000000000E+00 0. -1.
        -12    1    5    5    0    0 -0.14065859988E+02 -0.28135568549E+02  0.12170240173E+03  0.12570176300E+03  0.00000000000E+00 0.  1.
          5    1    4    4  501    0 -0.16388400290E+02  0.89429728274E+02 -0.86916690034E+01  0.91429062520E+02  0.41800000000E+01 0.  1.
         -5    1    4    4    0  501 -0.21324017784E+02 -0.18388506453E+02 -0.72762480925E+02  0.78132592011E+02  0.41800000000E+01 0.  1.
</event>
<event>
11    1  0.6930157E-009  0.1459634E+03  0.7561462E-02  0.1101076E+00
         22   -1    0    0    0    0  0.00000000000E+00  0.00000000000E+00  0.10217440957E+04  0.10217440957E+04  0.00000000000E+00 0.  1.
         22   -1    0    0    0    0 -0.00000000000E+00 -0.00000000000E+00 -0.12384180455E+04  0.12384180455E+04  0.00000000000E+00 0.  1.
         24    2    1    2    0    0  0.52950951609E+02 -0.93071822636E+01 -0.43363870346E+03  0.44463629890E+03  0.82270810386E+02 0.  0.
         25    2    1    2    0    0  0.18266347613E+02  0.34029140092E+02 -0.79101562737E+03  0.80177622677E+03  0.12509097983E+03 0.  0.
        -24    2    1    2    0    0 -0.71217299222E+02 -0.24721957829E+02  0.10079803810E+04  0.10137496155E+04  0.77335344078E+02 0.  0.
        -13    1    3    3    0    0  0.36034993416E+02  0.34718886106E+02 -0.25589468415E+03  0.26074127248E+03  0.00000000000E+00 0.  1.
         14    1    3    3    0    0  0.16915958192E+02 -0.44026068369E+02 -0.17774401931E+03  0.18389502641E+03  0.00000000000E+00 0. -1.
         13    1    5    5    0    0 -0.16592220441E+01 -0.34507867497E+02  0.22662307632E+03  0.22924128044E+03  0.00000000000E+00 0. -1.
        -14    1    5    5    0    0 -0.69558077178E+02  0.97859096686E+01  0.78135730472E+03  0.78450833505E+03  0.00000000000E+00 0.  1.
          5    1    4    4  501    0  0.88459307491E+01  0.81587653504E+02 -0.51046982939E+03  0.51704130861E+03  0.41800000000E+01 0. -1.
         -5    1    4    4    0  501  0.94204168642E+01 -0.47558513412E+02 -0.28054579798E+03  0.28473491815E+03  0.41800000000E+01 0. -1.
</event>
<event>
11    1  0.6930157E-009  0.1480442E+03  0.7561462E-02  0.1098894E+00
         22   -1    0    0    0    0  0.00000000000E+00  0.00000000000E+00  0.18832623971E+03  0.18832623971E+03  0.00000000000E+00 0. -1.
         22   -1    0    0    0    0 -0.00000000000E+00 -0.00000000000E+00 -0.15978416175E+04  0.15978416175E+04  0.00000000000E+00 0.  1.
         24    2    1    2    0    0 -0.70406604423E+01  0.11817168557E+02 -0.11228242127E+04  0.11268198053E+04  0.93805355487E+02 0.  0.
         25    2    1    2    0    0 -0.62394485286E+02 -0.49909274228E+02 -0.44238773385E+03  0.46662456107E+03  0.12509023339E+03 0.  0.
        -24    2    1    2    0    0  0.69435145728E+02  0.38092105672E+02  0.15569656876E+03  0.19272349080E+03  0.81416671556E+02 0.  0.
        -13    1    3    3    0    0  0.76650322262E+01 -0.39110276211E+02 -0.59759045856E+03  0.59891795981E+03  0.00000000000E+00 0.  1.
         14    1    3    3    0    0 -0.14705692668E+02  0.50927444767E+02 -0.52523375414E+03  0.52790184553E+03  0.00000000000E+00 0. -1.
         11    1    5    5    0    0  0.85845152334E+02  0.26661884321E+02  0.10498055270E+03  0.13820695605E+03  0.00000000000E+00 0. -1.
        -12    1    5    5    0    0 -0.16410006606E+02  0.11430221351E+02  0.50716016054E+02  0.54516534751E+02  0.00000000000E+00 0.  1.
          5    1    4    4  501    0  0.93831126291E+01  0.32871285422E+02 -0.16071952648E+03  0.16436788859E+03  0.41800000000E+01 0. -1.
         -5    1    4    4    0  501 -0.71777597915E+02 -0.82780559651E+02 -0.28166820737E+03  0.30225667249E+03  0.41800000000E+01 0. -1.
</event>
<event>
11    1  0.6930157E-009  0.1914246E+03  0.7561462E-02  0.1060759E+00
         22   -1    0    0    0    0  0.00000000000E+00  0.00000000000E+00  0.51540816770E+03  0.51540816770E+03  0.00000000000E+00 0. -1.
         22   -1    0    0    0    0 -0.00000000000E+00 -0.00000000000E+00 -0.23081052368E+03  0.23081052368E+03  0.00000000000E+00 0.  1.
         24    2    1    2    0    0 -0.85280440883E+01  0.97980443880E+01 -0.15989048438E+03  0.17928768779E+03  0.80064841145E+02 0.  0.
         25    2    1    2    0    0 -0.24335390533E+02 -0.14740355630E+03  0.24432639163E+03  0.31251217063E+03  0.12509377083E+03 0.  0.
        -24    2    1    2    0    0  0.32863434621E+02  0.13760551192E+03  0.20016173677E+03  0.25441883296E+03  0.68183131750E+02 0.  0.
        -13    1    3    3    0    0  0.90389048500E+01  0.22415201492E+02 -0.15531025101E+03  0.15717956969E+03  0.00000000000E+00 0.  1.
         14    1    3    3    0    0 -0.17566948938E+02 -0.12617157104E+02 -0.45802333768E+01  0.22108118106E+02  0.00000000000E+00 0. -1.
         11    1    5    5    0    0  0.52946603668E+02  0.85123008384E+02  0.13878385468E+03  0.17120230055E+03  0.00000000000E+00 0. -1.
        -12    1    5    5    0    0 -0.20083169047E+02  0.52482503531E+02  0.61377882092E+02  0.83216532408E+02  0.00000000000E+00 0.  1.
          5    1    4    4  501    0  0.42426903895E+02 -0.85361477966E+02  0.79820147859E+02  0.12439996985E+03  0.41800000000E+01 0.  1.
         -5    1    4    4    0  501 -0.66762294428E+02 -0.62042078337E+02  0.16450624377E+03  0.18811220077E+03  0.41800000000E+01 0.  1.
</event>
<event>
11    1  0.6930157E-009  0.1482229E+03  0.7561462E-02  0.1098709E+00
         22   -1    0    0    0    0  0.00000000000E+00  0.00000000000E+00  0.26350700772E+03  0.26350700772E+03  0.00000000000E+00 0. -1.
         22   -1    0    0    0    0 -0.00000000000E+00 -0.00000000000E+00 -0.13615065174E+03  0.13615065174E+03  0.00000000000E+00 0.  1.
        -24    2    1    2    0    0 -0.76390416832E+02  0.43255737993E+02 -0.51802684131E+01  0.11876092012E+03  0.79817080346E+02 0.  0.
         25    2    1    2    0    0  0.44621494471E+02 -0.63854565797E+02  0.12505176272E+03  0.19327358091E+03  0.12509296693E+03 0.  0.
         24    2    1    2    0    0  0.31768922361E+02  0.20598827804E+02  0.74848616707E+01  0.87623158431E+02  0.78665231229E+02 0.  0.
        -13    1    5    5    0    0  0.12446551110E+02  0.27437778619E+02 -0.31493397266E+02  0.43584198988E+02  0.00000000000E+00 0.  1.
         14    1    5    5    0    0  0.19322371251E+02 -0.68389508147E+01  0.38978258937E+02  0.44038959442E+02  0.00000000000E+00 0. -1.
         11    1    3    3    0    0 -0.41821607445E+01  0.39152211775E+02  0.17321634247E+02  0.43016568533E+02  0.00000000000E+00 0. -1.
        -12    1    3    3    0    0 -0.72208256087E+02  0.41035262179E+01 -0.22501902660E+02  0.75744351591E+02  0.00000000000E+00 0.  1.
          5    1    4    4  501    0 -0.19766609039E+02 -0.78305708029E+02  0.75611040701E+02  0.11071135723E+03  0.41800000000E+01 0.  1.
         -5    1    4    4    0  501  0.64388103510E+02  0.14451142232E+02  0.49440722022E+02  0.82562223683E+02  0.41800000000E+01 0.  1.
</event>
<event>
11    1  0.6930157E-009  0.1326994E+03  0.7561462E-02  0.1115996E+00
         22   -1    0    0    0    0  0.00000000000E+00  0.00000000000E+00  0.13926823923E+03  0.13926823923E+03  0.00000000000E+00 0.  1.
         22   -1    0    0    0    0 -0.00000000000E+00 -0.00000000000E+00 -0.12778600679E+04  0.12778600679E+04  0.00000000000E+00 0. -1.
        -24    2    1    2    0    0  0.41809980793E+02 -0.30096032999E+02 -0.85871138589E+03  0.86359406345E+03  0.75865779361E+02 0.  0.
         25    2    1    2    0    0 -0.62496850218E+02 -0.93972948410E+01 -0.38620625380E+03  0.41084556390E+03  0.12507854118E+03 0.  0.
         24    2    1    2    0    0  0.20686869425E+02  0.39493327840E+02  0.10632581097E+03  0.14268867982E+03  0.84066710172E+02 0.  0.
        -13    1    5    5    0    0  0.51075278044E+01  0.15538356859E+02  0.11230881232E+03  0.11349359761E+03  0.00000000000E+00 0.  1.
         14    1    5    5    0    0  0.15579341620E+02  0.23954970980E+02 -0.59830013476E+01  0.29195082208E+02  0.00000000000E+00 0. -1.
         13    1    3    3    0    0  0.32266648277E+02 -0.28440913392E+02 -0.84824059548E+03  0.84933040094E+03  0.00000000000E+00 0. -1.
        -14    1    3    3    0    0  0.95433325157E+01 -0.16551196065E+01 -0.10470790413E+02  0.14263662514E+02  0.00000000000E+00 0.  1.
          5    1    4    4  501    0 -0.24198297692E+02  0.30697292574E+02 -0.27790186491E+02  0.48141959326E+02  0.41800000000E+01 0.  1.
         -5    1    4    4    0  501 -0.38298552526E+02 -0.40094587415E+02 -0.35841606731E+03  0.36270360457E+03  0.41800000000E+01 0.  1.
</event>
<event>
11    1  0.6930157E-009  0.1647279E+03  0.7561462E-02  0.1082713E+00
         22   -1    0    0    0    0  0.00000000000E+00  0.00000000000E+00  0.13651216618E+03  0.13651216618E+03  0.00000000000E+00 0. -1.
         22   -1    0    0    0    0 -0.00000000000E+00 -0.00000000000E+00 -0.11626998612E+04  0.11626998612E+04  0.00000000000E+00 0.  1.
        -24    2    1    2    0    0 -0.41632863732E+02 -0.75031193081E+02 -0.50188182694E+03  0.51552104277E+03  0.80706889688E+02 0.  0.
         25    2    1    2    0    0  0.11399690230E+03  0.11747871824E+03 -0.60683709756E+03  0.64085587989E+03  0.12509377623E+03 0.  0.
         24    2    1    2    0    0 -0.72364038569E+02 -0.42447525161E+02  0.82531229521E+02  0.14283510468E+03  0.80945146941E+02 0.  0.
        -13    1    5    5    0    0 -0.22884670984E+02  0.24080410938E+02  0.29398666558E+02  0.44360522454E+02  0.00000000000E+00 0.  1.
         14    1    5    5    0    0 -0.49479367585E+02 -0.66527936099E+02  0.53132562963E+02  0.98474582229E+02  0.00000000000E+00 0. -1.
         11    1    3    3    0    0 -0.21496258693E+02 -0.17838116754E+02 -0.35297343835E+02  0.45013220602E+02  0.00000000000E+00 0. -1.
        -12    1    3    3    0    0 -0.20136605039E+02 -0.57193076327E+02 -0.46658448311E+03  0.47050782217E+03  0.00000000000E+00 0.  1.
          5    1    4    4  501    0  0.72004802279E+02  0.89565055654E+02 -0.56073738503E+03  0.57240761536E+03  0.41800000000E+01 0.  1.
         -5    1    4    4    0  501  0.41992100022E+02  0.27913662588E+02 -0.46099712522E+02  0.68448264536E+02  0.41800000000E+01 0.  1.
</event>
<event>
11    1  0.6930157E-009  0.2126376E+03  0.7561462E-02  0.1045930E+00
         22   -1    0    0    0    0  0.00000000000E+00  0.00000000000E+00  0.36229979247E+03  0.36229979247E+03  0.00000000000E+00 0.  1.
         22   -1    0    0    0    0 -0.00000000000E+00 -0.00000000000E+00 -0.22116831799E+03  0.22116831799E+03  0.00000000000E+00 0.  1.
        -24    2    1    2    0    0  0.15865936975E+03  0.87087116062E+02 -0.92639160029E+02  0.21779675195E+03  0.78079765597E+02 0.  0.
         25    2    1    2    0    0 -0.13746031179E+03 -0.40519950928E+02  0.17527803070E+03  0.25866519517E+03  0.12509233152E+03 0.  0.
         24    2    1    2    0    0 -0.21199057962E+02 -0.46567165134E+02  0.58492603818E+02  0.10700616334E+03  0.73559726507E+02 0.  0.
        -11    1    5    5    0    0 -0.52911867951E+01 -0.19473475032E+02 -0.16262607105E+02  0.25916891738E+02  0.00000000000E+00 0.  1.
         12    1    5    5    0    0 -0.15907871167E+02 -0.27093690102E+02  0.74755210923E+02  0.81089271599E+02  0.00000000000E+00 0. -1.
         11    1    3    3    0    0  0.58319688150E+01 -0.54464842455E+01 -0.25865014097E+02  0.27067970096E+02  0.00000000000E+00 0. -1.
        -12    1    3    3    0    0  0.15282740094E+03  0.92533600307E+02 -0.66774145932E+02  0.19072878186E+03  0.00000000000E+00 0.  1.
          5    1    4    4  501    0 -0.16048339286E+03 -0.30246342300E+02  0.16112384924E+03  0.22945179843E+03  0.41800000000E+01 0.  1.
         -5    1    4    4    0  501  0.23023081074E+02 -0.10273608628E+02  0.14154181459E+02  0.29213396741E+02  0.41800000000E+01 0.  1.
</event>
<event>
11    1  0.6930157E-009  0.1428628E+03  0.7561462E-02  0.1104403E+00
         22   -1    0    0    0    0  0.00000000000E+00  0.00000000000E+00  0.36789725990E+03  0.36789725990E+03  0.00000000000E+00 0. -1.
         22   -1    0    0    0    0 -0.00000000000E+00 -0.00000000000E+00 -0.97501598581E+03  0.97501598581E+03  0.00000000000E+00 0.  1.
         24    2    1    2    0    0 -0.18854676155E+02 -0.91011300602E+00 -0.88127459508E+03  0.88675956434E+03  0.96650327973E+02 0.  0.
         25    2    1    2    0    0  0.79088616776E+01 -0.67615119976E+02 -0.19310754150E+02  0.14371391055E+03  0.12508568390E+03 0.  0.
        -24    2    1    2    0    0  0.10945814477E+02  0.68525232982E+02  0.29346662332E+03  0.31243977081E+03  0.81733915675E+02 0.  0.
        -11    1    3    3    0    0 -0.18201749429E+02 -0.38537126343E+02 -0.71545230458E+03  0.71672059683E+03  0.00000000000E+00 0.  1.
         12    1    3    3    0    0 -0.65292672550E+00  0.37627013337E+02 -0.16582229050E+03  0.17003896751E+03  0.00000000000E+00 0. -1.
         11    1    5    5    0    0  0.25979862671E+02  0.30714211829E+02  0.24874604635E+03  0.25197799834E+03  0.00000000000E+00 0. -1.
        -12    1    5    5    0    0 -0.15034048194E+02  0.37811021153E+02  0.44720576970E+02  0.60461772470E+02  0.00000000000E+00 0.  1.
          5    1    4    4  501    0  0.36154195149E+02 -0.94733873659E+02 -0.23326331100E+02  0.10413079644E+03  0.41800000000E+01 0.  1.
         -5    1    4    4    0  501 -0.28245333471E+02  0.27118753683E+02  0.40155769505E+01  0.39583114108E+02  0.41800000000E+01 0.  1.
</event>
<event>
11    1  0.6930157E-009  0.1725342E+03  0.7561462E-02  0.1075847E+00
         22   -1    0    0    0    0  0.00000000000E+00  0.00000000000E+00  0.11900787608E+04  0.11900787608E+04  0.00000000000E+00 0. -1.
         22   -1    0    0    0    0 -0.00000000000E+00 -0.00000000000E+00 -0.14140983147E+04  0.14140983147E+04  0.00000000000E+00 0.  1.
         24    2    1    2    0    0 -0.20016158281E+02 -0.11776881196E+03 -0.13692311568E+04  0.13766420595E+04  0.77969607343E+02 0.  0.
         25    2    1    2    0    0 -0.34592518247E+02  0.96823822060E+02  0.13056637656E+03  0.20800940116E+03  0.12509531344E+03 0.  0.
        -24    2    1    2    0    0  0.54608676528E+02  0.20944989902E+02  0.10146452263E+04  0.10195256148E+04  0.80664389508E+02 0.  0.
        -13    1    3    3    0    0  0.19970160227E+02 -0.92685827669E+02 -0.85088014563E+03  0.85614630302E+03  0.00000000000E+00 0.  1.
         14    1    3    3    0    0 -0.39986318507E+02 -0.25082984292E+02 -0.51835101118E+03  0.52049575652E+03  0.00000000000E+00 0. -1.
         13    1    5    5    0    0  0.89959683272E+01 -0.11454792994E+01  0.75092625481E+03  0.75098101157E+03  0.00000000000E+00 0. -1.
        -14    1    5    5    0    0  0.45612708200E+02  0.22090469201E+02  0.26371897153E+03  0.26854460323E+03  0.00000000000E+00 0.  1.
          5    1    4    4  501    0 -0.75728772033E+02  0.74816535034E+02  0.11908171801E+03  0.15978200397E+03  0.41800000000E+01 0.  1.
         -5    1    4    4    0  501  0.41136253786E+02  0.22007287026E+02  0.11484658557E+02  0.48227397192E+02  0.41800000000E+01 0.  1.
</event>
<event>
11    1  0.6930157E-009  0.1621182E+03  0.7561462E-02  0.1085102E+00
         22   -1    0    0    0    0  0.00000000000E+00  0.00000000000E+00  0.59943138145E+03  0.59943138145E+03  0.00000000000E+00 0.  1.
         22   -1    0    0    0    0 -0.00000000000E+00 -0.00000000000E+00 -0.42436413305E+03  0.42436413305E+03  0.00000000000E+00 0.  1.
        -24    2    1    2    0    0 -0.95098645939E+02  0.51145708182E+02 -0.37535301498E+03  0.39881903299E+03  0.80666593451E+02 0.  0.
         25    2    1    2    0    0  0.18594258126E+02 -0.49163247989E+02  0.12220500558E+03  0.18260400433E+03  0.12508951843E+03 0.  0.
         24    2    1    2    0    0  0.76504387813E+02 -0.19824601939E+01  0.42821525779E+03  0.44237247718E+03  0.80425431641E+02 0.  0.
        -11    1    5    5    0    0  0.89282616998E+02 -0.16810716557E+02  0.36833428732E+03  0.37937334264E+03  0.00000000000E+00 0.  1.
         12    1    5    5    0    0 -0.12778229186E+02  0.14828256363E+02  0.59880970470E+02  0.62999134537E+02  0.00000000000E+00 0. -1.
         13    1    3    3    0    0 -0.14167027443E+02  0.21824926354E+02 -0.19004136551E+02  0.32220944787E+02  0.00000000000E+00 0. -1.
        -14    1    3    3    0    0 -0.80931618495E+02  0.29320781828E+02 -0.35634887843E+03  0.36659808821E+03  0.00000000000E+00 0.  1.
          5    1    4    4  501    0 -0.44418452884E+02 -0.31516077405E+02  0.98961033566E+02  0.11303548406E+03  0.41800000000E+01 0. -1.
         -5    1    4    4    0  501  0.63012711010E+02 -0.17647170584E+02  0.23243972015E+02  0.69568520276E+02  0.41800000000E+01 0. -1.
</event>
<event>
11    1  0.6930157E-009  0.2099611E+03  0.7561462E-02  0.1047695E+00
         22   -1    0    0    0    0  0.00000000000E+00  0.00000000000E+00  0.73461932125E+03  0.73461932125E+03  0.00000000000E+00 0. -1.
         22   -1    0    0    0    0 -0.00000000000E+00 -0.00000000000E+00 -0.11774310805E+04  0.11774310805E+04  0.00000000000E+00 0. -1.
         24    2    1    2    0    0 -0.96231298292E+02 -0.13962731910E+03 -0.11032860642E+04  0.11194586719E+04  0.84801695118E+02 0.  0.
         25    2    1    2    0    0  0.87209768878E+02  0.12312274553E+03  0.89123873827E+02  0.21530075037E+03  0.12508634605E+03 0.  0.
        -24    2    1    2    0    0  0.90215294137E+01  0.16504573567E+02  0.57135043114E+03  0.57729097951E+03  0.80434886187E+02 0.  0.
        -13    1    3    3    0    0 -0.80319692582E+01 -0.85181942828E+02 -0.53475244044E+03  0.54155392019E+03  0.00000000000E+00 0.  1.
         14    1    3    3    0    0 -0.88199329033E+02 -0.54445376273E+02 -0.56853362380E+03  0.57790475170E+03  0.00000000000E+00 0. -1.
         11    1    5    5    0    0  0.36441426255E+02 -0.15848729877E+02  0.30677483912E+03  0.30933794094E+03  0.00000000000E+00 0. -1.
        -12    1    5    5    0    0 -0.27419896842E+02  0.32353303444E+02  0.26457559202E+03  0.26795303857E+03  0.00000000000E+00 0.  1.
          5    1    4    4  501    0  0.29113812357E+02  0.13047286671E+03  0.80113706837E+02  0.15590529638E+03  0.41800000000E+01 0. -1.
         -5    1    4    4    0  501  0.58095956521E+02 -0.73501211713E+01  0.90101669905E+01  0.59395453988E+02  0.41800000000E+01 0. -1.
</event>
<event>
11    1  0.6930157E-009  0.1280859E+03  0.7561462E-02  0.1121643E+00
         22   -1    0    0    0    0  0.00000000000E+00  0.00000000000E+00  0.77894695247E+03  0.77894695247E+03  0.00000000000E+00 0. -1.
         22   -1    0    0    0    0 -0.00000000000E+00 -0.00000000000E+00 -0.34688276262E+03  0.34688276262E+03  0.00000000000E+00 0. -1.
         24    2    1    2    0    0  0.21358096818E+02  0.17056228418E+02 -0.30885980208E+03  0.31971119156E+03  0.77934494566E+02 0.  0.
         25    2    1    2    0    0  0.15879401306E+01 -0.54577783297E+02  0.12567726663E+03  0.18553339429E+03  0.12508640640E+03 0.  0.
        -24    2    1    2    0    0 -0.22946036949E+02  0.37521554879E+02  0.61524672529E+03  0.62058512924E+03  0.68286030463E+02 0.  0.
        -13    1    3    3    0    0 -0.37620787941E+01 -0.23674713981E+02 -0.19112678932E+03  0.19262423242E+03  0.00000000000E+00 0.  1.
         14    1    3    3    0    0  0.25120175612E+02  0.40730942399E+02 -0.11773301275E+03  0.12708695914E+03  0.00000000000E+00 0. -1.
         11    1    5    5    0    0 -0.22378375150E+02 -0.13005404139E+02  0.32004925378E+03  0.32109415606E+03  0.00000000000E+00 0. -1.
        -12    1    5    5    0    0 -0.56766179862E+00  0.50526959018E+02  0.29519747152E+03  0.29949097318E+03  0.00000000000E+00 0.  1.
          5    1    4    4  501    0  0.96046713350E+01  0.30314099962E+02  0.85229364383E+02  0.91064325183E+02  0.41800000000E+01 0.  1.
         -5    1    4    4    0  501 -0.80167312044E+01 -0.84891883259E+02  0.40447902245E+02  0.94469069109E+02  0.41800000000E+01 0.  1.
</event>
<event>
11    1  0.8186418E-009  0.1563247E+03  0.7561462E-02  0.1090586E+00
         22   -1    0    0    0    0  0.00000000000E+00  0.00000000000E+00  0.12688846412E+04  0.12688846412E+04  0.00000000000E+00 0. -1.
         22   -1    0    0    0    0 -0.00000000000E+00 -0.00000000000E+00 -0.87936187960E+03  0.87936187960E+03  0.00000000000E+00 0.  1.
        -24    2    1    2    0    0 -0.14433744369E+02  0.42398084459E+02 -0.54321252465E+03  0.55144701969E+03  0.83714025385E+02 0.  0.
         25    2    1    2    0    0  0.49303346321E+02  0.44962582660E+02 -0.31376252838E+03  0.34430604256E+03  0.12508906001E+03 0.  0.
         24    2    1    2    0    0 -0.34869601953E+02 -0.87360667119E+02  0.12464978146E+04  0.12524934585E+04  0.78328069859E+02 0.  0.
        -13    1    5    5    0    0 -0.34992055674E+01 -0.31250864293E+02  0.11652465185E+03  0.12069322867E+03  0.00000000000E+00 0.  1.
         14    1    5    5    0    0 -0.31370396385E+02 -0.56109802826E+02  0.11299731627E+04  0.11318002298E+04  0.00000000000E+00 0. -1.
         11    1    3    3    0    0  0.78994112731E+01  0.83410604886E+01 -0.65156181023E+01  0.13207091572E+02  0.00000000000E+00 0. -1.
        -12    1    3    3    0    0 -0.22333155642E+02  0.34057023971E+02 -0.53669690655E+03  0.53823992812E+03  0.00000000000E+00 0.  1.
          5    1    4    4  501    0  0.57437463555E+02  0.82272359716E+02 -0.19274946526E+03  0.21734220057E+03  0.41800000000E+01 0. -1.
         -5    1    4    4    0  501 -0.81341172341E+01 -0.37309777057E+02 -0.12101306312E+03  0.12696384199E+03  0.41800000000E+01 0. -1.
</event>
<event>
11    1  0.6930157E-009  0.2061190E+03  0.7561462E-02  0.1050279E+00
         22   -1    0    0    0    0  0.00000000000E+00  0.00000000000E+00  0.68116130017E+02  0.68116130017E+02  0.00000000000E+00 0.  1.
         22   -1    0    0    0    0 -0.00000000000E+00 -0.00000000000E+00 -0.29988670767E+04  0.29988670767E+04  0.00000000000E+00 0.  1.
        -24    2    1    2    0    0  0.28719174651E+02 -0.15481455165E+03 -0.20640056778E+04  0.20715111174E+04  0.79035026375E+02 0.  0.
         25    2    1    2    0    0 -0.53936903836E+02  0.18119362050E+03 -0.87770715998E+03  0.90650875189E+03  0.12509172980E+03 0.  0.
         24    2    1    2    0    0  0.25217729185E+02 -0.26379068850E+02  0.10961891035E+02  0.88963337425E+02  0.80389820327E+02 0.  0.
        -11    1    5    5    0    0  0.21513517183E+02 -0.16378190534E+02  0.45438610555E+02  0.52874794334E+02  0.00000000000E+00 0.  1.
         12    1    5    5    0    0  0.37042120023E+01 -0.10000878316E+02 -0.34476719519E+02  0.36088543091E+02  0.00000000000E+00 0. -1.
         11    1    3    3    0    0 -0.18297924632E+02 -0.30257415602E+02 -0.73590461772E+03  0.73675364378E+03  0.00000000000E+00 0. -1.
        -12    1    3    3    0    0  0.47017099283E+02 -0.12455713605E+03 -0.13281010600E+04  0.13347574737E+04  0.00000000000E+00 0.  1.
          5    1    4    4  501    0 -0.17827890993E+02  0.12763767092E+02 -0.15311099860E+02  0.27067501299E+02  0.41800000000E+01 0. -1.
         -5    1    4    4    0  501 -0.36109012843E+02  0.16842985341E+03 -0.86239606012E+03  0.87944125059E+03  0.41800000000E+01 0. -1.
</event>
<event>
11    1  0.6930157E-009  0.1585084E+03  0.7561462E-02  0.1088489E+00
         22   -1    0    0    0    0  0.00000000000E+00  0.00000000000E+00  0.32056546799E+03  0.32056546799E+03  0.00000000000E+00 0. -1.
         22   -1    0    0    0    0 -0.00000000000E+00 -0.00000000000E+00 -0.58447187749E+03  0.58447187749E+03  0.00000000000E+00 0.  1.
         24    2    1    2    0    0  0.10666083994E+02  0.76388933801E+02 -0.49269958181E+03  0.50532634732E+03  0.81564727848E+02 0.  0.
         25    2    1    2    0    0 -0.80580533992E+02 -0.12398068558E+03  0.76576173301E+02  0.20826903002E+03  0.12509054998E+03 0.  0.
        -24    2    1    2    0    0  0.69914449998E+02  0.47591751775E+02  0.15221699900E+03  0.19144196814E+03  0.79542486922E+02 0.  0.
        -13    1    3    3    0    0  0.26581118946E+02  0.15055390482E+02 -0.31847466555E+03  0.31993645192E+03  0.00000000000E+00 0.  1.
         14    1    3    3    0    0 -0.15915034952E+02  0.61333543320E+02 -0.17422491625E+03  0.18538989540E+03  0.00000000000E+00 0. -1.
         13    1    5    5    0    0  0.45730512808E+02  0.43443479908E+02  0.15442039888E+03  0.16680610103E+03  0.00000000000E+00 0. -1.
        -14    1    5    5    0    0  0.24183937190E+02  0.41482718672E+01 -0.22033998831E+01  0.24635867116E+02  0.00000000000E+00 0.  1.
          5    1    4    4  501    0 -0.98148077735E+02 -0.99435569719E+02  0.16296470528E+02  0.14072499792E+03  0.41800000000E+01 0.  1.
         -5    1    4    4    0  501  0.17567543743E+02 -0.24545115857E+02  0.60279702774E+02  0.67544032098E+02  0.41800000000E+01 0.  1.
</event>
<event>
11    1  0.6930157E-009  0.2137818E+03  0.7561462E-02  0.1045184E+00
         22   -1    0    0    0    0  0.00000000000E+00  0.00000000000E+00  0.12736864896E+04  0.12736864896E+04  0.00000000000E+00 0.  1.
         22   -1    0    0    0    0 -0.00000000000E+00 -0.00000000000E+00 -0.44188337104E+03  0.44188337104E+03  0.00000000000E+00 0.  1.
        -24    2    1    2    0    0 -0.10166043164E+03  0.14307066299E+03 -0.39788823936E+03  0.44200618404E+03  0.79059203969E+02 0.  0.
         25    2    1    2    0    0  0.10639483598E+03 -0.83123772357E+02  0.43005175832E+03  0.46778512088E+03  0.12509589053E+03 0.  0.
         24    2    1    2    0    0 -0.47344043338E+01 -0.59946890638E+02  0.79963959961E+03  0.80577855573E+03  0.78990805373E+02 0.  0.
        -11    1    5    5    0    0  0.15780552548E+02  0.14545462360E+02  0.14134663079E+03  0.14296666167E+03  0.00000000000E+00 0.  1.
         12    1    5    5    0    0 -0.20514956882E+02 -0.74492352998E+02  0.65829296882E+03  0.66281189406E+03  0.00000000000E+00 0. -1.
         11    1    3    3    0    0 -0.35276223591E+02  0.52637028686E+01 -0.11509466992E+03  0.12049440469E+03  0.00000000000E+00 0. -1.
        -12    1    3    3    0    0 -0.66384208053E+02  0.13780696013E+03 -0.28279356945E+03  0.32151177935E+03  0.00000000000E+00 0.  1.
          5    1    4    4  501    0  0.13161989848E+03 -0.69447341499E+02  0.30473373564E+03  0.33915608937E+03  0.41800000000E+01 0.  1.
         -5    1    4    4    0  501 -0.25225062500E+02 -0.13676430858E+02  0.12531802268E+03  0.12862903151E+03  0.41800000000E+01 0.  1.
</event>
<event>
11    1  0.6930157E-009  0.1989476E+03  0.7561462E-02  0.1055270E+00
         22   -1    0    0    0    0  0.00000000000E+00  0.00000000000E+00  0.21487110293E+04  0.21487110293E+04  0.00000000000E+00 0. -1.
         22   -1    0    0    0    0 -0.00000000000E+00 -0.00000000000E+00 -0.74341254410E+02  0.74341254410E+02  0.00000000000E+00 0.  1.
        -24    2    1    2    0    0 -0.24190644972E+02 -0.43033369576E+01 -0.26171323542E+02  0.87495195826E+02  0.79792011528E+02 0.  0.
         25    2    1    2    0    0  0.13324485256E+03  0.10234875669E+03  0.10033735225E+04  0.10250047536E+04  0.12508741078E+03 0.  0.
         24    2    1    2    0    0 -0.10905420759E+03 -0.98045419729E+02  0.10971675759E+04  0.11105523343E+04  0.89688757266E+02 0.  0.
        -11    1    5    5    0    0 -0.10936459183E+03 -0.62360107514E+02  0.65787401357E+03  0.66981162627E+03  0.00000000000E+00 0.  1.
         12    1    5    5    0    0  0.31038424325E+00 -0.35685312216E+02  0.43929356228E+03  0.44074070802E+03  0.00000000000E+00 0. -1.
         13    1    3    3    0    0 -0.16935315561E+02  0.89403880492E+01  0.26503705326E+02  0.32698346253E+02  0.00000000000E+00 0. -1.
        -14    1    3    3    0    0 -0.72553294105E+01 -0.13243725007E+02 -0.52675028868E+02  0.54796849574E+02  0.00000000000E+00 0.  1.
          5    1    4    4  501    0  0.69374174421E+02  0.94040855069E+02  0.36260891743E+03  0.38099758253E+03  0.41800000000E+01 0. -1.
         -5    1    4    4    0  501  0.63870678139E+02  0.83079016181E+01  0.64076460512E+03  0.64400717102E+03  0.41800000000E+01 0. -1.
</event>
<event>
11    1  0.6930157E-009  0.1337824E+03  0.7561462E-02  0.1114707E+00
         22   -1    0    0    0    0  0.00000000000E+00  0.00000000000E+00  0.29494775233E+04  0.29494775233E+04  0.00000000000E+00 0.  1.
         22   -1    0    0    0    0 -0.00000000000E+00 -0.00000000000E+00 -0.12305922041E+04  0.12305922041E+04  0.00000000000E+00 0. -1.
         24    2    1    2    0    0  0.22204685856E+02  0.31798549264E+01 -0.12170142364E+04  0.12200764122E+04  0.83424458780E+02 0.  0.
         25    2    1    2    0    0  0.20311937597E+02  0.20962136595E+02  0.35685773433E+03  0.37927113584E+03  0.12508863237E+03 0.  0.
        -24    2    1    2    0    0 -0.42516623454E+02 -0.24141991521E+02  0.25790418212E+04  0.25807221794E+04  0.79244890014E+02 0.  0.
        -11    1    3    3    0    0  0.21088972928E+02  0.21586963789E+02 -0.15546450219E+03  0.15836651549E+03  0.00000000000E+00 0.  1.
         12    1    3    3    0    0  0.11157129288E+01 -0.18407108863E+02 -0.10615497342E+04  0.10617098967E+04  0.00000000000E+00 0. -1.
         13    1    5    5    0    0 -0.40213401810E+02 -0.14697182498E+02  0.55230292284E+03  0.55395996555E+03  0.00000000000E+00 0. -1.
        -14    1    5    5    0    0 -0.23032216438E+01 -0.94448090226E+01  0.20267388984E+04  0.20267622139E+04  0.00000000000E+00 0.  1.
          5    1    4    4  501    0 -0.36115653871E+02 -0.20230863846E+02  0.23575932553E+03  0.23940250684E+03  0.41800000000E+01 0. -1.
         -5    1    4    4    0  501  0.56427591468E+02  0.41193000441E+02  0.12109840880E+03  0.13986862900E+03  0.41800000000E+01 0. -1.
</event>
<event>
11    1  0.6930157E-009  0.1258038E+03  0.7561462E-02  0.1124535E+00
         22   -1    0    0    0    0  0.00000000000E+00  0.00000000000E+00  0.34069218031E+03  0.34069218031E+03  0.00000000000E+00 0.  1.
         22   -1    0    0    0    0 -0.00000000000E+00 -0.00000000000E+00 -0.48028308722E+03  0.48028308722E+03  0.00000000000E+00 0. -1.
        -24    2    1    2    0    0  0.20324783903E+02 -0.68008824748E+01 -0.42898728149E+03  0.43644858599E+03  0.77446314870E+02 0.  0.
         25    2    1    2    0    0 -0.50362954483E+01  0.10877373720E+02  0.55965296791E+02  0.13756184956E+03  0.12508983363E+03 0.  0.
         24    2    1    2    0    0 -0.15288488454E+02 -0.40764912451E+01  0.23343107779E+03  0.24696483198E+03  0.79064559038E+02 0.  0.
        -11    1    5    5    0    0 -0.17384288379E+02 -0.21697526437E+02  0.22603744765E+03  0.22774091393E+03  0.00000000000E+00 0.  1.
         12    1    5    5    0    0  0.20957999243E+01  0.17621035192E+02  0.73936301365E+01  0.19223918049E+02  0.00000000000E+00 0. -1.
         11    1    3    3    0    0  0.37473990152E+02 -0.18487892895E+02 -0.39044162455E+03  0.39267131841E+03  0.00000000000E+00 0. -1.
        -12    1    3    3    0    0 -0.17149206249E+02  0.11687010420E+02 -0.38545656945E+02  0.43777267581E+02  0.00000000000E+00 0.  1.
          5    1    4    4  501    0 -0.63025683530E+02  0.20951179352E+02  0.32513383065E+02  0.74066059562E+02  0.41800000000E+01 0. -1.
         -5    1    4    4    0  501  0.57989388082E+02 -0.10073805632E+02  0.23451913726E+02  0.63495789998E+02  0.41800000000E+01 0. -1.
</event>
<event>
11    1  0.6930157E-009  0.1369161E+03  0.7561462E-02  0.1111052E+00
         22   -1    0    0    0    0  0.00000000000E+00  0.00000000000E+00  0.18645083950E+04  0.18645083950E+04  0.00000000000E+00 0.  1.
         22   -1    0    0    0    0 -0.00000000000E+00 -0.00000000000E+00 -0.76446939917E+02  0.76446939917E+02  0.00000000000E+00 0. -1.
         24    2    1    2    0    0  0.28549374081E+02 -0.54236655156E+02  0.42665690001E+02  0.10997399127E+03  0.80729400653E+02 0.  0.
         25    2    1    2    0    0 -0.15131701664E+02  0.45702207762E+02  0.65734790080E+02  0.14928795361E+03  0.12509264677E+03 0.  0.
        -24    2    1    2    0    0 -0.13417672417E+02  0.85344473947E+01  0.16796609750E+04  0.16816933901E+04  0.81109780109E+02 0.  0.
        -13    1    3    3    0    0  0.38837704940E+02 -0.64600325411E+01 -0.73430896198E+01  0.40050222354E+02  0.00000000000E+00 0.  1.
         14    1    3    3    0    0 -0.10288330859E+02 -0.47776622615E+02  0.50008779621E+02  0.69923768917E+02  0.00000000000E+00 0. -1.
         13    1    5    5    0    0 -0.28318650799E+02 -0.17886300685E+02  0.33079327125E+03  0.33248466737E+03  0.00000000000E+00 0. -1.
        -14    1    5    5    0    0  0.14900978382E+02  0.26420748080E+02  0.13488677038E+04  0.13492087227E+04  0.00000000000E+00 0.  1.
          5    1    4    4  501    0  0.13040564672E+02  0.63734271262E+02  0.87536381872E+02  0.10914304472E+03  0.41800000000E+01 0. -1.
         -5    1    4    4    0  501 -0.28172266336E+02 -0.18032063501E+02 -0.21801591792E+02  0.40144908884E+02  0.41800000000E+01 0. -1.
</event>
<event>
11    1  0.6930157E-009  0.2201580E+03  0.7561462E-02  0.1041119E+00
         22   -1    0    0    0    0  0.00000000000E+00  0.00000000000E+00  0.23898402254E+04  0.23898402254E+04  0.00000000000E+00 0.  1.
         22   -1    0    0    0    0 -0.00000000000E+00 -0.00000000000E+00 -0.20260168805E+04  0.20260168805E+04  0.00000000000E+00 0. -1.
         24    2    1    2    0    0 -0.13607411685E+03  0.12171323102E+03 -0.19993427305E+04  0.20092465005E+04  0.79811466143E+02 0.  0.
         25    2    1    2    0    0  0.68644279403E+02 -0.64234861642E+02  0.28986112341E+03  0.32939952230E+03  0.12508565020E+03 0.  0.
        -24    2    1    2    0    0  0.67429837451E+02 -0.57478369374E+02  0.20733049519E+04  0.20772110831E+04  0.91443502996E+02 0.  0.
        -13    1    3    3    0    0 -0.32727986405E+02  0.90147176407E+01 -0.16015061840E+03  0.16370890875E+03  0.00000000000E+00 0.  1.
         14    1    3    3    0    0 -0.10334613045E+03  0.11269851337E+03 -0.18391921121E+04  0.18455375918E+04  0.00000000000E+00 0. -1.
         11    1    5    5    0    0 -0.77671982116E+01  0.18517013264E+02  0.38685324976E+03  0.38737403888E+03  0.00000000000E+00 0. -1.
        -12    1    5    5    0    0  0.75197035663E+02 -0.75995382638E+02  0.16864517022E+04  0.16898370443E+04  0.00000000000E+00 0.  1.
          5    1    4    4  501    0  0.97031182508E+02 -0.13330053364E+02  0.18334160093E+03  0.20790467944E+03  0.41800000000E+01 0. -1.
         -5    1    4    4    0  501 -0.28386903104E+02 -0.50904808278E+02  0.10651952247E+03  0.12149484286E+03  0.41800000000E+01 0. -1.
</event>
<event>
11    1  0.6930157E-009  0.1415405E+03  0.7561462E-02  0.1105850E+00
         22   -1    0    0    0    0  0.00000000000E+00  0.00000000000E+00  0.23026501438E+04  0.23026501438E+04  0.00000000000E+00 0. -1.
         22   -1    0    0    0    0 -0.00000000000E+00 -0.00000000000E+00 -0.57801359826E+03  0.57801359826E+03  0.00000000000E+00 0.  1.
         24    2    1    2    0    0  0.20573051882E+02 -0.29149937548E+02 -0.56031103093E+03  0.56707180469E+03  0.79680681293E+02 0.  0.
         25    2    1    2    0    0 -0.54695982426E+02 -0.29211960368E+02  0.36681547011E+03  0.39249818116E+03  0.12512491350E+03 0.  0.
        -24    2    1    2    0    0  0.34122930544E+02  0.58361897917E+02  0.19181321063E+04  0.19210937562E+04  0.82461852954E+02 0.  0.
        -13    1    3    3    0    0 -0.24011799734E+02 -0.33844403479E+02 -0.22733881752E+03  0.23109510623E+03  0.00000000000E+00 0.  1.
         14    1    3    3    0    0  0.44584851616E+02  0.46944659307E+01 -0.33297221341E+03  0.33597669846E+03  0.00000000000E+00 0. -1.
         11    1    5    5    0    0  0.21803925638E+01 -0.17041200152E+02  0.70071834418E+03  0.70092892256E+03  0.00000000000E+00 0. -1.
        -12    1    5    5    0    0  0.31942537980E+02  0.75403098068E+02  0.12174137621E+04  0.12201648336E+04  0.00000000000E+00 0.  1.
          5    1    4    4  501    0  0.31092457478E+02  0.22511429000E+02  0.12137552522E+03  0.12736952489E+03  0.41800000000E+01 0. -1.
         -5    1    4    4    0  501 -0.85788439904E+02 -0.51723389369E+02  0.24543994488E+03  0.26512865627E+03  0.41800000000E+01 0. -1.
</event>
<event>
11    1  0.6930157E-009  0.1277664E+03  0.7561462E-02  0.1122044E+00
         22   -1    0    0    0    0  0.00000000000E+00  0.00000000000E+00  0.87582370416E+02  0.87582370416E+02  0.00000000000E+00 0. -1.
         22   -1    0    0    0    0 -0.00000000000E+00 -0.00000000000E+00 -0.18792068486E+04  0.18792068486E+04  0.00000000000E+00 0.  1.
        -24    2    1    2    0    0 -0.11206026908E+02  0.64819848315E+01 -0.13398078037E+04  0.13421392939E+04  0.78008602841E+02 0.  0.
         25    2    1    2    0    0  0.84191201445E+01 -0.32119359745E+02 -0.50679073695E+03  0.52305505983E+03  0.12508880729E+03 0.  0.
         24    2    1    2    0    0  0.27869067636E+01  0.25637374913E+02  0.54974062400E+02  0.10159486538E+03  0.81451379930E+02 0.  0.
        -11    1    5    5    0    0 -0.34293347574E+02  0.45261112802E+01  0.35480608074E+01  0.34772231833E+02  0.00000000000E+00 0.  1.
         12    1    5    5    0    0  0.37080254338E+02  0.21111263633E+02  0.51426001593E+02  0.66822633544E+02  0.00000000000E+00 0. -1.
         13    1    3    3    0    0  0.25525755113E+02 -0.17331412887E+02 -0.34771424076E+03  0.34908041377E+03  0.00000000000E+00 0. -1.
        -14    1    3    3    0    0 -0.36731782021E+02  0.23813397718E+02 -0.99209356292E+03  0.99305888009E+03  0.00000000000E+00 0.  1.
          5    1    4    4  501    0  0.34705005174E+02 -0.55226554366E+02 -0.13922706755E+03  0.15380526139E+03  0.41800000000E+01 0.  1.
         -5    1    4    4    0  501 -0.26285885030E+02  0.23107194621E+02 -0.36756366939E+03  0.36924979845E+03  0.41800000000E+01 0.  1.
</event>
<event>
11    1  0.6930157E-009  0.1520720E+03  0.7561462E-02  0.1094780E+00
         22   -1    0    0    0    0  0.00000000000E+00  0.00000000000E+00  0.13055786006E+04  0.13055786006E+04  0.00000000000E+00 0.  1.
         22   -1    0    0    0    0 -0.00000000000E+00 -0.00000000000E+00 -0.12018023008E+03  0.12018023008E+03  0.00000000000E+00 0. -1.
         24    2    1    2    0    0  0.46132591760E+02 -0.68560626772E+02 -0.20525039677E+01  0.11541568428E+03  0.80546830106E+02 0.  0.
         25    2    1    2    0    0  0.33916366917E+02  0.10305315400E+03  0.59466939698E+02  0.17594035968E+03  0.12509364794E+03 0.  0.
        -24    2    1    2    0    0 -0.80048958677E+02 -0.34492527224E+02  0.11279839348E+04  0.11344027867E+04  0.83212710193E+02 0.  0.
        -13    1    3    3    0    0  0.57588948892E+01  0.18234316090E+02  0.38592895342E+01  0.19507672064E+02  0.00000000000E+00 0.  1.
         14    1    3    3    0    0  0.40373696871E+02 -0.86794942863E+02 -0.59117935019E+01  0.95908012220E+02  0.00000000000E+00 0. -1.
         13    1    5    5    0    0 -0.33038834323E+02 -0.51812918997E+02  0.39953168483E+03  0.40422977417E+03  0.00000000000E+00 0. -1.
        -14    1    5    5    0    0 -0.47010124355E+02  0.17320391773E+02  0.72845224999E+03  0.73017301256E+03  0.00000000000E+00 0.  1.
          5    1    4    4  501    0  0.73341076359E+02  0.26432480820E+02  0.17517940891E+02  0.80012125186E+02  0.41800000000E+01 0. -1.
         -5    1    4    4    0  501 -0.39424709442E+02  0.76620673176E+02  0.41948998807E+02  0.95928234496E+02  0.41800000000E+01 0. -1.
</event>
<event>
11    1  0.6930157E-009  0.1748213E+03  0.7561462E-02  0.1073911E+00
         22   -1    0    0    0    0  0.00000000000E+00  0.00000000000E+00  0.30458168403E+03  0.30458168403E+03  0.00000000000E+00 0. -1.
         22   -1    0    0    0    0 -0.00000000000E+00 -0.00000000000E+00 -0.19309937918E+03  0.19309937918E+03  0.00000000000E+00 0.  1.
        -24    2    1    2    0    0  0.96784790025E+02  0.11459727252E+03 -0.23097022948E+02  0.17112346735E+03  0.79056550405E+02 0.  0.
         25    2    1    2    0    0 -0.61015126261E+02 -0.70769097477E+02 -0.37953483170E+01  0.15618118148E+03  0.12508815287E+03 0.  0.
         24    2    1    2    0    0 -0.35769663764E+02 -0.43828175040E+02  0.13837467611E+03  0.17037641439E+03  0.81732452650E+02 0.  0.
        -11    1    5    5    0    0 -0.53282225833E+02 -0.21914415013E+01  0.63389276387E+02  0.82837179856E+02  0.00000000000E+00 0.  1.
         12    1    5    5    0    0  0.17512562069E+02 -0.41636733538E+02  0.74985399727E+02  0.87539234530E+02  0.00000000000E+00 0. -1.
         11    1    3    3    0    0 -0.71269210869E+01  0.37688203971E+02  0.54227261042E+01  0.38737574538E+02  0.00000000000E+00 0. -1.
        -12    1    3    3    0    0  0.10391171111E+03  0.76909068546E+02 -0.28519749052E+02  0.13238589282E+03  0.00000000000E+00 0.  1.
          5    1    4    4  501    0 -0.68707495056E+02 -0.25426359728E+02  0.47304115439E+02  0.87306193271E+02  0.41800000000E+01 0.  1.
         -5    1    4    4    0  501  0.76923687953E+01 -0.45342737749E+02 -0.51099463756E+02  0.68874988207E+02  0.41800000000E+01 0.  1.
</event>
<event>
11    1  0.6930157E-009  0.1531957E+03  0.7561462E-02  0.1093657E+00
         22   -1    0    0    0    0  0.00000000000E+00  0.00000000000E+00  0.39888644224E+03  0.39888644224E+03  0.00000000000E+00 0. -1.
         22   -1    0    0    0    0 -0.00000000000E+00 -0.00000000000E+00 -0.84962771149E+02  0.84962771149E+02  0.00000000000E+00 0.  1.
         24    2    1    2    0    0 -0.35217346745E+02  0.17569053883E+02  0.94043375014E+02  0.12994393458E+03  0.80575036980E+02 0.  0.
         25    2    1    2    0    0 -0.69962176356E+02 -0.16606410256E+02  0.11268587530E+03  0.18307436166E+03  0.12509051292E+03 0.  0.
        -24    2    1    2    0    0  0.10517952310E+03 -0.96264362717E+00  0.10719442078E+03  0.17083091715E+03  0.81418054790E+02 0.  0.
        -13    1    3    3    0    0 -0.17157948004E+02  0.43942964296E+02  0.23948169901E+02  0.52904575724E+02  0.00000000000E+00 0.  1.
         14    1    3    3    0    0 -0.18059398741E+02 -0.26373910414E+02  0.70095205113E+02  0.77039358858E+02  0.00000000000E+00 0. -1.
         11    1    5    5    0    0  0.10830290944E+03  0.14017881687E+02  0.11029995836E+03  0.15521630718E+03  0.00000000000E+00 0. -1.
        -12    1    5    5    0    0 -0.31233863383E+01 -0.14980525314E+02 -0.31055375809E+01  0.15614609972E+02  0.00000000000E+00 0.  1.
          5    1    4    4  501    0 -0.99809036855E+02 -0.21878534324E+01  0.11139086464E+03  0.14963965940E+03  0.41800000000E+01 0. -1.
         -5    1    4    4    0  501  0.29846860499E+02 -0.14418556823E+02  0.12950106604E+01  0.33434702259E+02  0.41800000000E+01 0. -1.
</event>
<event>
11    1  0.6930157E-009  0.2231758E+03  0.7561462E-02  0.1039246E+00
         22   -1    0    0    0    0  0.00000000000E+00  0.00000000000E+00  0.10193973373E+04  0.10193973373E+04  0.00000000000E+00 0. -1.
         22   -1    0    0    0    0 -0.00000000000E+00 -0.00000000000E+00 -0.30481167877E+03  0.30481167877E+03  0.00000000000E+00 0. -1.
        -24    2    1    2    0    0  0.44450339814E+02  0.41107396519E+02 -0.13592334415E+03  0.16898102733E+03  0.80086087147E+02 0.  0.
         25    2    1    2    0    0 -0.22157848327E+03 -0.78318423810E+02 -0.15651952366E+02  0.26668961054E+03  0.12509022744E+03 0.  0.
         24    2    1    2    0    0  0.17712814346E+03  0.37211027291E+02  0.86616095505E+03  0.88853837821E+03  0.80663558923E+02 0.  0.
        -11    1    5    5    0    0  0.50274095820E+02  0.11289779241E+02  0.11122891936E+03  0.12258391545E+03  0.00000000000E+00 0.  1.
         12    1    5    5    0    0  0.12685404764E+03  0.25921248050E+02  0.75493203569E+03  0.76595446276E+03  0.00000000000E+00 0. -1.
         13    1    3    3    0    0  0.39813531682E+02  0.62355323007E+02 -0.12341976307E+03  0.14389489750E+03  0.00000000000E+00 0. -1.
        -14    1    3    3    0    0  0.46368081317E+01 -0.21247926489E+02 -0.12503581083E+02  0.25086129825E+02  0.00000000000E+00 0.  1.
          5    1    4    4  501    0 -0.88448435877E+02 -0.13021121877E+02 -0.64715929842E+02  0.11044591165E+03  0.41800000000E+01 0. -1.
         -5    1    4    4    0  501 -0.13313004739E+03 -0.65297301933E+02  0.49063977476E+02  0.15624369889E+03  0.41800000000E+01 0. -1.
</event>
<event>
11    1  0.6930157E-009  0.1426633E+03  0.7561462E-02  0.1104620E+00
         22   -1    0    0    0    0  0.00000000000E+00  0.00000000000E+00  0.68197202628E+03  0.68197202628E+03  0.00000000000E+00 0.  1.
         22   -1    0    0    0    0 -0.00000000000E+00 -0.00000000000E+00 -0.42824124275E+03  0.42824124275E+03  0.00000000000E+00 0.  1.
        -24    2    1    2    0    0  0.63543014370E+02 -0.24218097673E+02 -0.33432337602E+03  0.35069119863E+03  0.81166286827E+02 0.  0.
         25    2    1    2    0    0 -0.73256427931E+02  0.12934533888E+02 -0.19234983344E+02  0.14680355146E+03  0.12508993460E+03 0.  0.
         24    2    1    2    0    0  0.97134135603E+01  0.11283563785E+02  0.60728914289E+03  0.61271851894E+03  0.80013818572E+02 0.  0.
        -11    1    5    5    0    0 -0.28774613163E+02  0.27327144942E+02  0.29238687971E+03  0.29506751539E+03  0.00000000000E+00 0.  1.
         12    1    5    5    0    0  0.38488026723E+02 -0.16043581157E+02  0.31490226318E+03  0.31765100354E+03  0.00000000000E+00 0. -1.
         11    1    3    3    0    0  0.36311164762E+01  0.10622632174E+02 -0.19262375622E+03  0.19295060711E+03  0.00000000000E+00 0. -1.
        -12    1    3    3    0    0  0.59911897894E+02 -0.34840729847E+02 -0.14169961979E+03  0.15774059153E+03  0.00000000000E+00 0.  1.
          5    1    4    4  501    0 -0.47546876609E+02  0.63908929551E+02 -0.35478543319E+02  0.87299806344E+02  0.41800000000E+01 0.  1.
         -5    1    4    4    0  501 -0.25709551321E+02 -0.50974395663E+02  0.16243559974E+02  0.59503745117E+02  0.41800000000E+01 0.  1.
</event>
<event>
11    1  0.6930157E-009  0.4014316E+03  0.7561462E-02  0.9645543E-01
         22   -1    0    0    0    0  0.00000000000E+00  0.00000000000E+00  0.13556885888E+04  0.13556885888E+04  0.00000000000E+00 0. -1.
         22   -1    0    0    0    0 -0.00000000000E+00 -0.00000000000E+00 -0.49190205362E+03  0.49190205362E+03  0.00000000000E+00 0. -1.
         24    2    1    2    0    0 -0.24443437522E+02 -0.11948214240E+02 -0.20388386988E+03  0.22049817575E+03  0.79439106553E+02 0.  0.
         25    2    1    2    0    0 -0.10028240372E+03  0.37201216264E+03 -0.81876203329E+02  0.41327999839E+03  0.12508810794E+03 0.  0.
        -24    2    1    2    0    0  0.12472584124E+03 -0.36006394840E+03  0.11495466084E+04  0.12138124683E+04  0.81735676649E+02 0.  0.
        -13    1    3    3    0    0 -0.94896443592E+01  0.34003410608E+02 -0.76367410611E+02  0.84132435401E+02  0.00000000000E+00 0.  1.
         14    1    3    3    0    0 -0.14953793163E+02 -0.45951624848E+02 -0.12751645927E+03  0.13636574035E+03  0.00000000000E+00 0. -1.
         11    1    5    5    0    0  0.69901262326E+02 -0.26396227111E+03  0.71401505724E+03  0.76444736183E+03  0.00000000000E+00 0. -1.
        -12    1    5    5    0    0  0.54824578917E+02 -0.96101677292E+02  0.43553155115E+03  0.44936510643E+03  0.00000000000E+00 0.  1.
          5    1    4    4  501    0 -0.44259534194E+02  0.31884876421E+02  0.11962174038E+02  0.56001051054E+02  0.41800000000E+01 0.  1.
         -5    1    4    4    0  501 -0.56022869527E+02  0.34012728622E+03 -0.93838377367E+02  0.35727894734E+03  0.41800000000E+01 0.  1.
</event>
<event>
11    1  0.6930157E-009  0.1653369E+03  0.7561462E-02  0.1082162E+00
         22   -1    0    0    0    0  0.00000000000E+00  0.00000000000E+00  0.93674287975E+03  0.93674287975E+03  0.00000000000E+00 0.  1.
         22   -1    0    0    0    0 -0.00000000000E+00 -0.00000000000E+00 -0.44107990039E+03  0.44107990039E+03  0.00000000000E+00 0. -1.
        -24    2    1    2    0    0  0.19818652573E+02 -0.10975346609E+03 -0.39958184234E+03  0.42249090524E+03  0.79964454446E+02 0.  0.
         25    2    1    2    0    0 -0.34626806237E+01  0.55963521645E+02  0.14824448950E+03  0.20191818798E+03  0.12510243825E+03 0.  0.
         24    2    1    2    0    0 -0.16355971950E+02  0.53789944445E+02  0.74700033221E+03  0.75341368692E+03  0.80385392846E+02 0.  0.
        -11    1    5    5    0    0 -0.22255080024E+01 -0.48033216426E+01  0.46563207813E+03  0.46566217043E+03  0.00000000000E+00 0.  1.
         12    1    5    5    0    0 -0.14130463947E+02  0.58593266088E+02  0.28136825408E+03  0.28775151649E+03  0.00000000000E+00 0. -1.
         13    1    3    3    0    0 -0.99973179841E+01 -0.87309816132E+02 -0.34736495609E+03  0.35830903293E+03  0.00000000000E+00 0. -1.
        -14    1    3    3    0    0  0.29815970557E+02 -0.22443649957E+02 -0.52216886252E+02  0.64181872312E+02  0.00000000000E+00 0.  1.
          5    1    4    4  501    0 -0.40798602260E+02  0.64890239835E+01  0.13103476418E+03  0.13745623013E+03  0.41800000000E+01 0.  1.
         -5    1    4    4    0  501  0.37335921636E+02  0.49474497661E+02  0.17209725320E+02  0.64461957842E+02  0.41800000000E+01 0.  1.
</event>
<event>
11    1  0.6930157E-009  0.1316272E+03  0.7561462E-02  0.1117286E+00
         22   -1    0    0    0    0  0.00000000000E+00  0.00000000000E+00  0.70890526258E+03  0.70890526258E+03  0.00000000000E+00 0. -1.
         22   -1    0    0    0    0 -0.00000000000E+00 -0.00000000000E+00 -0.41453133022E+03  0.41453133022E+03  0.00000000000E+00 0.  1.
         24    2    1    2    0    0 -0.18910441262E+02 -0.50060962348E+02 -0.31324488101E+03  0.32531256136E+03  0.69585935078E+02 0.  0.
         25    2    1    2    0    0 -0.96307866434E+01  0.78300330476E+02 -0.32403999214E+02  0.15140128994E+03  0.12509451478E+03 0.  0.
        -24    2    1    2    0    0  0.28541227905E+02 -0.28239368128E+02  0.64002281258E+03  0.64672274150E+03  0.83720010381E+02 0.  0.
        -11    1    3    3    0    0 -0.44466740562E+02 -0.40250980392E+02 -0.19957550458E+03  0.20839341272E+03  0.00000000000E+00 0.  1.
         12    1    3    3    0    0  0.25556299300E+02 -0.98099819553E+01 -0.11366937643E+03  0.11691914864E+03  0.00000000000E+00 0. -1.
         13    1    5    5    0    0  0.49812411734E+02 -0.39584118185E+02  0.54450509779E+03  0.54820979588E+03  0.00000000000E+00 0. -1.
        -14    1    5    5    0    0 -0.21271183828E+02  0.11344750057E+02  0.95517714792E+02  0.98512945619E+02  0.00000000000E+00 0.  1.
          5    1    4    4  501    0 -0.60298400131E+02  0.65766753040E+02  0.93238122607E+00  0.89328072847E+02  0.41800000000E+01 0. -1.
         -5    1    4    4    0  501  0.50667613488E+02  0.12533577436E+02 -0.33336380440E+02  0.62073217097E+02  0.41800000000E+01 0. -1.
</event>
<event>
11    1  0.6930157E-009  0.1705074E+03  0.7561462E-02  0.1077591E+00
         22   -1    0    0    0    0  0.00000000000E+00  0.00000000000E+00  0.64769598078E+03  0.64769598078E+03  0.00000000000E+00 0.  1.
         22   -1    0    0    0    0 -0.00000000000E+00 -0.00000000000E+00 -0.36146270639E+03  0.36146270639E+03  0.00000000000E+00 0. -1.
         24    2    1    2    0    0 -0.36310147698E+02  0.44245997608E+02 -0.29980835325E+03  0.31544238112E+03  0.79641145137E+02 0.  0.
         25    2    1    2    0    0 -0.62661177013E+02 -0.10622337086E+03  0.13700967465E+03  0.22277469489E+03  0.12508831326E+03 0.  0.
        -24    2    1    2    0    0  0.98971324711E+02  0.61977373250E+02  0.44903195299E+03  0.47094161116E+03  0.80745206714E+02 0.  0.
        -13    1    3    3    0    0 -0.50750584094E+02  0.38835732123E+02 -0.12921944979E+03  0.14415790676E+03  0.00000000000E+00 0.  1.
         14    1    3    3    0    0  0.14440436396E+02  0.54102654850E+01 -0.17058890346E+03  0.17128447437E+03  0.00000000000E+00 0. -1.
         13    1    5    5    0    0 -0.12346162498E+02  0.18189908003E+02  0.82831180542E+02  0.85698920364E+02  0.00000000000E+00 0. -1.
        -14    1    5    5    0    0  0.11131748721E+03  0.43787465247E+02  0.36620077245E+03  0.38524269080E+03  0.00000000000E+00 0.  1.
          5    1    4    4  501    0 -0.61896833963E+02 -0.89655207909E+02  0.16030942915E+03  0.19387072970E+03  0.41800000000E+01 0.  1.
         -5    1    4    4    0  501 -0.76434304976E+00 -0.16568162949E+02 -0.23299754502E+02  0.28903965189E+02  0.41800000000E+01 0.  1.
</event>
<event>
11    1  0.6930157E-009  0.2185756E+03  0.7561462E-02  0.1042113E+00
         22   -1    0    0    0    0  0.00000000000E+00  0.00000000000E+00  0.23594424903E+03  0.23594424903E+03  0.00000000000E+00 0. -1.
         22   -1    0    0    0    0 -0.00000000000E+00 -0.00000000000E+00 -0.15476704066E+04  0.15476704066E+04  0.00000000000E+00 0. -1.
         24    2    1    2    0    0  0.47678812494E+02 -0.18400176464E+02 -0.11588941904E+04  0.11628402298E+04  0.80930957595E+02 0.  0.
         25    2    1    2    0    0  0.13747931176E+03  0.19546456653E+02 -0.31275835379E+03  0.36434527093E+03  0.12508822267E+03 0.  0.
        -24    2    1    2    0    0 -0.18515812425E+03 -0.11462801888E+01  0.15992638656E+03  0.25642915495E+03  0.76776412094E+02 0.  0.
        -13    1    3    3    0    0  0.43188857364E+02  0.16884282112E+02 -0.33684959943E+03  0.34002648282E+03  0.00000000000E+00 0.  1.
         14    1    3    3    0    0  0.44899551297E+01 -0.35284458577E+02 -0.82204459093E+03  0.82281374697E+03  0.00000000000E+00 0. -1.
         13    1    5    5    0    0 -0.11382676335E+03  0.24684933688E+02  0.13086224920E+03  0.17518791702E+03  0.00000000000E+00 0. -1.
        -14    1    5    5    0    0 -0.71331360907E+02 -0.25831213877E+02  0.29064137361E+02  0.81241237926E+02  0.00000000000E+00 0.  1.
          5    1    4    4  501    0  0.10175630604E+03  0.44894318477E+02 -0.10861532261E+03  0.15551400695E+03  0.41800000000E+01 0.  1.
         -5    1    4    4    0  501  0.35723005720E+02 -0.25347861824E+02 -0.20414303118E+03  0.20883126398E+03  0.41800000000E+01 0.  1.
</event>
<event>
11    1  0.6930157E-009  0.1533335E+03  0.7561462E-02  0.1093521E+00
         22   -1    0    0    0    0  0.00000000000E+00  0.00000000000E+00  0.19909869742E+03  0.19909869742E+03  0.00000000000E+00 0. -1.
         22   -1    0    0    0    0 -0.00000000000E+00 -0.00000000000E+00 -0.90443132807E+03  0.90443132807E+03  0.00000000000E+00 0.  1.
        -24    2    1    2    0    0 -0.17174214073E+02  0.44034896452E+02 -0.78351895298E+03  0.78924166539E+03  0.82258318598E+02 0.  0.
         25    2    1    2    0    0  0.98187620082E+02 -0.87521244452E+01 -0.17757131286E+02  0.16025123728E+03  0.12509090662E+03 0.  0.
         24    2    1    2    0    0 -0.81013406009E+02 -0.35282772007E+02  0.95943453614E+02  0.15403712281E+03  0.81940484253E+02 0.  0.
        -11    1    5    5    0    0 -0.58134757986E+02 -0.46889515182E+02  0.25262826599E+02  0.78844702599E+02  0.00000000000E+00 0.  1.
         12    1    5    5    0    0 -0.22878648023E+02  0.11606743175E+02  0.70680627015E+02  0.75192420215E+02  0.00000000000E+00 0. -1.
         13    1    3    3    0    0 -0.39789355996E+02  0.36120811760E+02 -0.27748608305E+03  0.28264187974E+03  0.00000000000E+00 0. -1.
        -14    1    3    3    0    0  0.22615141923E+02  0.79140846925E+01 -0.50603286993E+03  0.50659978566E+03  0.00000000000E+00 0.  1.
          5    1    4    4  501    0 -0.21960007728E+02  0.24691985234E+02 -0.11755711029E+02  0.35321455463E+02  0.41800000000E+01 0.  1.
         -5    1    4    4    0  501  0.12014762781E+03 -0.33444109679E+02 -0.60014202571E+01  0.12492978182E+03  0.41800000000E+01 0.  1.
</event>
<event>
11    1  0.6930157E-009  0.1488980E+03  0.7561462E-02  0.1098010E+00
         22   -1    0    0    0    0  0.00000000000E+00  0.00000000000E+00  0.69255142550E+03  0.69255142550E+03  0.00000000000E+00 0.  1.
         22   -1    0    0    0    0 -0.00000000000E+00 -0.00000000000E+00 -0.35438058840E+03  0.35438058840E+03  0.00000000000E+00 0.  1.
         24    2    1    2    0    0 -0.57245591463E+02 -0.49605891737E+02 -0.18940881387E+03  0.22099039665E+03  0.84989731158E+02 0.  0.
         25    2    1    2    0    0  0.11815012335E+03 -0.21088071619E+01 -0.92595280386E+02  0.19541028513E+03  0.12508954740E+03 0.  0.
        -24    2    1    2    0    0 -0.60904531889E+02  0.51714698899E+02  0.62017493136E+03  0.63053133212E+03  0.81049634304E+02 0.  0.
        -11    1    3    3    0    0 -0.68999902595E+02 -0.13396504668E+02 -0.15272344626E+03  0.16812169382E+03  0.00000000000E+00 0.  1.
         12    1    3    3    0    0  0.11754311133E+02 -0.36209387069E+02 -0.36685367612E+02  0.52868702830E+02  0.00000000000E+00 0. -1.
         13    1    5    5    0    0 -0.15418029608E+02  0.10099215980E+02  0.43445858028E+03  0.43484936217E+03  0.00000000000E+00 0. -1.
        -14    1    5    5    0    0 -0.45486502281E+02  0.41615482919E+02  0.18571635108E+03  0.19568196996E+03  0.00000000000E+00 0.  1.
          5    1    4    4  501    0  0.12634186541E+03  0.17376327841E+00 -0.27164403228E+02  0.12929684586E+03  0.41800000000E+01 0.  1.
         -5    1    4    4    0  501 -0.81917420538E+01 -0.22825704403E+01 -0.65430877159E+02  0.66113439265E+02  0.41800000000E+01 0.  1.
</event>
<event>
11    1  0.6930157E-009  0.1944280E+03  0.7561462E-02  0.1058535E+00
         22   -1    0    0    0    0  0.00000000000E+00  0.00000000000E+00  0.11754153408E+04  0.11754153408E+04  0.00000000000E+00 0.  1.
         22   -1    0    0    0    0 -0.00000000000E+00 -0.00000000000E+00 -0.59286568636E+03  0.59286568636E+03  0.00000000000E+00 0. -1.
        -24    2    1    2    0    0  0.14165864686E+03  0.47783832926E+02 -0.56448799671E+03  0.58980973802E+03  0.82935889170E+02 0.  0.
         25    2    1    2    0    0 -0.93577455068E+02 -0.69890536932E+02  0.74406091153E+03  0.76348492457E+03  0.12506463419E+03 0.  0.
         24    2    1    2    0    0 -0.48081191797E+02  0.22106704006E+02  0.40297673963E+03  0.41498636458E+03  0.83802880257E+02 0.  0.
        -11    1    5    5    0    0 -0.21707546719E+02  0.28915884044E+02  0.54235988200E+02  0.65183497533E+02  0.00000000000E+00 0.  1.
         12    1    5    5    0    0 -0.26373645078E+02 -0.68091800384E+01  0.34874075143E+03  0.34980286705E+03  0.00000000000E+00 0. -1.
         13    1    3    3    0    0  0.10936569579E+03 -0.43322357946E+01 -0.34784341455E+03  0.36465691373E+03  0.00000000000E+00 0. -1.
        -14    1    3    3    0    0  0.32292951076E+02  0.52116068721E+02 -0.21664458216E+03  0.22515282429E+03  0.00000000000E+00 0.  1.
          5    1    4    4  501    0 -0.10762088950E+03 -0.12095859390E+02  0.54564613767E+03  0.55630544275E+03  0.41800000000E+01 0.  1.
         -5    1    4    4    0  501  0.14043434437E+02 -0.57794677543E+02  0.19841477386E+03  0.20717948183E+03  0.41800000000E+01 0.  1.
</event>
<event>
11    1  0.6930157E-009  0.1508630E+03  0.7561462E-02  0.1096000E+00
         22   -1    0    0    0    0  0.00000000000E+00  0.00000000000E+00  0.14952899540E+04  0.14952899540E+04  0.00000000000E+00 0. -1.
         22   -1    0    0    0    0 -0.00000000000E+00 -0.00000000000E+00 -0.13527814951E+04  0.13527814951E+04  0.00000000000E+00 0.  1.
        -24    2    1    2    0    0 -0.58968209951E+02 -0.66591885115E+02 -0.11092658899E+04  0.11156254087E+04  0.78977903281E+02 0.  0.
         25    2    1    2    0    0 -0.67526359414E+01  0.73001828299E+02 -0.21646894608E+03  0.26054172483E+03  0.12509324815E+03 0.  0.
         24    2    1    2    0    0  0.65720845892E+02 -0.64099431838E+01  0.14682432948E+04  0.14719043156E+04  0.80022649228E+02 0.  0.
        -11    1    5    5    0    0 -0.11060362928E+01 -0.15950968868E+02  0.61571746950E+02  0.63613966600E+02  0.00000000000E+00 0.  1.
         12    1    5    5    0    0  0.66826882185E+02  0.95410256846E+01  0.14066715479E+04  0.14082903490E+04  0.00000000000E+00 0. -1.
         13    1    3    3    0    0 -0.58362142626E+02 -0.46387412404E+02 -0.45656862588E+03  0.46261522009E+03  0.00000000000E+00 0. -1.
        -14    1    3    3    0    0 -0.60606732470E+00 -0.20204472711E+02 -0.65269726399E+03  0.65301018863E+03  0.00000000000E+00 0.  1.
          5    1    4    4  501    0 -0.25262786575E+02 -0.72409543028E+01  0.23389246350E+01  0.26712970131E+02  0.41800000000E+01 0. -1.
         -5    1    4    4    0  501  0.18510150634E+02  0.80242782602E+02 -0.21880787071E+03  0.23382875470E+03  0.41800000000E+01 0. -1.
</event>
<event>
11    1  0.6930157E-009  0.1894890E+03  0.7561462E-02  0.1062216E+00
         22   -1    0    0    0    0  0.00000000000E+00  0.00000000000E+00  0.25230596890E+03  0.25230596890E+03  0.00000000000E+00 0.  1.
         22   -1    0    0    0    0 -0.00000000000E+00 -0.00000000000E+00 -0.28274087798E+04  0.28274087798E+04  0.00000000000E+00 0.  1.
         24    2    1    2    0    0 -0.26686231435E+02  0.17894173791E+02 -0.25531693286E+04  0.25547349205E+04  0.83453802234E+02 0.  0.
         25    2    1    2    0    0 -0.11467659566E+03  0.17794007255E+02 -0.21203145475E+03  0.27216142057E+03  0.12508857964E+03 0.  0.
        -24    2    1    2    0    0  0.14136282709E+03 -0.35688181046E+02  0.19009797243E+03  0.25281840765E+03  0.80763933623E+02 0.  0.
        -13    1    3    3    0    0 -0.49227185702E+02  0.35566467261E+02 -0.16939970307E+04  0.16950853162E+04  0.00000000000E+00 0.  1.
         14    1    3    3    0    0  0.22540954267E+02 -0.17672293470E+02 -0.85917229795E+03  0.85964960428E+03  0.00000000000E+00 0. -1.
         13    1    5    5    0    0  0.32609988075E+02  0.40531687152E+01  0.32739904923E+01  0.33023605385E+02  0.00000000000E+00 0. -1.
        -14    1    5    5    0    0  0.10875283902E+03 -0.39741349762E+02  0.18682398194E+03  0.21979480226E+03  0.00000000000E+00 0.  1.
          5    1    4    4  501    0 -0.12654399714E+03  0.30922090633E+02 -0.11617574695E+03  0.17459620695E+03  0.41800000000E+01 0.  1.
         -5    1    4    4    0  501  0.11867401483E+02 -0.13128083378E+02 -0.95855707797E+02  0.97565213618E+02  0.41800000000E+01 0.  1.
</event>
<event>
11    1  0.6930157E-009  0.2483520E+03  0.7561462E-02  0.1024781E+00
         22   -1    0    0    0    0  0.00000000000E+00  0.00000000000E+00  0.47671269756E+03  0.47671269756E+03  0.00000000000E+00 0.  1.
         22   -1    0    0    0    0 -0.00000000000E+00 -0.00000000000E+00 -0.82807758105E+03  0.82807758105E+03  0.00000000000E+00 0.  1.
        -24    2    1    2    0    0  0.44569190014E+02  0.46635344967E+02 -0.48010901690E+03  0.49114966589E+03  0.81006531155E+02 0.  0.
         25    2    1    2    0    0  0.40537372265E+02  0.15626732589E+03 -0.27774007425E+03  0.34474581059E+03  0.12508944554E+03 0.  0.
         24    2    1    2    0    0 -0.85106562279E+02 -0.20290267086E+03  0.40648420767E+03  0.46889480213E+03  0.78868901333E+02 0.  0.
        -13    1    5    5    0    0  0.65013140712E+01 -0.78688779456E+02  0.15141339702E+03  0.17076360237E+03  0.00000000000E+00 0.  1.
         14    1    5    5    0    0 -0.91607876351E+02 -0.12421389140E+03  0.25507081064E+03  0.29813119976E+03  0.00000000000E+00 0. -1.
         11    1    3    3    0    0 -0.12890564731E+02  0.55805309982E+00 -0.13168546405E+02  0.18436070535E+02  0.00000000000E+00 0. -1.
        -12    1    3    3    0    0  0.57459754745E+02  0.46077291867E+02 -0.46694047050E+03  0.47271359535E+03  0.00000000000E+00 0.  1.
          5    1    4    4  501    0  0.31047574096E+02  0.14445197162E+03 -0.28954205498E+03  0.32508829257E+03  0.41800000000E+01 0.  1.
         -5    1    4    4    0  501  0.94897981695E+01  0.11815354267E+02  0.11801980729E+02  0.19657518024E+02  0.41800000000E+01 0.  1.
</event>
<event>
11    1  0.6930157E-009  0.1871059E+03  0.7561462E-02  0.1064036E+00
         22   -1    0    0    0    0  0.00000000000E+00  0.00000000000E+00  0.31847308140E+04  0.31847308140E+04  0.00000000000E+00 0.  1.
         22   -1    0    0    0    0 -0.00000000000E+00 -0.00000000000E+00 -0.24458952848E+04  0.24458952848E+04  0.00000000000E+00 0.  1.
        -24    2    1    2    0    0 -0.58489693309E+01  0.39653344521E+02 -0.24118406913E+04  0.24134725346E+04  0.79167902206E+02 0.  0.
         25    2    1    2    0    0 -0.13312767085E+03 -0.49502245666E+02  0.25792026485E+03  0.31991108971E+03  0.12508714252E+03 0.  0.
         24    2    1    2    0    0  0.13897664018E+03  0.98489011451E+01  0.28927559557E+04  0.28972424744E+04  0.81027337124E+02 0.  0.
        -11    1    5    5    0    0  0.14375439704E+03 -0.53983637030E+01  0.24709685010E+04  0.24751524806E+04  0.00000000000E+00 0.  1.
         12    1    5    5    0    0 -0.47777568569E+01  0.15247264848E+02  0.42178745464E+03  0.42208999389E+03  0.00000000000E+00 0. -1.
         13    1    3    3    0    0  0.11807363293E+02  0.21109337186E+02 -0.19638221406E+03  0.19786609599E+03  0.00000000000E+00 0. -1.
        -14    1    3    3    0    0 -0.17656332624E+02  0.18544007335E+02 -0.22154584773E+04  0.22156064386E+04  0.00000000000E+00 0.  1.
          5    1    4    4  501    0 -0.15741492571E+03 -0.41092306323E+02  0.21400767879E+03  0.26885831856E+03  0.41800000000E+01 0. -1.
         -5    1    4    4    0  501  0.24287254852E+02 -0.84099393434E+01  0.43912586056E+02  0.51052771151E+02  0.41800000000E+01 0. -1.
</event>
<event>
11    1  0.6930157E-009  0.1527167E+03  0.7561462E-02  0.1094135E+00
         22   -1    0    0    0    0  0.00000000000E+00  0.00000000000E+00  0.21652812095E+03  0.21652812095E+03  0.00000000000E+00 0.  1.
         22   -1    0    0    0    0 -0.00000000000E+00 -0.00000000000E+00 -0.74050229495E+03  0.74050229495E+03  0.00000000000E+00 0.  1.
         24    2    1    2    0    0  0.22478029069E+02  0.29369080564E+01 -0.64075277896E+03  0.64684671495E+03  0.85630962185E+02 0.  0.
         25    2    1    2    0    0 -0.10254075086E+03 -0.40397450118E+01  0.37291169954E+02  0.16604174644E+03  0.12509318557E+03 0.  0.
        -24    2    1    2    0    0  0.80062721792E+02  0.11028369555E+01  0.79487435000E+02  0.14414195452E+03  0.89707274281E+02 0.  0.
        -13    1    3    3    0    0 -0.25768174970E+02 -0.14951519128E+02 -0.37344697206E+03  0.37463340442E+03  0.00000000000E+00 0.  1.
         14    1    3    3    0    0  0.48246204039E+02  0.17888427184E+02 -0.26730580690E+03  0.27221331054E+03  0.00000000000E+00 0. -1.
         13    1    5    5    0    0 -0.19124302158E+02  0.49545473067E+01  0.60297046290E+01  0.20655357900E+02  0.00000000000E+00 0. -1.
        -14    1    5    5    0    0  0.99187023951E+02 -0.38517103513E+01  0.73457730371E+02  0.12348659662E+03  0.00000000000E+00 0.  1.
          5    1    4    4  501    0 -0.29997784160E+02  0.43575120440E+01 -0.45964093749E+02  0.55217979679E+02  0.41800000000E+01 0.  1.
         -5    1    4    4    0  501 -0.72542966701E+02 -0.83972570558E+01  0.83255263703E+02  0.11082376676E+03  0.41800000000E+01 0.  1.
</event>
<event>
11    1  0.6930157E-009  0.1278879E+03  0.7561462E-02  0.1121892E+00
         22   -1    0    0    0    0  0.00000000000E+00  0.00000000000E+00  0.60946089069E+03  0.60946089069E+03  0.00000000000E+00 0.  1.
         22   -1    0    0    0    0 -0.00000000000E+00 -0.00000000000E+00 -0.27871106718E+03  0.27871106718E+03  0.00000000000E+00 0.  1.
        -24    2    1    2    0    0  0.23321043876E+02 -0.12594375636E+02 -0.24516988394E+03  0.25925191358E+03  0.80004958081E+02 0.  0.
         25    2    1    2    0    0 -0.20063948903E+02  0.25282513822E+02  0.16324997213E+03  0.20817972726E+03  0.12508588206E+03 0.  0.
         24    2    1    2    0    0 -0.32570949736E+01 -0.12688138186E+02  0.41266973532E+03  0.42074031703E+03  0.80959906173E+02 0.  0.
        -13    1    5    5    0    0  0.25583094367E+02 -0.17543389400E+02  0.35226312429E+03  0.35362631967E+03  0.00000000000E+00 0.  1.
         14    1    5    5    0    0 -0.28840189341E+02  0.48552512143E+01  0.60406611033E+02  0.67113997363E+02  0.00000000000E+00 0. -1.
         11    1    3    3    0    0 -0.26581070403E+02  0.27467828361E+01 -0.13119779293E+03  0.13389159417E+03  0.00000000000E+00 0. -1.
        -12    1    3    3    0    0  0.49902114280E+02 -0.15341158473E+02 -0.11397209101E+03  0.12536031941E+03  0.00000000000E+00 0.  1.
          5    1    4    4  501    0 -0.45868412447E+02  0.41395103524E+02  0.16616942927E+03  0.17733363325E+03  0.41800000000E+01 0. -1.
         -5    1    4    4    0  501  0.25804463545E+02 -0.16112589702E+02 -0.29194571451E+01  0.30846094011E+02  0.41800000000E+01 0. -1.
</event>
<event>
11    1  0.6930157E-009  0.1615886E+03  0.7561462E-02  0.1085593E+00
         22   -1    0    0    0    0  0.00000000000E+00  0.00000000000E+00  0.27004651889E+03  0.27004651889E+03  0.00000000000E+00 0.  1.
         22   -1    0    0    0    0 -0.00000000000E+00 -0.00000000000E+00 -0.18900620057E+04  0.18900620057E+04  0.00000000000E+00 0. -1.
         24    2    1    2    0    0  0.21577416529E+02 -0.99405421438E+02 -0.14846546697E+04  0.14901555654E+04  0.77569954962E+02 0.  0.
         25    2    1    2    0    0  0.42206435480E+02  0.11534583771E+03 -0.37154814462E+03  0.41083028429E+03  0.12508978073E+03 0.  0.
        -24    2    1    2    0    0 -0.63783852009E+02 -0.15940416275E+02  0.23618732753E+03  0.25912267496E+03  0.83890585572E+02 0.  0.
        -13    1    3    3    0    0  0.34529039729E+02 -0.28891013451E+02 -0.30284136794E+03  0.30616962517E+03  0.00000000000E+00 0.  1.
         14    1    3    3    0    0 -0.12951623200E+02 -0.70514407987E+02 -0.11818133018E+04  0.11839859402E+04  0.00000000000E+00 0. -1.
         11    1    5    5    0    0 -0.15428274998E+01 -0.34769453362E+02  0.43206243961E+02  0.55480399431E+02  0.00000000000E+00 0. -1.
        -12    1    5    5    0    0 -0.62241024509E+02  0.18829037088E+02  0.19298108357E+03  0.20364227553E+03  0.00000000000E+00 0.  1.
          5    1    4    4  501    0 -0.25870775414E+02  0.94627989151E+02 -0.26528141856E+03  0.28287003515E+03  0.41800000000E+01 0.  1.
         -5    1    4    4    0  501  0.68077210894E+02  0.20717848562E+02 -0.10626672606E+03  0.12796024914E+03  0.41800000000E+01 0.  1.
</event>
<event>
11    1  0.6930157E-009  0.1836815E+03  0.7561462E-02  0.1066703E+00
         22   -1    0    0    0    0  0.00000000000E+00  0.00000000000E+00  0.59070673549E+03  0.59070673549E+03  0.00000000000E+00 0.  1.
         22   -1    0    0    0    0 -0.00000000000E+00 -0.00000000000E+00 -0.10982448918E+04  0.10982448918E+04  0.00000000000E+00 0.  1.
         24    2    1    2    0    0  0.37013742152E+02  0.12601508342E+03 -0.97206640146E+03  0.98423794436E+03  0.81002616666E+02 0.  0.
         25    2    1    2    0    0 -0.11773983782E+03 -0.18088070815E+03  0.28982334012E+02  0.25113414633E+03  0.12509150162E+03 0.  0.
        -24    2    1    2    0    0  0.80726095669E+02  0.54865624731E+02  0.43554591110E+03  0.45357953663E+03  0.80667317296E+02 0.  0.
        -13    1    3    3    0    0  0.25632509268E+02  0.13520167073E+03 -0.81964399037E+03  0.83111538804E+03  0.00000000000E+00 0.  1.
         14    1    3    3    0    0  0.11381232884E+02 -0.91865873075E+01 -0.15242241109E+03  0.15312255631E+03  0.00000000000E+00 0. -1.
         11    1    5    5    0    0  0.36144386523E+02 -0.16154974374E+02  0.96227210616E+02  0.10405323607E+03  0.00000000000E+00 0. -1.
        -12    1    5    5    0    0  0.44581709146E+02  0.71020599105E+02  0.33931870048E+03  0.34952630056E+03  0.00000000000E+00 0.  1.
          5    1    4    4  501    0 -0.86157256939E+02 -0.18173550268E+03 -0.92265712462E+01  0.20137891616E+03  0.41800000000E+01 0. -1.
         -5    1    4    4    0  501 -0.31582580882E+02  0.85479452357E+00  0.38208905258E+02  0.49755230176E+02  0.41800000000E+01 0. -1.
</event>
<event>
11    1  0.6930157E-009  0.1481274E+03  0.7561462E-02  0.1098808E+00
         22   -1    0    0    0    0  0.00000000000E+00  0.00000000000E+00  0.36576010166E+03  0.36576010166E+03  0.00000000000E+00 0.  1.
         22   -1    0    0    0    0 -0.00000000000E+00 -0.00000000000E+00 -0.90208732411E+03  0.90208732411E+03  0.00000000000E+00 0. -1.
         24    2    1    2    0    0  0.63197359929E+01  0.20718208609E+02 -0.79430674562E+03  0.79858783226E+03  0.79687743577E+02 0.  0.
         25    2    1    2    0    0 -0.50541597406E+02 -0.84109109821E+02 -0.28786625280E+02  0.16157086778E+03  0.12509068749E+03 0.  0.
        -24    2    1    2    0    0  0.44221861413E+02  0.63390901213E+02  0.28676614844E+03  0.30768872572E+03  0.80396198041E+02 0.  0.
        -13    1    3    3    0    0 -0.49415441444E+01  0.44387130802E+02 -0.27355032138E+03  0.27717217495E+03  0.00000000000E+00 0.  1.
         14    1    3    3    0    0  0.11261280137E+02 -0.23668922193E+02 -0.52075642424E+03  0.52141565732E+03  0.00000000000E+00 0. -1.
         11    1    5    5    0    0 -0.18707610794E+02  0.39513946502E+02  0.12738538490E+03  0.13467873980E+03  0.00000000000E+00 0. -1.
        -12    1    5    5    0    0  0.62929472207E+02  0.23876954710E+02  0.15938076355E+03  0.17300998592E+03  0.00000000000E+00 0.  1.
          5    1    4    4  501    0 -0.45263492507E+02  0.13099557555E+02  0.21449709519E+02  0.51941742371E+02  0.41800000000E+01 0.  1.
         -5    1    4    4    0  501 -0.52781048988E+01 -0.97208667377E+02 -0.50236334799E+02  0.10962912541E+03  0.41800000000E+01 0.  1.
</event>
<event>
11    1  0.6930157E-009  0.1617333E+03  0.7561462E-02  0.1085458E+00
         22   -1    0    0    0    0  0.00000000000E+00  0.00000000000E+00  0.32500097851E+04  0.32500097851E+04  0.00000000000E+00 0.  1.
         22   -1    0    0    0    0 -0.00000000000E+00 -0.00000000000E+00 -0.17094458431E+03  0.17094458431E+03  0.00000000000E+00 0.  1.
         24    2    1    2    0    0  0.11592151056E+03  0.18405726714E+02 -0.92110433602E+02  0.16938967637E+03  0.80199520561E+02 0.  0.
         25    2    1    2    0    0 -0.34225832361E+02 -0.69635268910E+02  0.10025665556E+03  0.17810070552E+03  0.12509191040E+03 0.  0.
        -24    2    1    2    0    0 -0.81695678195E+02  0.51229542196E+02  0.30709189788E+04  0.30734639875E+04  0.79616946559E+02 0.  0.
        -13    1    3    3    0    0  0.56046445117E+02  0.39686740581E+02 -0.16511627415E+02  0.70631970297E+02  0.00000000000E+00 0.  1.
         14    1    3    3    0    0  0.59875065439E+02 -0.21281013867E+02 -0.75598806188E+02  0.98757706077E+02  0.00000000000E+00 0. -1.
         13    1    5    5    0    0  0.11099221487E+02 -0.82029713754E+01  0.48857505993E+03  0.48876995677E+03  0.00000000000E+00 0. -1.
        -14    1    5    5    0    0 -0.92794899682E+02  0.59432513572E+02  0.25823439189E+04  0.25846940307E+04  0.00000000000E+00 0.  1.
          5    1    4    4  501    0 -0.77609175028E+02 -0.22209773033E+02  0.41258738063E+02  0.90753589093E+02  0.41800000000E+01 0. -1.
         -5    1    4    4    0  501  0.43383342667E+02 -0.47425495877E+02  0.58997917492E+02  0.87347116429E+02  0.41800000000E+01 0. -1.
</event>
<event>
11    1  0.6930157E-009  0.1901914E+03  0.7561462E-02  0.1061685E+00
         22   -1    0    0    0    0  0.00000000000E+00  0.00000000000E+00  0.78005005679E+02  0.78005005679E+02  0.00000000000E+00 0.  1.
         22   -1    0    0    0    0 -0.00000000000E+00 -0.00000000000E+00 -0.11737800641E+04  0.11737800641E+04  0.00000000000E+00 0. -1.
         24    2    1    2    0    0 -0.13284180986E+02 -0.24511171348E+02 -0.75250470089E+03  0.75709572640E+03  0.78443273040E+02 0.  0.
         25    2    1    2    0    0 -0.47366084370E+02  0.14620413847E+03 -0.19555536836E+03  0.27840279246E+03  0.12508803580E+03 0.  0.
        -24    2    1    2    0    0  0.60650265357E+02 -0.12169296712E+03 -0.14771498920E+03  0.21628655094E+03  0.80451980403E+02 0.  0.
        -13    1    3    3    0    0  0.83548183073E+01 -0.57967038292E+01 -0.10779484653E+02  0.14818976133E+02  0.00000000000E+00 0.  1.
         14    1    3    3    0    0 -0.21638999294E+02 -0.18714467519E+02 -0.74172521623E+03  0.74227675026E+03  0.00000000000E+00 0. -1.
         13    1    5    5    0    0  0.55402536933E+02 -0.24558867866E+02 -0.52795411216E+02  0.80373717936E+02  0.00000000000E+00 0. -1.
        -14    1    5    5    0    0  0.52477284241E+01 -0.97134099259E+02 -0.94919577980E+02  0.13591283301E+03  0.00000000000E+00 0.  1.
          5    1    4    4  501    0 -0.68384681020E+02  0.13600623632E+03 -0.20277794020E+03  0.25359520174E+03  0.41800000000E+01 0.  1.
         -5    1    4    4    0  501  0.21018596650E+02  0.10197902152E+02  0.72225718345E+01  0.24807590720E+02  0.41800000000E+01 0.  1.
</event>
<event>
11    1  0.6930157E-009  0.1940935E+03  0.7561462E-02  0.1058781E+00
         22   -1    0    0    0    0  0.00000000000E+00  0.00000000000E+00  0.79628474986E+03  0.79628474986E+03  0.00000000000E+00 0. -1.
         22   -1    0    0    0    0 -0.00000000000E+00 -0.00000000000E+00 -0.11297376425E+04  0.11297376425E+04  0.00000000000E+00 0.  1.
        -24    2    1    2    0    0  0.14049142370E+02 -0.76086544003E+02 -0.10609853039E+04  0.10668238514E+04  0.80229509216E+02 0.  0.
         25    2    1    2    0    0 -0.68789772952E+02  0.19873740003E+03  0.22611491534E+03  0.33317291685E+03  0.12509056938E+03 0.  0.
         24    2    1    2    0    0  0.54740630582E+02 -0.12265085603E+03  0.50141749591E+03  0.52602562416E+03  0.85109828737E+02 0.  0.
        -11    1    5    5    0    0 -0.13489230285E+02  0.38200898573E+01  0.67210323524E+02  0.68656973487E+02  0.00000000000E+00 0.  1.
         12    1    5    5    0    0  0.68229860867E+02 -0.12647094589E+03  0.43420717238E+03  0.45736865067E+03  0.00000000000E+00 0. -1.
         13    1    3    3    0    0 -0.33042644003E+02 -0.29384981993E+02 -0.49314622088E+03  0.49512472031E+03  0.00000000000E+00 0. -1.
        -14    1    3    3    0    0  0.47091786373E+02 -0.46701562010E+02 -0.56783908302E+03  0.57169913105E+03  0.00000000000E+00 0.  1.
          5    1    4    4  501    0 -0.82503735087E+02  0.53318113038E+02  0.83607638972E+02  0.12906353930E+03  0.41800000000E+01 0.  1.
         -5    1    4    4    0  501  0.13713962135E+02  0.14541928700E+03  0.14250727637E+03  0.20410937756E+03  0.41800000000E+01 0.  1.
</event>
<event>
11    1  0.6930157E-009  0.1443459E+03  0.7561462E-02  0.1102800E+00
         22   -1    0    0    0    0  0.00000000000E+00  0.00000000000E+00  0.25173929379E+03  0.25173929379E+03  0.00000000000E+00 0.  1.
         22   -1    0    0    0    0 -0.00000000000E+00 -0.00000000000E+00 -0.11933055888E+04  0.11933055888E+04  0.00000000000E+00 0. -1.
        -24    2    1    2    0    0  0.57937570052E+02  0.35196276456E+02 -0.89200192854E+03  0.89795745275E+03  0.77875583599E+02 0.  0.
         25    2    1    2    0    0 -0.66308231170E+02 -0.96547602183E+02 -0.26116614340E+03  0.31236756530E+03  0.12509004909E+03 0.  0.
         24    2    1    2    0    0  0.83706611174E+01  0.61351325727E+02  0.21160177690E+03  0.23471986458E+03  0.80523597192E+02 0.  0.
        -11    1    5    5    0    0 -0.20005669620E+01  0.34999047736E+02  0.20169274975E+03  0.20471663565E+03  0.00000000000E+00 0.  1.
         12    1    5    5    0    0  0.10371228079E+02  0.26352277991E+02  0.99090271535E+01  0.30003228931E+02  0.00000000000E+00 0. -1.
         13    1    3    3    0    0  0.62050764204E+02  0.28488999452E+02 -0.88435082203E+03  0.88698269253E+03  0.00000000000E+00 0. -1.
        -14    1    3    3    0    0 -0.41131941514E+01  0.67072770033E+01 -0.76511065172E+01  0.10974760219E+02  0.00000000000E+00 0.  1.
          5    1    4    4  501    0  0.58359544517E+01  0.24842421230E+02 -0.70311989212E+02  0.74916303192E+02  0.41800000000E+01 0.  1.
         -5    1    4    4    0  501 -0.72144185621E+02 -0.12139002341E+03 -0.19085415419E+03  0.23745126210E+03  0.41800000000E+01 0.  1.
</event>
<event>
11    1  0.6930157E-009  0.2167069E+03  0.7561462E-02  0.1043300E+00
         22   -1    0    0    0    0  0.00000000000E+00  0.00000000000E+00  0.19706786236E+04  0.19706786236E+04  0.00000000000E+00 0. -1.
         22   -1    0    0    0    0 -0.00000000000E+00 -0.00000000000E+00 -0.13580899250E+04  0.13580899250E+04  0.00000000000E+00 0.  1.
         24    2    1    2    0    0 -0.56067729642E+02 -0.97373161292E+01 -0.49436758405E+03  0.50425887955E+03  0.81481923212E+02 0.  0.
         25    2    1    2    0    0  0.13645384750E+03 -0.14780259342E+03 -0.83750075233E+03  0.87035637318E+03  0.12508975604E+03 0.  0.
        -24    2    1    2    0    0 -0.80386117858E+02  0.15753990955E+03  0.19444570351E+04  0.19541532959E+04  0.80753894936E+02 0.  0.
        -11    1    3    3    0    0 -0.69315583909E+02 -0.18005875098E+02 -0.26961320265E+03  0.27896261533E+03  0.00000000000E+00 0.  1.
         12    1    3    3    0    0  0.13247854267E+02  0.82685589686E+01 -0.22475438140E+03  0.22529626422E+03  0.00000000000E+00 0. -1.
         11    1    5    5    0    0 -0.44182674677E+02  0.95552390714E+02  0.15223629023E+04  0.15259984189E+04  0.00000000000E+00 0. -1.
        -12    1    5    5    0    0 -0.36203443181E+02  0.61987518831E+02  0.42209413276E+03  0.42815487700E+03  0.00000000000E+00 0.  1.
          5    1    4    4  501    0  0.11601328688E+03 -0.96905033777E+02 -0.37116391487E+03  0.40078646734E+03  0.41800000000E+01 0. -1.
         -5    1    4    4    0  501  0.20440560617E+02 -0.50897559639E+02 -0.46633683746E+03  0.46956990584E+03  0.41800000000E+01 0. -1.
</event>
<event>
11    1  0.6930157E-009  0.1418654E+03  0.7561462E-02  0.1105493E+00
         22   -1    0    0    0    0  0.00000000000E+00  0.00000000000E+00  0.83276245539E+03  0.83276245539E+03  0.00000000000E+00 0. -1.
         22   -1    0    0    0    0 -0.00000000000E+00 -0.00000000000E+00 -0.19845949144E+04  0.19845949144E+04  0.00000000000E+00 0.  1.
        -24    2    1    2    0    0  0.21557617035E+02  0.89333176858E+02 -0.12203054687E+04  0.12267002006E+04  0.84869298289E+02 0.  0.
         25    2    1    2    0    0  0.24086102315E+00 -0.25563392829E+02 -0.75239001208E+03  0.76314614519E+03  0.12509102116E+03 0.  0.
         24    2    1    2    0    0 -0.21798478058E+02 -0.63769784029E+02  0.82086302176E+03  0.82751102405E+03  0.80103903913E+02 0.  0.
        -13    1    5    5    0    0 -0.47979215762E+02 -0.33724593257E+02  0.34193102071E+03  0.34692387675E+03  0.00000000000E+00 0.  1.
         14    1    5    5    0    0  0.26180737704E+02 -0.30045190772E+02  0.47893200106E+03  0.48058714730E+03  0.00000000000E+00 0. -1.
         13    1    3    3    0    0 -0.37367360511E+01 -0.82126660694E+01 -0.17578079216E+02  0.19758541171E+02  0.00000000000E+00 0. -1.
        -14    1    3    3    0    0  0.25294353086E+02  0.97545842927E+02 -0.12027273895E+04  0.12069416594E+04  0.00000000000E+00 0.  1.
          5    1    4    4  501    0 -0.42620180250E+02 -0.46032106644E+02 -0.22542928759E+03  0.23403262745E+03  0.41800000000E+01 0.  1.
         -5    1    4    4    0  501  0.42861041273E+02  0.20468713815E+02 -0.52696072449E+03  0.52911351774E+03  0.41800000000E+01 0.  1.
</event>
<event>
11    1  0.6930157E-009  0.1441169E+03  0.7561462E-02  0.1103046E+00
         22   -1    0    0    0    0  0.00000000000E+00  0.00000000000E+00  0.94643223687E+02  0.94643223687E+02  0.00000000000E+00 0. -1.
         22   -1    0    0    0    0 -0.00000000000E+00 -0.00000000000E+00 -0.14240908598E+04  0.14240908598E+04  0.00000000000E+00 0.  1.
         24    2    1    2    0    0 -0.74386851125E+02 -0.25354072577E+02 -0.10879259217E+04  0.10937264236E+04  0.80488795013E+02 0.  0.
         25    2    1    2    0    0  0.36984681936E+02  0.93972438406E+01 -0.29479281345E+03  0.32249992735E+03  0.12508886998E+03 0.  0.
        -24    2    1    2    0    0  0.37402169189E+02  0.15956828737E+02  0.53271098950E+02  0.10250773254E+03  0.77565988710E+02 0.  0.
        -11    1    3    3    0    0 -0.40434119555E+01 -0.53306246892E+00 -0.61005146652E+03  0.61006509910E+03  0.00000000000E+00 0.  1.
         12    1    3    3    0    0 -0.70343439169E+02 -0.24821010108E+02 -0.47787445514E+03  0.48366132453E+03  0.00000000000E+00 0. -1.
         11    1    5    5    0    0  0.33469349881E+02  0.21546849812E+02  0.72165251316E+02  0.82415336047E+02  0.00000000000E+00 0. -1.
        -12    1    5    5    0    0  0.39328193076E+01 -0.55900210756E+01 -0.18894152366E+02  0.20092396496E+02  0.00000000000E+00 0.  1.
          5    1    4    4  501    0  0.51414201373E+02  0.20358625087E+02 -0.43398501595E+02  0.70418719521E+02  0.41800000000E+01 0. -1.
         -5    1    4    4    0  501 -0.14429519437E+02 -0.10961381246E+02 -0.25139431185E+03  0.25208120783E+03  0.41800000000E+01 0. -1.
</event>
<event>
11    1  0.6930157E-009  0.1402126E+03  0.7561462E-02  0.1107321E+00
         22   -1    0    0    0    0  0.00000000000E+00  0.00000000000E+00  0.31006387083E+03  0.31006387083E+03  0.00000000000E+00 0.  1.
         22   -1    0    0    0    0 -0.00000000000E+00 -0.00000000000E+00 -0.59279579057E+03  0.59279579057E+03  0.00000000000E+00 0.  1.
        -24    2    1    2    0    0  0.47278226328E+02 -0.43247444691E+02 -0.53078398718E+03  0.54086963350E+03  0.81870307452E+02 0.  0.
         25    2    1    2    0    0 -0.22347972580E+02  0.48689530071E+02  0.46700620574E+02  0.14386885126E+03  0.12508875323E+03 0.  0.
         24    2    1    2    0    0 -0.24930253748E+02 -0.54420853799E+01  0.20135144686E+03  0.21812117665E+03  0.79895611291E+02 0.  0.
        -11    1    5    5    0    0 -0.44338039137E+02  0.36903267613E+01  0.18722345020E+03  0.19243726388E+03  0.00000000000E+00 0.  1.
         12    1    5    5    0    0  0.19407785389E+02 -0.91324121412E+01  0.14127996662E+02  0.25683912765E+02  0.00000000000E+00 0. -1.
         13    1    3    3    0    0  0.15307735781E+02  0.24465886381E+00 -0.12450923021E+02  0.19733527732E+02  0.00000000000E+00 0. -1.
        -14    1    3    3    0    0  0.31970490547E+02 -0.43492103555E+02 -0.51833306416E+03  0.52113610577E+03  0.00000000000E+00 0.  1.
          5    1    4    4  501    0  0.10641135294E+02  0.36996865428E+01  0.78569825983E+02  0.79483403273E+02  0.41800000000E+01 0. -1.
         -5    1    4    4    0  501 -0.32989107874E+02  0.44989843528E+02 -0.31869205409E+02  0.64385447986E+02  0.41800000000E+01 0. -1.
</event>
<event>
11    1  0.6930157E-009  0.1466064E+03  0.7561462E-02  0.1100398E+00
         22   -1    0    0    0    0  0.00000000000E+00  0.00000000000E+00  0.17576974136E+04  0.17576974136E+04  0.00000000000E+00 0.  1.
         22   -1    0    0    0    0 -0.00000000000E+00 -0.00000000000E+00 -0.16646801321E+03  0.16646801321E+03  0.00000000000E+00 0. -1.
        -24    2    1    2    0    0 -0.59335933491E+02 -0.13177269875E+02 -0.11229580747E+03  0.15188788763E+03  0.82250766489E+02 0.  0.
         25    2    1    2    0    0  0.68043114439E+02  0.87872586203E+02  0.18409982366E+03  0.24878039040E+03  0.12508989066E+03 0.  0.
         24    2    1    2    0    0 -0.87071809480E+01 -0.74695316328E+02  0.15194253842E+04  0.15234971488E+04  0.82066186447E+02 0.  0.
        -11    1    5    5    0    0 -0.34077579317E+02 -0.72352942907E+02  0.89950573579E+03  0.90305415036E+03  0.00000000000E+00 0.  1.
         12    1    5    5    0    0  0.25370398369E+02 -0.23423734216E+01  0.61991964842E+03  0.62044299844E+03  0.00000000000E+00 0. -1.
         13    1    3    3    0    0 -0.45088807320E+02  0.16088904803E+02 -0.10914911902E+03  0.11918633976E+03  0.00000000000E+00 0. -1.
        -14    1    3    3    0    0 -0.14247126171E+02 -0.29266174678E+02 -0.31466884471E+01  0.32701547862E+02  0.00000000000E+00 0.  1.
          5    1    4    4  501    0  0.98917903742E+01 -0.96334019937E+01 -0.14200335512E+02  0.20242822911E+02  0.41800000000E+01 0.  1.
         -5    1    4    4    0  501  0.58151324065E+02  0.97505988197E+02  0.19830015918E+03  0.22853756749E+03  0.41800000000E+01 0.  1.
</event>
<event>
11    1  0.6930157E-009  0.1474718E+03  0.7561462E-02  0.1099490E+00
         22   -1    0    0    0    0  0.00000000000E+00  0.00000000000E+00  0.12151819967E+03  0.12151819967E+03  0.00000000000E+00 0. -1.
         22   -1    0    0    0    0 -0.00000000000E+00 -0.00000000000E+00 -0.77026525922E+03  0.77026525922E+03  0.00000000000E+00 0.  1.
        -24    2    1    2    0    0 -0.33960856334E+02  0.19554892449E+02 -0.38950441836E+03  0.39941856243E+03  0.79282800816E+02 0.  0.
         25    2    1    2    0    0  0.81630898443E+02 -0.77575004920E+02 -0.32450454106E+03  0.36555795078E+03  0.12509169934E+03 0.  0.
         24    2    1    2    0    0 -0.47670042110E+02  0.58020112471E+02  0.65261899878E+02  0.12680694568E+03  0.78626455667E+02 0.  0.
        -13    1    5    5    0    0  0.65860216271E+01  0.30774185963E+00 -0.13548964426E+02  0.15068006601E+02  0.00000000000E+00 0.  1.
         14    1    5    5    0    0 -0.54256063737E+02  0.57712370611E+02  0.78810864304E+02  0.11173893908E+03  0.00000000000E+00 0. -1.
         13    1    3    3    0    0 -0.13688999653E+02  0.46152735518E+02 -0.14857874139E+03  0.15618292512E+03  0.00000000000E+00 0. -1.
        -14    1    3    3    0    0 -0.20271856681E+02 -0.26597843069E+02 -0.24092567697E+03  0.24323563730E+03  0.00000000000E+00 0.  1.
          5    1    4    4  501    0 -0.26123291989E+02 -0.49438521482E+02 -0.12589179877E+03  0.13781440849E+03  0.41800000000E+01 0.  1.
         -5    1    4    4    0  501  0.10775419043E+03 -0.28136483438E+02 -0.19861274229E+03  0.22774354229E+03  0.41800000000E+01 0.  1.
</event>
<event>
11    1  0.6930157E-009  0.1898137E+03  0.7561462E-02  0.1061970E+00
         22   -1    0    0    0    0  0.00000000000E+00  0.00000000000E+00  0.27966403882E+03  0.27966403882E+03  0.00000000000E+00 0.  1.
         22   -1    0    0    0    0 -0.00000000000E+00 -0.00000000000E+00 -0.92963371802E+03  0.92963371802E+03  0.00000000000E+00 0. -1.
         24    2    1    2    0    0  0.10845488399E+02 -0.13099295257E+03 -0.61661391206E+03  0.63596501819E+03  0.83438657565E+02 0.  0.
         25    2    1    2    0    0 -0.18230537564E+02  0.19707108656E+03 -0.24451004338E+03  0.33851985691E+03  0.12506464949E+03 0.  0.
        -24    2    1    2    0    0  0.73850491657E+01 -0.66078133994E+02  0.21115427624E+03  0.23481288174E+03  0.78294969907E+02 0.  0.
        -11    1    3    3    0    0  0.13364511978E+02  0.63444281312E+01 -0.29561232578E+02  0.33056442947E+02  0.00000000000E+00 0.  1.
         12    1    3    3    0    0 -0.25190235798E+01 -0.13733738070E+03 -0.58705267948E+03  0.60290857524E+03  0.00000000000E+00 0. -1.
         13    1    5    5    0    0 -0.21393697881E+02 -0.18961024335E+02  0.17673716235E+02  0.33609091009E+02  0.00000000000E+00 0. -1.
        -14    1    5    5    0    0  0.28778747047E+02 -0.47117109658E+02  0.19348056001E+03  0.20120379073E+03  0.00000000000E+00 0.  1.
          5    1    4    4  501    0 -0.10047219676E+02  0.59084433364E+02 -0.17237541018E+03  0.18254498438E+03  0.41800000000E+01 0. -1.
         -5    1    4    4    0  501 -0.81833178887E+01  0.13798665320E+03 -0.72134633196E+02  0.15597487253E+03  0.41800000000E+01 0. -1.
</event>
<event>
11    1  0.6930157E-009  0.1381153E+03  0.7561462E-02  0.1109681E+00
         22   -1    0    0    0    0  0.00000000000E+00  0.00000000000E+00  0.98017246473E+03  0.98017246473E+03  0.00000000000E+00 0.  1.
         22   -1    0    0    0    0 -0.00000000000E+00 -0.00000000000E+00 -0.98253942142E+03  0.98253942142E+03  0.00000000000E+00 0.  1.
         24    2    1    2    0    0 -0.37087448558E+02  0.31968950925E+02 -0.93354938249E+03  0.93824655760E+03  0.79966621998E+02 0.  0.
         25    2    1    2    0    0  0.78419384207E+02 -0.68944380715E+02  0.10826773182E+03  0.19562926355E+03  0.12508389005E+03 0.  0.
        -24    2    1    2    0    0 -0.41331935649E+02  0.36975429790E+02  0.82291469399E+03  0.82883606501E+03  0.81884783455E+02 0.  0.
        -13    1    3    3    0    0 -0.42625115606E+02  0.17879345950E+02 -0.90270149769E+03  0.90388415487E+03  0.00000000000E+00 0.  1.
         14    1    3    3    0    0  0.55376670474E+01  0.14089604975E+02 -0.30847884800E+02  0.34362402729E+02  0.00000000000E+00 0. -1.
         11    1    5    5    0    0 -0.11930865138E+02 -0.15871912287E+02  0.53795946354E+02  0.57343412757E+02  0.00000000000E+00 0. -1.
        -12    1    5    5    0    0 -0.29401070511E+02  0.52847342077E+02  0.76911874764E+03  0.77149265225E+03  0.00000000000E+00 0.  1.
          5    1    4    4  501    0 -0.72605899097E+01 -0.34268617396E+02  0.96021642628E+02  0.10229703103E+03  0.41800000000E+01 0.  1.
         -5    1    4    4    0  501  0.85679974117E+02 -0.34675763319E+02  0.12246089189E+02  0.93332232518E+02  0.41800000000E+01 0.  1.
</event>
<event>
11    1  0.6930157E-009  0.1321945E+03  0.7561462E-02  0.1116602E+00
         22   -1    0    0    0    0  0.00000000000E+00  0.00000000000E+00  0.79967687811E+02  0.79967687811E+02  0.00000000000E+00 0. -1.
         22   -1    0    0    0    0 -0.00000000000E+00 -0.00000000000E+00 -0.11094884283E+04  0.11094884283E+04  0.00000000000E+00 0.  1.
         24    2    1    2    0    0 -0.24324975013E+02 -0.89874793107E+01 -0.38634616841E+03  0.39559616940E+03  0.80996840728E+02 0.  0.
         25    2    1    2    0    0  0.64717246964E+01 -0.30639186321E+02 -0.68266662222E+03  0.69474107407E+03  0.12510315724E+03 0.  0.
        -24    2    1    2    0    0  0.17853250316E+02  0.39626665632E+02  0.39492050097E+02  0.99118872680E+02  0.79849343921E+02 0.  0.
        -11    1    3    3    0    0  0.24465597835E+02 -0.14958773614E+02 -0.22799333030E+03  0.22978966262E+03  0.00000000000E+00 0.  1.
         12    1    3    3    0    0 -0.48790572848E+02  0.59712943032E+01 -0.15835283811E+03  0.16580650678E+03  0.00000000000E+00 0. -1.
         13    1    5    5    0    0 -0.66569464359E+01  0.28396510786E+02  0.59017117933E+02  0.65830820820E+02  0.00000000000E+00 0. -1.
        -14    1    5    5    0    0  0.24510196752E+02  0.11230154845E+02 -0.19525067836E+02  0.33288051861E+02  0.00000000000E+00 0.  1.
          5    1    4    4  501    0 -0.25255145888E+02  0.60426048218E+01 -0.58523524607E+03  0.58582599900E+03  0.41800000000E+01 0.  1.
         -5    1    4    4    0  501  0.31726870585E+02 -0.36681791143E+02 -0.97431376154E+02  0.10891507507E+03  0.41800000000E+01 0.  1.
</event>
<event>
11    1  0.6930157E-009  0.2026607E+03  0.7561462E-02  0.1052658E+00
         22   -1    0    0    0    0  0.00000000000E+00  0.00000000000E+00  0.33424782458E+03  0.33424782458E+03  0.00000000000E+00 0.  1.
         22   -1    0    0    0    0 -0.00000000000E+00 -0.00000000000E+00 -0.30909520198E+03  0.30909520198E+03  0.00000000000E+00 0. -1.
        -24    2    1    2    0    0 -0.78497094731E+01 -0.30069453822E+02 -0.15596763491E+03  0.17820876915E+03  0.80415622056E+02 0.  0.
         25    2    1    2    0    0  0.15894977412E+03 -0.22125990884E+02 -0.87209243932E+01  0.20366242110E+03  0.12509091525E+03 0.  0.
         24    2    1    2    0    0 -0.15110006465E+03  0.52195444706E+02  0.18984118190E+03  0.26147183631E+03  0.82293698742E+02 0.  0.
        -13    1    5    5    0    0 -0.13079784686E+03  0.10937793250E+02  0.15865989389E+03  0.20591423941E+03  0.00000000000E+00 0.  1.
         14    1    5    5    0    0 -0.20302217789E+02  0.41257651455E+02  0.31181288012E+02  0.55557596896E+02  0.00000000000E+00 0. -1.
         13    1    3    3    0    0  0.32203563931E+02 -0.31567439304E+02 -0.68720471434E+02  0.82195352351E+02  0.00000000000E+00 0. -1.
        -14    1    3    3    0    0 -0.40053273404E+02  0.14979854817E+01 -0.87247163475E+02  0.96013416798E+02  0.00000000000E+00 0.  1.
          5    1    4    4  501    0 -0.51252807674E+01 -0.20776023296E+02  0.27983346376E+02  0.35474663090E+02  0.41800000000E+01 0. -1.
         -5    1    4    4    0  501  0.16407505489E+03 -0.13499675873E+01 -0.36704270770E+02  0.16818775801E+03  0.41800000000E+01 0. -1.
</event>
<event>
11    1  0.6930157E-009  0.1994016E+03  0.7561462E-02  0.1054948E+00
         22   -1    0    0    0    0  0.00000000000E+00  0.00000000000E+00  0.18596709667E+04  0.18596709667E+04  0.00000000000E+00 0.  1.
         22   -1    0    0    0    0 -0.00000000000E+00 -0.00000000000E+00 -0.29420608120E+03  0.29420608120E+03  0.00000000000E+00 0.  1.
        -24    2    1    2    0    0  0.15313120278E+03  0.12824302223E+02 -0.24240140742E+03  0.29707172814E+03  0.76678167385E+02 0.  0.
         25    2    1    2    0    0 -0.18650998406E+03 -0.64386458462E+02  0.58687266999E+03  0.63166113740E+03  0.12507866136E+03 0.  0.
         24    2    1    2    0    0  0.33378781287E+02  0.51562156239E+02  0.12209936229E+04  0.12251441823E+04  0.79875161028E+02 0.  0.
        -13    1    5    5    0    0  0.50404632845E+02  0.94953989251E+01  0.81727664382E+03  0.81888454751E+03  0.00000000000E+00 0.  1.
         14    1    5    5    0    0 -0.17025851558E+02  0.42066757314E+02  0.40371697906E+03  0.40625963481E+03  0.00000000000E+00 0. -1.
         13    1    3    3    0    0  0.37072025790E+02  0.35414951788E+02 -0.52586850892E+02  0.73443384951E+02  0.00000000000E+00 0. -1.
        -14    1    3    3    0    0  0.11605917699E+03 -0.22590649565E+02 -0.18981455652E+03  0.22362834319E+03  0.00000000000E+00 0.  1.
          5    1    4    4  501    0 -0.18526285961E+03 -0.21608185902E+02  0.51682986670E+03  0.54947231446E+03  0.41800000000E+01 0. -1.
         -5    1    4    4    0  501 -0.12471244540E+01 -0.42778272560E+02  0.70042803293E+02  0.82188822937E+02  0.41800000000E+01 0. -1.
</event>
<event>
11    1  0.6930157E-009  0.1329865E+03  0.7561462E-02  0.1115653E+00
         22   -1    0    0    0    0  0.00000000000E+00  0.00000000000E+00  0.80501645367E+03  0.80501645367E+03  0.00000000000E+00 0.  1.
         22   -1    0    0    0    0 -0.00000000000E+00 -0.00000000000E+00 -0.38917532727E+03  0.38917532727E+03  0.00000000000E+00 0.  1.
        -24    2    1    2    0    0  0.22947507718E+02  0.39373374022E+02 -0.35433547339E+03  0.36764884723E+03  0.86805509470E+02 0.  0.
         25    2    1    2    0    0  0.35791786314E+01 -0.41591821373E+02  0.14562790754E+03  0.19646071067E+03  0.12508650310E+03 0.  0.
         24    2    1    2    0    0 -0.26526686349E+02  0.22184473511E+01  0.62454869225E+03  0.63008222303E+03  0.78955381033E+02 0.  0.
        -13    1    5    5    0    0 -0.33570322216E+02  0.30393151690E+02  0.50623012306E+03  0.50825155947E+03  0.00000000000E+00 0.  1.
         14    1    5    5    0    0  0.70436358665E+01 -0.28174704338E+02  0.11831856919E+03  0.12183066357E+03  0.00000000000E+00 0. -1.
         13    1    3    3    0    0 -0.45039197380E+01 -0.62152659194E+01  0.15298908027E+01  0.78265822250E+01  0.00000000000E+00 0. -1.
        -14    1    3    3    0    0  0.27451427456E+02  0.45588639941E+02 -0.35586536419E+03  0.35982226500E+03  0.00000000000E+00 0.  1.
          5    1    4    4  501    0 -0.51383015418E+01 -0.45616795437E+02 -0.41826614521E+01  0.46284567898E+02  0.41800000000E+01 0.  1.
         -5    1    4    4    0  501  0.87174801733E+01  0.40249740640E+01  0.14981056899E+03  0.15017614277E+03  0.41800000000E+01 0.  1.
</event>
<event>
11    1  0.6930157E-009  0.1549608E+03  0.7561462E-02  0.1091915E+00
         22   -1    0    0    0    0  0.00000000000E+00  0.00000000000E+00  0.14028410000E+03  0.14028410000E+03  0.00000000000E+00 0. -1.
         22   -1    0    0    0    0 -0.00000000000E+00 -0.00000000000E+00 -0.78975334898E+03  0.78975334898E+03  0.00000000000E+00 0.  1.
         24    2    1    2    0    0  0.10451395876E+01  0.95296048725E+02 -0.62227226797E+03  0.63457957442E+03  0.79912649664E+02 0.  0.
         25    2    1    2    0    0 -0.26077542453E+02 -0.66957569928E+02 -0.98585679040E+02  0.17472694862E+03  0.12508803328E+03 0.  0.
        -24    2    1    2    0    0  0.25032402865E+02 -0.28338478797E+02  0.71388698027E+02  0.12073092595E+03  0.89721344733E+02 0.  0.
        -11    1    3    3    0    0  0.16758172165E+02  0.93696650741E+02 -0.37809202626E+03  0.38988905988E+03  0.00000000000E+00 0.  1.
         12    1    3    3    0    0 -0.15713032578E+02  0.15993979840E+01 -0.24418024171E+03  0.24469051454E+03  0.00000000000E+00 0. -1.
         13    1    5    5    0    0  0.23664190246E+02 -0.43652308353E+02  0.86138414742E+02  0.99425069368E+02  0.00000000000E+00 0. -1.
        -14    1    5    5    0    0  0.13682126197E+01  0.15313829556E+02 -0.14749716715E+02  0.21305856580E+02  0.00000000000E+00 0.  1.
          5    1    4    4  501    0 -0.43877208460E+02  0.25663002562E+01  0.92663112392E+01  0.45112440005E+02  0.41800000000E+01 0. -1.
         -5    1    4    4    0  501  0.17799666007E+02 -0.69523870184E+02 -0.10785199028E+03  0.12961450861E+03  0.41800000000E+01 0. -1.
</event>
<event>
11    1  0.6930157E-009  0.1788944E+03  0.7561462E-02  0.1070541E+00
         22   -1    0    0    0    0  0.00000000000E+00  0.00000000000E+00  0.45991521414E+03  0.45991521414E+03  0.00000000000E+00 0. -1.
         22   -1    0    0    0    0 -0.00000000000E+00 -0.00000000000E+00 -0.91606056733E+03  0.91606056733E+03  0.00000000000E+00 0.  1.
         24    2    1    2    0    0  0.12105226331E+03 -0.15033012065E+02 -0.63707758338E+03  0.65330244608E+03  0.77824140876E+02 0.  0.
         25    2    1    2    0    0 -0.15633077161E+03 -0.71274841858E+00 -0.22829261539E+03  0.30365246811E+03  0.12508990761E+03 0.  0.
        -24    2    1    2    0    0  0.35278508303E+02  0.15745760484E+02  0.40922484559E+03  0.41902086727E+03  0.81369594060E+02 0.  0.
        -11    1    3    3    0    0  0.35524353336E+02  0.24654348545E+02 -0.30671588742E+03  0.30974901482E+03  0.00000000000E+00 0.  1.
         12    1    3    3    0    0  0.85527909971E+02 -0.39687360610E+02 -0.33036169596E+03  0.34355343126E+03  0.00000000000E+00 0. -1.
         13    1    5    5    0    0  0.31071410103E+02  0.38863383978E+02  0.36974242514E+03  0.37307540268E+03  0.00000000000E+00 0. -1.
        -14    1    5    5    0    0  0.42070981998E+01 -0.23117623494E+02  0.39482420450E+02  0.45945464584E+02  0.00000000000E+00 0.  1.
          5    1    4    4  501    0 -0.14164898706E+02 -0.39940466726E+02 -0.97868684908E+02  0.10673161258E+03  0.41800000000E+01 0.  1.
         -5    1    4    4    0  501 -0.14216587290E+03  0.39227718307E+02 -0.13042393049E+03  0.19692085554E+03  0.41800000000E+01 0.  1.
</event>
<event>
11    1  0.6930157E-009  0.1463657E+03  0.7561462E-02  0.1100651E+00
         22   -1    0    0    0    0  0.00000000000E+00  0.00000000000E+00  0.57740054352E+03  0.57740054352E+03  0.00000000000E+00 0. -1.
         22   -1    0    0    0    0 -0.00000000000E+00 -0.00000000000E+00 -0.63735460584E+03  0.63735460584E+03  0.00000000000E+00 0.  1.
        -24    2    1    2    0    0 -0.23234788358E+02 -0.50580782892E+02 -0.36915993767E+03  0.38207359288E+03  0.81258229141E+02 0.  0.
         25    2    1    2    0    0  0.61711402177E+00  0.12219253688E+03 -0.22625852582E+03  0.28595944913E+03  0.12509392129E+03 0.  0.
         24    2    1    2    0    0  0.22617674336E+02 -0.71611753987E+02  0.53546440117E+03  0.54672210735E+03  0.80889648574E+02 0.  0.
        -11    1    5    5    0    0  0.25317197330E+02 -0.19889246226E+01  0.48004809752E+02  0.54308176743E+02  0.00000000000E+00 0.  1.
         12    1    5    5    0    0 -0.26995229942E+01 -0.69622829364E+02  0.48745959142E+03  0.49241393061E+03  0.00000000000E+00 0. -1.
         11    1    3    3    0    0 -0.30015571256E+02 -0.53638566315E+01 -0.42936909023E+02  0.52661975202E+02  0.00000000000E+00 0. -1.
        -12    1    3    3    0    0  0.67807828983E+01 -0.45216926261E+02 -0.32622302865E+03  0.32941161767E+03  0.00000000000E+00 0.  1.
          5    1    4    4  501    0 -0.29283087963E+02  0.11503582245E+03 -0.22556160279E+03  0.25492400581E+03  0.41800000000E+01 0.  1.
         -5    1    4    4    0  501  0.29900201985E+02  0.71567144295E+01 -0.69692302856E+00  0.31035443316E+02  0.41800000000E+01 0.  1.
</event>
<event>
11    1  0.6930157E-009  0.1615748E+03  0.7561462E-02  0.1085605E+00
         22   -1    0    0    0    0  0.00000000000E+00  0.00000000000E+00  0.34944920857E+04  0.34944920857E+04  0.00000000000E+00 0.  1.
         22   -1    0    0    0    0 -0.00000000000E+00 -0.00000000000E+00 -0.21783490311E+03  0.21783490311E+03  0.00000000000E+00 0. -1.
        -24    2    1    2    0    0  0.30842310631E+02 -0.66047186042E+02 -0.17299768290E+03  0.20362510193E+03  0.78876517021E+02 0.  0.
         25    2    1    2    0    0  0.46295722294E+02 -0.56282392481E+01  0.12980789322E+03  0.18620380136E+03  0.12508715170E+03 0.  0.
         24    2    1    2    0    0 -0.77138032926E+02  0.71675425291E+02  0.33198469723E+04  0.33224980856E+04  0.80758691857E+02 0.  0.
        -11    1    5    5    0    0 -0.54267873810E+02  0.84451649096E+01  0.21641381187E+04  0.21648348943E+04  0.00000000000E+00 0.  1.
         12    1    5    5    0    0 -0.22870159116E+02  0.63230260381E+02  0.11557088537E+04  0.11576631913E+04  0.00000000000E+00 0. -1.
         13    1    3    3    0    0  0.14002833408E+02 -0.39947884023E+02 -0.16662472910E+03  0.17191775106E+03  0.00000000000E+00 0. -1.
        -14    1    3    3    0    0  0.16839477224E+02 -0.26099302020E+02 -0.63729538005E+01  0.31707350871E+02  0.00000000000E+00 0.  1.
          5    1    4    4  501    0  0.49380852236E+02 -0.55211650574E+02  0.10973118467E+03  0.13245829614E+03  0.41800000000E+01 0. -1.
         -5    1    4    4    0  501 -0.30851299419E+01  0.49583411326E+02  0.20076708550E+02  0.53745505223E+02  0.41800000000E+01 0. -1.
</event>
<event>
11    1  0.6930157E-009  0.1624800E+03  0.7561462E-02  0.1084768E+00
         22   -1    0    0    0    0  0.00000000000E+00  0.00000000000E+00  0.88178837437E+03  0.88178837437E+03  0.00000000000E+00 0. -1.
         22   -1    0    0    0    0 -0.00000000000E+00 -0.00000000000E+00 -0.34137703906E+03  0.34137703906E+03  0.00000000000E+00 0.  1.
         24    2    1    2    0    0 -0.32796293772E+02 -0.11100332001E+03 -0.25641066387E+03  0.29287594757E+03  0.81440519270E+02 0.  0.
         25    2    1    2    0    0  0.28986653092E+02  0.48243335597E+02  0.10744685014E+02  0.13758722228E+03  0.12508856859E+03 0.  0.
        -24    2    1    2    0    0  0.38096406800E+01  0.62759984414E+02  0.78607731416E+03  0.79270224357E+03  0.80659618849E+02 0.  0.
        -13    1    3    3    0    0 -0.42029547250E+02 -0.11739060777E+03 -0.20250570464E+03  0.23781420909E+03  0.00000000000E+00 0.  1.
         14    1    3    3    0    0  0.92332534779E+01  0.63872877543E+01 -0.53904959227E+02  0.55061738475E+02  0.00000000000E+00 0. -1.
         11    1    5    5    0    0  0.36725738879E+02  0.58485421732E+02  0.52390507152E+03  0.52843717547E+03  0.00000000000E+00 0. -1.
        -12    1    5    5    0    0 -0.32916098199E+02  0.42745626824E+01  0.26217224264E+03  0.26426506810E+03  0.00000000000E+00 0.  1.
          5    1    4    4  501    0  0.48856157879E+02  0.81643183689E+01 -0.44264903635E+02  0.66561508028E+02  0.41800000000E+01 0.  1.
         -5    1    4    4    0  501 -0.19869504787E+02  0.40079017228E+02  0.55009588648E+02  0.71025714257E+02  0.41800000000E+01 0.  1.
</event>
<event>
11    1  0.6930157E-009  0.1381964E+03  0.7561462E-02  0.1109589E+00
         22   -1    0    0    0    0  0.00000000000E+00  0.00000000000E+00  0.32961641034E+03  0.32961641034E+03  0.00000000000E+00 0. -1.
         22   -1    0    0    0    0 -0.00000000000E+00 -0.00000000000E+00 -0.63302736580E+03  0.63302736580E+03  0.00000000000E+00 0. -1.
         24    2    1    2    0    0  0.51427398515E+02 -0.27006109604E+02 -0.57659219134E+03  0.58509393415E+03  0.80636526394E+02 0.  0.
         25    2    1    2    0    0 -0.63127888528E+02  0.49859854348E+02  0.87973294272E+02  0.17279159248E+03  0.12508596461E+03 0.  0.
        -24    2    1    2    0    0  0.11700490013E+02 -0.22853744744E+02  0.18520794160E+03  0.20475824951E+03  0.83455161578E+02 0.  0.
        -11    1    3    3    0    0 -0.51330150863E+01 -0.25661435826E+02 -0.60598601301E+02  0.66007935979E+02  0.00000000000E+00 0.  1.
         12    1    3    3    0    0  0.56560413602E+02 -0.13446737777E+01 -0.51599359004E+03  0.51908599817E+03  0.00000000000E+00 0. -1.
         13    1    5    5    0    0  0.13249275668E+02  0.20306499530E+02  0.14057621750E+03  0.14265191956E+03  0.00000000000E+00 0. -1.
        -14    1    5    5    0    0 -0.15487856552E+01 -0.43160244274E+02  0.44631724104E+02  0.62106329945E+02  0.00000000000E+00 0.  1.
          5    1    4    4  501    0 -0.66911256900E+02  0.33067725090E+02 -0.80157362138E+01  0.75181880594E+02  0.41800000000E+01 0.  1.
         -5    1    4    4    0  501  0.37833683720E+01  0.16792129258E+02  0.95989030486E+02  0.97609711888E+02  0.41800000000E+01 0.  1.
</event>
<event>
11    1  0.6930157E-009  0.1460115E+03  0.7561462E-02  0.1101025E+00
         22   -1    0    0    0    0  0.00000000000E+00  0.00000000000E+00  0.81123242381E+03  0.81123242381E+03  0.00000000000E+00 0. -1.
         22   -1    0    0    0    0 -0.00000000000E+00 -0.00000000000E+00 -0.35167372553E+03  0.35167372553E+03  0.00000000000E+00 0. -1.
        -24    2    1    2    0    0  0.57715078054E+02  0.41437671286E+02 -0.26941540267E+03  0.29020210899E+03  0.81144895274E+02 0.  0.
         25    2    1    2    0    0 -0.10335545980E+03 -0.63146514148E+02  0.42775447267E+02  0.17929641201E+03  0.12509049184E+03 0.  0.
         24    2    1    2    0    0  0.45640381749E+02  0.21708842862E+02  0.68619865368E+03  0.69340762835E+03  0.85972253846E+02 0.  0.
        -13    1    5    5    0    0  0.39419991051E+00 -0.17156653905E+02  0.30458990777E+02  0.34960782113E+02  0.00000000000E+00 0.  1.
         14    1    5    5    0    0  0.45246181838E+02  0.38865496767E+02  0.65573966291E+03  0.65844684624E+03  0.00000000000E+00 0. -1.
         13    1    3    3    0    0  0.28260180276E+02  0.40737788262E+00 -0.21140004752E+03  0.21328099737E+03  0.00000000000E+00 0. -1.
        -14    1    3    3    0    0  0.29454897778E+02  0.41030293404E+02 -0.58015355146E+02  0.76921111619E+02  0.00000000000E+00 0.  1.
          5    1    4    4  501    0 -0.46546294860E+02 -0.91229633633E+02  0.52303970584E+02  0.11507641529E+03  0.41800000000E+01 0.  1.
         -5    1    4    4    0  501 -0.56809164942E+02  0.28083119484E+02 -0.95285233166E+01  0.64219996714E+02  0.41800000000E+01 0.  1.
</event>
<event>
11    1  0.6930157E-009  0.1879254E+03  0.7561462E-02  0.1063407E+00
         22   -1    0    0    0    0  0.00000000000E+00  0.00000000000E+00  0.45368969039E+03  0.45368969039E+03  0.00000000000E+00 0. -1.
         22   -1    0    0    0    0 -0.00000000000E+00 -0.00000000000E+00 -0.77221867255E+03  0.77221867255E+03  0.00000000000E+00 0.  1.
         24    2    1    2    0    0  0.11324948126E+03 -0.51783918145E+02 -0.38818949045E+03  0.41574720574E+03  0.81533057106E+02 0.  0.
         25    2    1    2    0    0 -0.17464360641E+03  0.42913755800E+02 -0.33080397292E+03  0.39676317004E+03  0.12509102647E+03 0.  0.
        -24    2    1    2    0    0  0.61394125152E+02  0.88701623456E+01  0.40046448121E+03  0.41339798716E+03  0.81720111915E+02 0.  0.
        -11    1    3    3    0    0  0.10239356154E+03 -0.61994054699E+02 -0.38068810065E+03  0.39906281991E+03  0.00000000000E+00 0.  1.
         12    1    3    3    0    0  0.10855919723E+02  0.10210136554E+02 -0.75013898035E+01  0.16684385828E+02  0.00000000000E+00 0. -1.
         11    1    5    5    0    0  0.51968337636E+02  0.13968969704E+02  0.39896413210E+03  0.40257697269E+03  0.00000000000E+00 0. -1.
        -12    1    5    5    0    0  0.94257875161E+01 -0.50988073585E+01  0.15003491078E+01  0.10821014473E+02  0.00000000000E+00 0.  1.
          5    1    4    4  501    0 -0.16334774569E+03 -0.99078994651E+01 -0.26550809789E+03  0.31191773746E+03  0.41800000000E+01 0. -1.
         -5    1    4    4    0  501 -0.11295860721E+02  0.52821655265E+02 -0.65295875025E+02  0.84845432580E+02  0.41800000000E+01 0. -1.
</event>
<event>
11    1  0.6930157E-009  0.1406004E+03  0.7561462E-02  0.1106890E+00
         22   -1    0    0    0    0  0.00000000000E+00  0.00000000000E+00  0.48385259652E+02  0.48385259652E+02  0.00000000000E+00 0. -1.
         22   -1    0    0    0    0 -0.00000000000E+00 -0.00000000000E+00 -0.63035733154E+03  0.63035733154E+03  0.00000000000E+00 0.  1.
         24    2    1    2    0    0  0.28305223076E+02 -0.57869676594E+02 -0.25628947955E+03  0.27626987742E+03  0.80564649295E+02 0.  0.
         25    2    1    2    0    0 -0.17064828068E+00  0.68204691385E+02 -0.24840590312E+03  0.28636636608E+03  0.12509314077E+03 0.  0.
        -24    2    1    2    0    0 -0.28134574795E+02 -0.10335014791E+02 -0.77276689220E+02  0.11610634770E+03  0.81305783622E+02 0.  0.
        -11    1    3    3    0    0  0.25397447018E+01 -0.27816313142E+01 -0.17351496175E+03  0.17355584037E+03  0.00000000000E+00 0.  1.
         12    1    3    3    0    0  0.25765478374E+02 -0.55088045280E+02 -0.82774517800E+02  0.10271403704E+03  0.00000000000E+00 0. -1.
         13    1    5    5    0    0  0.54091025237E+01  0.17254987055E+02  0.84843760142E+01  0.19974423765E+02  0.00000000000E+00 0. -1.
        -14    1    5    5    0    0 -0.33543677319E+02 -0.27590001846E+02 -0.85761065234E+02  0.96131923938E+02  0.00000000000E+00 0.  1.
          5    1    4    4  501    0  0.39195476104E+02  0.47982976038E+02 -0.23003077213E+03  0.23826514614E+03  0.41800000000E+01 0. -1.
         -5    1    4    4    0  501 -0.39366124384E+02  0.20221715347E+02 -0.18375130984E+02  0.48101219936E+02  0.41800000000E+01 0. -1.
</event>
<event>
11    1  0.6930157E-009  0.1283788E+03  0.7561462E-02  0.1121277E+00
         22   -1    0    0    0    0  0.00000000000E+00  0.00000000000E+00  0.79283082741E+02  0.79283082741E+02  0.00000000000E+00 0.  1.
         22   -1    0    0    0    0 -0.00000000000E+00 -0.00000000000E+00 -0.10701381580E+04  0.10701381580E+04  0.00000000000E+00 0. -1.
         24    2    1    2    0    0  0.18789575689E+02  0.52548761202E+01 -0.89847520987E+03  0.90230048076E+03  0.80670892784E+02 0.  0.
         25    2    1    2    0    0 -0.36079490833E+02 -0.22598780903E+02 -0.92649156564E+02  0.16138180733E+03  0.12509111466E+03 0.  0.
        -24    2    1    2    0    0  0.17289915144E+02  0.17343904783E+02  0.26929121350E+00  0.85738952619E+02  0.82166558159E+02 0.  0.
        -13    1    3    3    0    0  0.41781185461E+02 -0.20768509621E+02 -0.60017448153E+03  0.60198538747E+03  0.00000000000E+00 0.  1.
         14    1    3    3    0    0 -0.22991609772E+02  0.26023385741E+02 -0.29830072835E+03  0.30031509329E+03  0.00000000000E+00 0. -1.
         13    1    5    5    0    0  0.16628140436E+02  0.13285418135E+02 -0.39973497264E+02  0.45286619138E+02  0.00000000000E+00 0. -1.
        -14    1    5    5    0    0  0.66177470855E+00  0.40584866475E+01  0.40242788478E+02  0.40452333482E+02  0.00000000000E+00 0.  1.
          5    1    4    4  501    0 -0.95867929255E+01 -0.35679006471E+02 -0.11706399126E+03  0.12282649775E+03  0.41800000000E+01 0.  1.
         -5    1    4    4    0  501 -0.26492697908E+02  0.13080225568E+02  0.24414834692E+02  0.38555309575E+02  0.41800000000E+01 0.  1.
</event>
<event>
11    1  0.6930157E-009  0.1813280E+03  0.7561462E-02  0.1068574E+00
         22   -1    0    0    0    0  0.00000000000E+00  0.00000000000E+00  0.15305954249E+04  0.15305954249E+04  0.00000000000E+00 0.  1.
         22   -1    0    0    0    0 -0.00000000000E+00 -0.00000000000E+00 -0.62311160104E+03  0.62311160104E+03  0.00000000000E+00 0.  1.
         24    2    1    2    0    0  0.12484698132E+03  0.44281665525E+02 -0.59229311516E+03  0.61217714639E+03  0.80013059293E+02 0.  0.
         25    2    1    2    0    0 -0.90120463780E+02 -0.26270887415E+02  0.29238956667E+03  0.33158904999E+03  0.12509109425E+03 0.  0.
        -24    2    1    2    0    0 -0.34726517537E+02 -0.18010778110E+02  0.12073873723E+04  0.12099408295E+04  0.68133875207E+02 0.  0.
        -11    1    3    3    0    0  0.89955730976E+02  0.42653589337E+02 -0.54123163369E+03  0.55031176939E+03  0.00000000000E+00 0.  1.
         12    1    3    3    0    0  0.34891250341E+02  0.16280761882E+01 -0.51061481464E+02  0.61865377003E+02  0.00000000000E+00 0. -1.
         11    1    5    5    0    0 -0.27057314053E+02 -0.29944196339E+00  0.15283624363E+03  0.15521309634E+03  0.00000000000E+00 0. -1.
        -12    1    5    5    0    0 -0.76692034834E+01 -0.17711336147E+02  0.10545511287E+04  0.10547277332E+04  0.00000000000E+00 0.  1.
          5    1    4    4  501    0 -0.11993370179E+03 -0.11966311570E+02  0.20216468713E+03  0.23540458483E+03  0.41800000000E+01 0. -1.
         -5    1    4    4    0  501  0.29813238006E+02 -0.14304575845E+02  0.90224879539E+02  0.96184465161E+02  0.41800000000E+01 0. -1.
</event>
<event>
11    1  0.7333455E-009  0.1601935E+03  0.7561462E-02  0.1086895E+00
         22   -1    0    0    0    0  0.00000000000E+00  0.00000000000E+00  0.82200706787E+03  0.82200706787E+03  0.00000000000E+00 0. -1.
         22   -1    0    0    0    0 -0.00000000000E+00 -0.00000000000E+00 -0.49412026694E+03  0.49412026694E+03  0.00000000000E+00 0. -1.
        -24    2    1    2    0    0  0.49911234328E+02 -0.56386840917E+02 -0.44039165749E+03  0.45813673183E+03  0.10135998187E+03 0.  0.
         25    2    1    2    0    0 -0.54842208932E+02 -0.51172736989E+02  0.10054065636E+03  0.17714991181E+03  0.12508937118E+03 0.  0.
         24    2    1    2    0    0  0.49309746039E+01  0.10755957791E+03  0.66773780205E+03  0.68084069117E+03  0.77954455686E+02 0.  0.
        -11    1    5    5    0    0 -0.25302883282E+01  0.42221797608E+02  0.90816770385E+02  0.10018367300E+03  0.00000000000E+00 0.  1.
         12    1    5    5    0    0  0.74612629321E+01  0.65337780298E+02  0.57692103166E+03  0.58065701817E+03  0.00000000000E+00 0. -1.
         11    1    3    3    0    0 -0.15566113745E+02 -0.21707482932E+02 -0.28210239597E+03  0.28336421885E+03  0.00000000000E+00 0. -1.
        -12    1    3    3    0    0  0.65477348073E+02 -0.34679357985E+02 -0.15828926151E+03  0.17477251297E+03  0.00000000000E+00 0.  1.
          5    1    4    4  501    0 -0.82326993559E+02  0.46349937660E+01  0.47234707209E+02  0.95119961106E+02  0.41800000000E+01 0.  1.
         -5    1    4    4    0  501  0.27484784628E+02 -0.55807730755E+02  0.53305949148E+02  0.82029950705E+02  0.41800000000E+01 0.  1.
</event>
<event>
11    1  0.6930157E-009  0.1939083E+03  0.7561462E-02  0.1058917E+00
         22   -1    0    0    0    0  0.00000000000E+00  0.00000000000E+00  0.11381980928E+04  0.11381980928E+04  0.00000000000E+00 0. -1.
         22   -1    0    0    0    0 -0.00000000000E+00 -0.00000000000E+00 -0.46164965641E+03  0.46164965641E+03  0.00000000000E+00 0.  1.
        -24    2    1    2    0    0 -0.46737938064E+02  0.14023802903E+03 -0.38810410509E+03  0.42307299005E+03  0.80714427968E+02 0.  0.
         25    2    1    2    0    0 -0.68003887983E+02 -0.18099694135E+03  0.21646410346E+03  0.31605475338E+03  0.12509787163E+03 0.  0.
         24    2    1    2    0    0  0.11474182605E+03  0.40758912321E+02  0.84818843800E+03  0.86072000576E+03  0.81168506076E+02 0.  0.
        -11    1    5    5    0    0  0.90695820422E+02  0.58888085805E+02  0.51833594589E+03  0.52949569525E+03  0.00000000000E+00 0.  1.
         12    1    5    5    0    0  0.24046005625E+02 -0.18129173484E+02  0.32985249211E+03  0.33122431050E+03  0.00000000000E+00 0. -1.
         13    1    3    3    0    0 -0.59845274002E+02  0.10345032366E+03 -0.21869334205E+03  0.24921918895E+03  0.00000000000E+00 0. -1.
        -14    1    3    3    0    0  0.13107335938E+02  0.36787705364E+02 -0.16941076304E+03  0.17385380110E+03  0.00000000000E+00 0.  1.
          5    1    4    4  501    0 -0.73543505906E+02 -0.14062440575E+03  0.22385264753E+03  0.27442913650E+03  0.41800000000E+01 0. -1.
         -5    1    4    4    0  501  0.55396179230E+01 -0.40372535597E+02 -0.73885440654E+01  0.41625616881E+02  0.41800000000E+01 0. -1.
</event>
<event>
11    1  0.6930157E-009  0.1498684E+03  0.7561462E-02  0.1097013E+00
         22   -1    0    0    0    0  0.00000000000E+00  0.00000000000E+00  0.73411899407E+03  0.73411899407E+03  0.00000000000E+00 0. -1.
         22   -1    0    0    0    0 -0.00000000000E+00 -0.00000000000E+00 -0.16202533740E+03  0.16202533740E+03  0.00000000000E+00 0.  1.
         24    2    1    2    0    0 -0.85853626019E+02  0.74014851911E+01 -0.10359857908E+03  0.15729916373E+03  0.81146375389E+02 0.  0.
         25    2    1    2    0    0  0.59896838460E+02  0.54180794594E+00  0.14064719243E+03  0.19752850512E+03  0.12509177744E+03 0.  0.
        -24    2    1    2    0    0  0.25956787559E+02 -0.79432931370E+01  0.53504504332E+03  0.54131666263E+03  0.77547921493E+02 0.  0.
        -11    1    3    3    0    0 -0.42840493215E+02 -0.35164513383E+02 -0.65446865973E+02  0.85762131072E+02  0.00000000000E+00 0.  1.
         12    1    3    3    0    0 -0.43013132805E+02  0.42565998574E+02 -0.38151713104E+02  0.71537032655E+02  0.00000000000E+00 0. -1.
         13    1    5    5    0    0  0.16383974129E+02 -0.38906500599E+02  0.40895427184E+03  0.41112740951E+03  0.00000000000E+00 0. -1.
        -14    1    5    5    0    0  0.95728134298E+01  0.30963207462E+02  0.12609077148E+03  0.13018925311E+03  0.00000000000E+00 0.  1.
          5    1    4    4  501    0  0.26818208060E+02  0.41476411127E+02  0.24933837930E+01  0.49630618838E+02  0.41800000000E+01 0. -1.
         -5    1    4    4    0  501  0.33078630400E+02 -0.40934603181E+02  0.13815380863E+03  0.14789788628E+03  0.41800000000E+01 0. -1.
</event>
<event>
11    1  0.6930157E-009  0.1479649E+03  0.7561462E-02  0.1098977E+00
         22   -1    0    0    0    0  0.00000000000E+00  0.00000000000E+00  0.14105529360E+03  0.14105529360E+03  0.00000000000E+00 0. -1.
         22   -1    0    0    0    0 -0.00000000000E+00 -0.00000000000E+00 -0.23728369534E+04  0.23728369534E+04  0.00000000000E+00 0.  1.
         24    2    1    2    0    0  0.68502059631E+02  0.44057835692E+02 -0.20186736060E+04  0.20214906524E+04  0.68903591800E+02 0.  0.
         25    2    1    2    0    0 -0.41644177649E+02 -0.37393265975E+02 -0.32503387160E+03  0.35274177541E+03  0.12508896259E+03 0.  0.
        -24    2    1    2    0    0 -0.26857881982E+02 -0.66645697172E+01  0.11192581783E+03  0.13965981920E+03  0.78814428173E+02 0.  0.
        -13    1    3    3    0    0  0.30034022307E+02  0.53186872408E+02 -0.15306236615E+04  0.15318419237E+04  0.00000000000E+00 0.  1.
         14    1    3    3    0    0  0.38468037323E+02 -0.91290367162E+01 -0.48804994447E+03  0.48964872868E+03  0.00000000000E+00 0. -1.
         13    1    5    5    0    0  0.20003061139E+02 -0.25513959690E+02  0.52093825809E+02  0.61358383954E+02  0.00000000000E+00 0. -1.
        -14    1    5    5    0    0 -0.46860943121E+02  0.18849389973E+02  0.59831992018E+02  0.78301435245E+02  0.00000000000E+00 0.  1.
          5    1    4    4  501    0 -0.83928378702E+02 -0.20317556978E+02 -0.25320310237E+03  0.26755571256E+03  0.41800000000E+01 0.  1.
         -5    1    4    4    0  501  0.42284201054E+02 -0.17075708997E+02 -0.71830769232E+02  0.85186062857E+02  0.41800000000E+01 0.  1.
</event>
<event>
11    1  0.6930157E-009  0.1466194E+03  0.7561462E-02  0.1100384E+00
         22   -1    0    0    0    0  0.00000000000E+00  0.00000000000E+00  0.29274704575E+03  0.29274704575E+03  0.00000000000E+00 0. -1.
         22   -1    0    0    0    0 -0.00000000000E+00 -0.00000000000E+00 -0.44613639436E+03  0.44613639436E+03  0.00000000000E+00 0.  1.
         24    2    1    2    0    0 -0.30017111179E+02 -0.71508787757E+02 -0.37836490566E+03  0.39479772720E+03  0.81796759559E+02 0.  0.
         25    2    1    2    0    0  0.41985488973E+02  0.50589988853E+02  0.56568327712E+02  0.15220907675E+03  0.12508196948E+03 0.  0.
        -24    2    1    2    0    0 -0.11968377794E+02  0.20918798904E+02  0.16840722933E+03  0.19187663617E+03  0.88740128477E+02 0.  0.
        -13    1    3    3    0    0 -0.75225863040E+01 -0.84960642311E+02 -0.26266479398E+03  0.27616606244E+03  0.00000000000E+00 0.  1.
         14    1    3    3    0    0 -0.22494524875E+02  0.13451854554E+02 -0.11570011168E+03  0.11863166476E+03  0.00000000000E+00 0. -1.
         13    1    5    5    0    0 -0.60551975356E+01 -0.10726988226E+01  0.16898484887E+03  0.16909670383E+03  0.00000000000E+00 0. -1.
        -14    1    5    5    0    0 -0.59131802588E+01  0.21991497727E+02 -0.57761953511E+00  0.22779932339E+02  0.00000000000E+00 0.  1.
          5    1    4    4  501    0  0.78364682753E+02 -0.46181343393E+00  0.30955421360E+02  0.84362001435E+02  0.41800000000E+01 0.  1.
         -5    1    4    4    0  501 -0.36379193780E+02  0.51051802287E+02  0.25612906352E+02  0.67847075314E+02  0.41800000000E+01 0.  1.
</event>
<event>
11    1  0.6930157E-009  0.1917389E+03  0.7561462E-02  0.1060524E+00
         22   -1    0    0    0    0  0.00000000000E+00  0.00000000000E+00  0.16106189137E+04  0.16106189137E+04  0.00000000000E+00 0. -1.
         22   -1    0    0    0    0 -0.00000000000E+00 -0.00000000000E+00 -0.57742336053E+02  0.57742336053E+02  0.00000000000E+00 0. -1.
        -24    2    1    2    0    0 -0.53988370175E+02  0.10300380300E+03  0.17343082035E+03  0.22410284737E+03  0.81359137194E+02 0.  0.
         25    2    1    2    0    0  0.57475956479E+02 -0.22413841853E+03  0.66496791908E+03  0.71510242698E+03  0.12509049296E+03 0.  0.
         24    2    1    2    0    0 -0.34875863036E+01  0.12113461553E+03  0.71447783820E+03  0.72915597539E+03  0.80647980921E+02 0.  0.
        -11    1    5    5    0    0 -0.30111265978E+02  0.13536236553E+02  0.21556814534E+03  0.21808150615E+03  0.00000000000E+00 0.  1.
         12    1    5    5    0    0  0.26623679675E+02  0.10759837898E+03  0.49890969286E+03  0.51107446924E+03  0.00000000000E+00 0. -1.
         11    1    3    3    0    0 -0.60116777669E+02  0.85404845987E+02  0.87727772607E+02  0.13639712886E+03  0.00000000000E+00 0. -1.
        -12    1    3    3    0    0  0.61284074936E+01  0.17598957014E+02  0.85703047743E+02  0.87705718507E+02  0.00000000000E+00 0.  1.
          5    1    4    4  501    0  0.51764991596E+02 -0.17307027474E+03  0.33037554924E+03  0.37656129685E+03  0.41800000000E+01 0. -1.
         -5    1    4    4    0  501  0.57109648832E+01 -0.51068143795E+02  0.33459236984E+03  0.33854113013E+03  0.41800000000E+01 0. -1.
</event>
<event>
11    1  0.6930157E-009  0.1382145E+03  0.7561462E-02  0.1109569E+00
         22   -1    0    0    0    0  0.00000000000E+00  0.00000000000E+00  0.41509665581E+02  0.41509665581E+02  0.00000000000E+00 0.  1.
         22   -1    0    0    0    0 -0.00000000000E+00 -0.00000000000E+00 -0.19140317362E+04  0.19140317362E+04  0.00000000000E+00 0. -1.
         24    2    1    2    0    0 -0.40708473582E+01 -0.16346335724E+02 -0.15004107545E+04  0.15027104187E+04  0.81378103843E+02 0.  0.
         25    2    1    2    0    0  0.30842036578E+02  0.64098493417E+02 -0.29348500329E+03  0.32686523264E+03  0.12509030769E+03 0.  0.
        -24    2    1    2    0    0 -0.26771189220E+02 -0.47752157693E+02 -0.78626312791E+02  0.12596575039E+03  0.81782076711E+02 0.  0.
        -13    1    3    3    0    0 -0.10177129063E+02  0.10737593891E+02 -0.52800707954E+02  0.54834155770E+02  0.00000000000E+00 0.  1.
         14    1    3    3    0    0  0.61062817052E+01 -0.27083929614E+02 -0.14476100466E+04  0.14478762630E+04  0.00000000000E+00 0. -1.
         13    1    5    5    0    0  0.17017198800E+02 -0.24352663526E+02 -0.69366980874E+02  0.75461349785E+02  0.00000000000E+00 0. -1.
        -14    1    5    5    0    0 -0.43788388021E+02 -0.23399494167E+02 -0.92593319163E+01  0.50504400603E+02  0.00000000000E+00 0.  1.
          5    1    4    4  501    0  0.52935058320E+02  0.83112037908E+02 -0.14418943710E+03  0.17469343839E+03  0.41800000000E+01 0.  1.
         -5    1    4    4    0  501 -0.22093021742E+02 -0.19013544491E+02 -0.14929556619E+03  0.15217179426E+03  0.41800000000E+01 0.  1.
</event>
<event>
11    1  0.6930157E-009  0.2215958E+03  0.7561462E-02  0.1040222E+00
         22   -1    0    0    0    0  0.00000000000E+00  0.00000000000E+00  0.95390000531E+03  0.95390000531E+03  0.00000000000E+00 0.  1.
         22   -1    0    0    0    0 -0.00000000000E+00 -0.00000000000E+00 -0.55865815928E+03  0.55865815928E+03  0.00000000000E+00 0. -1.
         24    2    1    2    0    0  0.10801911392E+02  0.25083288671E+02 -0.37841602233E+03  0.38763239703E+03  0.79462800126E+02 0.  0.
         25    2    1    2    0    0 -0.15564183040E+03  0.87339066105E+02 -0.91890023548E+02  0.23652431510E+03  0.12508990114E+03 0.  0.
        -24    2    1    2    0    0  0.14483991901E+03 -0.11242235478E+03  0.86554789191E+03  0.88840145246E+03  0.80415169916E+02 0.  0.
        -13    1    3    3    0    0  0.11082301453E+02  0.47956617255E+02 -0.14558444437E+03  0.15367981321E+03  0.00000000000E+00 0.  1.
         14    1    3    3    0    0 -0.28039006129E+00 -0.22873328584E+02 -0.23283157796E+03  0.23395258382E+03  0.00000000000E+00 0. -1.
         13    1    5    5    0    0  0.65038014197E+02 -0.98835312200E+02  0.55550726485E+03  0.56796715005E+03  0.00000000000E+00 0. -1.
        -14    1    5    5    0    0  0.79801904808E+02 -0.13587042576E+02  0.31004062706E+03  0.32043430242E+03  0.00000000000E+00 0.  1.
          5    1    4    4  501    0 -0.83678697193E+02  0.10556323932E+03 -0.26165833946E+02  0.13728745436E+03  0.41800000000E+01 0. -1.
         -5    1    4    4    0  501 -0.71963133204E+02 -0.18224173212E+02 -0.65724189602E+02  0.99236860735E+02  0.41800000000E+01 0. -1.
</event>
<event>
11    1  0.6930157E-009  0.1369105E+03  0.7561462E-02  0.1111058E+00
         22   -1    0    0    0    0  0.00000000000E+00  0.00000000000E+00  0.53942301833E+03  0.53942301833E+03  0.00000000000E+00 0. -1.
         22   -1    0    0    0    0 -0.00000000000E+00 -0.00000000000E+00 -0.28371269893E+03  0.28371269893E+03  0.00000000000E+00 0. -1.
        -24    2    1    2    0    0 -0.11901268559E+02 -0.30450984975E+01 -0.19351988846E+03  0.20954438397E+03  0.79422848130E+02 0.  0.
         25    2    1    2    0    0 -0.37464381341E+02  0.29916881395E+02 -0.18896287803E+02  0.13528906989E+03  0.12508982004E+03 0.  0.
         24    2    1    2    0    0  0.49365649900E+02 -0.26871782897E+02  0.46812649566E+03  0.47830226339E+03  0.80446125558E+02 0.  0.
        -11    1    5    5    0    0  0.18067449692E+02 -0.11620950152E+01  0.15402951796E+02  0.23770446509E+02  0.00000000000E+00 0.  1.
         12    1    5    5    0    0  0.31298200208E+02 -0.25709687882E+02  0.45272354387E+03  0.45453181688E+03  0.00000000000E+00 0. -1.
         13    1    3    3    0    0  0.21598063702E+02  0.23371297971E+02 -0.12365272020E+03  0.12768198439E+03  0.00000000000E+00 0. -1.
        -14    1    3    3    0    0 -0.33499332261E+02 -0.26416396469E+02 -0.69867168259E+02  0.81862399579E+02  0.00000000000E+00 0.  1.
          5    1    4    4  501    0 -0.64981000195E+02 -0.82326670030E+01 -0.46641560448E+02  0.80518412511E+02  0.41800000000E+01 0.  1.
         -5    1    4    4    0  501  0.27516618854E+02  0.38149548398E+02  0.27745272645E+02  0.54770657384E+02  0.41800000000E+01 0.  1.
</event>
<event>
11    1  0.6930157E-009  0.1474805E+03  0.7561462E-02  0.1099481E+00
         22   -1    0    0    0    0  0.00000000000E+00  0.00000000000E+00  0.14965907212E+04  0.14965907212E+04  0.00000000000E+00 0.  1.
         22   -1    0    0    0    0 -0.00000000000E+00 -0.00000000000E+00 -0.25949006032E+03  0.25949006032E+03  0.00000000000E+00 0. -1.
         24    2    1    2    0    0 -0.63017881439E+02  0.41169109019E+02 -0.19660245741E+03  0.22528029048E+03  0.80203080346E+02 0.  0.
         25    2    1    2    0    0 -0.18018418090E+02 -0.34159744324E+02  0.46598153918E+02  0.13896083313E+03  0.12508866325E+03 0.  0.
        -24    2    1    2    0    0  0.81036299529E+02 -0.70093646947E+01  0.13871049643E+04  0.13918396579E+04  0.80879157398E+02 0.  0.
        -11    1    3    3    0    0 -0.33859069479E+02  0.97243065935E+01 -0.14329632532E+02  0.38030738794E+02  0.00000000000E+00 0.  1.
         12    1    3    3    0    0 -0.29158811960E+02  0.31444802425E+02 -0.18227282488E+03  0.18724955168E+03  0.00000000000E+00 0. -1.
         11    1    5    5    0    0 -0.96480864623E+01  0.44828605193E+00  0.26667004837E+02  0.28362222757E+02  0.00000000000E+00 0. -1.
        -12    1    5    5    0    0  0.90684385992E+02 -0.74576507467E+01  0.13604379595E+04  0.13634774351E+04  0.00000000000E+00 0.  1.
          5    1    4    4  501    0 -0.30068961406E+02 -0.76981780813E+02  0.14663686013E+02  0.84040663399E+02  0.41800000000E+01 0.  1.
         -5    1    4    4    0  501  0.12050543316E+02  0.42822036489E+02  0.31934467905E+02  0.54920169734E+02  0.41800000000E+01 0.  1.
</event>
<event>
11    1  0.6930157E-009  0.1316378E+03  0.7561462E-02  0.1117273E+00
         22   -1    0    0    0    0  0.00000000000E+00  0.00000000000E+00  0.41339136547E+03  0.41339136547E+03  0.00000000000E+00 0.  1.
         22   -1    0    0    0    0 -0.00000000000E+00 -0.00000000000E+00 -0.48049827456E+03  0.48049827456E+03  0.00000000000E+00 0.  1.
        -24    2    1    2    0    0 -0.32093388113E+02  0.90262689415E+01 -0.38791488289E+03  0.39760336789E+03  0.80616516267E+02 0.  0.
         25    2    1    2    0    0  0.58086196742E+02 -0.38372208995E+02 -0.19821396324E+02  0.14452362216E+03  0.12509099462E+03 0.  0.
         24    2    1    2    0    0 -0.25992808628E+02  0.29345940054E+02  0.34062937012E+03  0.35176264998E+03  0.78560701560E+02 0.  0.
        -11    1    5    5    0    0 -0.26143972229E+02 -0.91232617912E+01  0.26930838887E+03  0.27072818380E+03  0.00000000000E+00 0.  1.
         12    1    5    5    0    0  0.15116360020E+00  0.38469201845E+02  0.71320981253E+02  0.81034466173E+02  0.00000000000E+00 0. -1.
         13    1    3    3    0    0  0.13174098771E+02 -0.16616380157E+02 -0.35363519117E+02  0.41233959939E+02  0.00000000000E+00 0. -1.
        -14    1    3    3    0    0 -0.45267486884E+02  0.25642649099E+02 -0.35255136378E+03  0.35636940795E+03  0.00000000000E+00 0.  1.
          5    1    4    4  501    0  0.31575527285E+02  0.42005344856E+02 -0.27462307526E+02  0.59440000458E+02  0.41800000000E+01 0.  1.
         -5    1    4    4    0  501  0.26510669457E+02 -0.80377553851E+02  0.76409112016E+01  0.85083621703E+02  0.41800000000E+01 0.  1.
</event>
<event>
11    1  0.6930157E-009  0.1515331E+03  0.7561462E-02  0.1095322E+00
         22   -1    0    0    0    0  0.00000000000E+00  0.00000000000E+00  0.19157319180E+03  0.19157319180E+03  0.00000000000E+00 0. -1.
         22   -1    0    0    0    0 -0.00000000000E+00 -0.00000000000E+00 -0.86230490936E+03  0.86230490936E+03  0.00000000000E+00 0.  1.
         24    2    1    2    0    0  0.19729557676E+02  0.45320475148E+02 -0.69692960408E+03  0.70322109842E+03  0.79786210052E+02 0.  0.
         25    2    1    2    0    0 -0.49617000285E+02 -0.11775656496E+03 -0.81070266404E+02  0.19633736983E+03  0.12509004512E+03 0.  0.
        -24    2    1    2    0    0  0.29887442609E+02  0.72436089809E+02  0.10726815292E+03  0.15431963291E+03  0.78535636107E+02 0.  0.
        -13    1    3    3    0    0  0.30124218104E+02  0.20104193020E+02 -0.62869495696E+03  0.62973724362E+03  0.00000000000E+00 0.  1.
         14    1    3    3    0    0 -0.10394660428E+02  0.25216282128E+02 -0.68234647120E+02  0.73483854807E+02  0.00000000000E+00 0. -1.
         11    1    5    5    0    0  0.29115492244E+02  0.86438040671E+02  0.10657903394E+03  0.14027949686E+03  0.00000000000E+00 0. -1.
        -12    1    5    5    0    0  0.77195036541E+00 -0.14001950862E+02  0.68911897415E+00  0.14040136048E+02  0.00000000000E+00 0.  1.
          5    1    4    4  501    0 -0.60339579977E+02 -0.32426940930E+02  0.11865198306E+02  0.69646440977E+02  0.41800000000E+01 0.  1.
         -5    1    4    4    0  501  0.10722579692E+02 -0.85329624027E+02 -0.92935464711E+02  0.12669092885E+03  0.41800000000E+01 0.  1.
</event>
<event>
11    1  0.6930157E-009  0.1351436E+03  0.7561462E-02  0.1113106E+00
         22   -1    0    0    0    0  0.00000000000E+00  0.00000000000E+00  0.23864431532E+03  0.23864431532E+03  0.00000000000E+00 0. -1.
         22   -1    0    0    0    0 -0.00000000000E+00 -0.00000000000E+00 -0.38581519090E+03  0.38581519090E+03  0.00000000000E+00 0. -1.
        -24    2    1    2    0    0 -0.19763281997E+02 -0.34139184643E+02 -0.29021795164E+03  0.30405773380E+03  0.81661342071E+02 0.  0.
         25    2    1    2    0    0  0.91937182342E+01 -0.21839566520E+02 -0.20450686900E+02  0.12894889092E+03  0.12509234491E+03 0.  0.
         24    2    1    2    0    0  0.10569563763E+02  0.55978751163E+02  0.16349776295E+03  0.19145288150E+03  0.81715060316E+02 0.  0.
        -11    1    5    5    0    0  0.40653208426E+02  0.57516123902E+01  0.66257390098E+02  0.77947457579E+02  0.00000000000E+00 0.  1.
         12    1    5    5    0    0 -0.30083644664E+02  0.50227138773E+02  0.97240372855E+02  0.11350542392E+03  0.00000000000E+00 0. -1.
         13    1    3    3    0    0  0.22117801151E+02 -0.36743087074E+02 -0.20017007846E+03  0.20471275458E+03  0.00000000000E+00 0. -1.
        -14    1    3    3    0    0 -0.41881083148E+02  0.26039024313E+01 -0.90047873175E+02  0.99344979223E+02  0.00000000000E+00 0.  1.
          5    1    4    4  501    0  0.34128415769E+02  0.33196106988E+02 -0.43031643774E+02  0.64311158036E+02  0.41800000000E+01 0. -1.
         -5    1    4    4    0  501 -0.24934697535E+02 -0.55035673508E+02  0.22580956874E+02  0.64637732888E+02  0.41800000000E+01 0. -1.
</event>
<event>
11    1  0.6930157E-009  0.1860034E+03  0.7561462E-02  0.1064888E+00
         22   -1    0    0    0    0  0.00000000000E+00  0.00000000000E+00  0.23876176860E+04  0.23876176860E+04  0.00000000000E+00 0.  1.
         22   -1    0    0    0    0 -0.00000000000E+00 -0.00000000000E+00 -0.63691788787E+03  0.63691788787E+03  0.00000000000E+00 0. -1.
        -24    2    1    2    0    0 -0.74275450794E+02 -0.24313294626E+00 -0.59750562273E+03  0.60748301415E+03  0.80658177432E+02 0.  0.
         25    2    1    2    0    0 -0.66356120890E+02 -0.31518308194E+02  0.13661516916E+03  0.19926810970E+03  0.12509011379E+03 0.  0.
         24    2    1    2    0    0  0.14063157168E+03  0.31761441140E+02  0.22115902517E+04  0.22177844500E+04  0.81549968109E+02 0.  0.
        -11    1    5    5    0    0  0.12757617277E+03 -0.38362539640E+01  0.16737993618E+04  0.16786586015E+04  0.00000000000E+00 0.  1.
         12    1    5    5    0    0  0.13055398912E+02  0.35597695104E+02  0.53779088987E+03  0.53912584854E+03  0.00000000000E+00 0. -1.
         13    1    3    3    0    0 -0.75370623163E+02 -0.58283999130E+00 -0.27976857524E+03  0.28974389766E+03  0.00000000000E+00 0. -1.
        -14    1    3    3    0    0  0.10951723690E+01  0.33970704504E+00 -0.31773704749E+03  0.31773911649E+03  0.00000000000E+00 0.  1.
          5    1    4    4  501    0 -0.51634791867E+02  0.93331233234E+01  0.14551759270E+03  0.15474527814E+03  0.41800000000E+01 0. -1.
         -5    1    4    4    0  501 -0.14721329023E+02 -0.40851431517E+02 -0.89024235378E+01  0.44522831559E+02  0.41800000000E+01 0. -1.
</event>
<event>
11    1  0.6930157E-009  0.1284869E+03  0.7561462E-02  0.1121142E+00
         22   -1    0    0    0    0  0.00000000000E+00  0.00000000000E+00  0.30830639409E+04  0.30830639409E+04  0.00000000000E+00 0. -1.
         22   -1    0    0    0    0 -0.00000000000E+00 -0.00000000000E+00 -0.21815365131E+02  0.21815365131E+02  0.00000000000E+00 0. -1.
        -24    2    1    2    0    0 -0.30529324261E+02 -0.28015053113E+02  0.59064911372E+02  0.92530475443E+02  0.57933947644E+02 0.  0.
         25    2    1    2    0    0  0.46458254500E+02  0.42358602772E+02  0.11869894079E+04  0.11952175913E+04  0.12509442689E+03 0.  0.
         24    2    1    2    0    0 -0.15928930239E+02 -0.14343549659E+02  0.18151942566E+04  0.18171312393E+04  0.81094287365E+02 0.  0.
        -13    1    5    5    0    0  0.46394325224E+01 -0.89691150866E+00  0.54219380327E+01  0.71920926311E+01  0.00000000000E+00 0.  1.
         14    1    5    5    0    0 -0.20568362762E+02 -0.13446638151E+02  0.18097723185E+04  0.18099391466E+04  0.00000000000E+00 0. -1.
         11    1    3    3    0    0 -0.27965965055E+02 -0.42361852766E+02  0.59165330908E+02  0.77956129667E+02  0.00000000000E+00 0. -1.
        -12    1    3    3    0    0 -0.25633592057E+01  0.14346799653E+02 -0.10041953614E+00  0.14574345776E+02  0.00000000000E+00 0.  1.
          5    1    4    4  501    0  0.49251551760E+02  0.69320117412E+02  0.46643464346E+03  0.47414105818E+03  0.41800000000E+01 0.  1.
         -5    1    4    4    0  501 -0.27932972596E+01 -0.26961514640E+02  0.72055476440E+03  0.72107653316E+03  0.41800000000E+01 0.  1.
</event>
<event>
11    1  0.6930157E-009  0.1503437E+03  0.7561462E-02  0.1096528E+00
         22   -1    0    0    0    0  0.00000000000E+00  0.00000000000E+00  0.59074485092E+03  0.59074485092E+03  0.00000000000E+00 0.  1.
         22   -1    0    0    0    0 -0.00000000000E+00 -0.00000000000E+00 -0.49940302431E+03  0.49940302431E+03  0.00000000000E+00 0.  1.
         24    2    1    2    0    0  0.23215336740E+02  0.23174161714E+02 -0.30976137378E+03  0.32150688248E+03  0.79615156611E+02 0.  0.
         25    2    1    2    0    0 -0.31149238362E+00 -0.10267150182E+03 -0.13892193345E+03  0.21328010796E+03  0.12509023362E+03 0.  0.
        -24    2    1    2    0    0 -0.22903844357E+02  0.79497340102E+02  0.54002513385E+03  0.55536088479E+03  0.99770506644E+02 0.  0.
        -11    1    3    3    0    0 -0.20114227518E+02 -0.54784919637E+01 -0.18766654192E+03  0.18882088597E+03  0.00000000000E+00 0.  1.
         12    1    3    3    0    0  0.43329564258E+02  0.28652653678E+02 -0.12209483187E+03  0.13268599651E+03  0.00000000000E+00 0. -1.
         11    1    5    5    0    0 -0.33267447166E+02 -0.86588353609E+01  0.24100622056E+03  0.24344546990E+03  0.00000000000E+00 0. -1.
        -12    1    5    5    0    0  0.10363602810E+02  0.88156175462E+02  0.29901891329E+03  0.31191541489E+03  0.00000000000E+00 0.  1.
          5    1    4    4  501    0  0.37147209701E+02  0.11697836332E+01 -0.79464219459E+02  0.87825498328E+02  0.41800000000E+01 0.  1.
         -5    1    4    4    0  501 -0.37458702085E+02 -0.10384128545E+03 -0.59457713989E+02  0.12545460963E+03  0.41800000000E+01 0.  1.
</event>
<event>
11    1  0.6930157E-009  0.1351362E+03  0.7561462E-02  0.1113114E+00
         22   -1    0    0    0    0  0.00000000000E+00  0.00000000000E+00  0.14067859959E+03  0.14067859959E+03  0.00000000000E+00 0. -1.
         22   -1    0    0    0    0 -0.00000000000E+00 -0.00000000000E+00 -0.40481833543E+03  0.40481833543E+03  0.00000000000E+00 0.  1.
        -24    2    1    2    0    0  0.72896560457E+01 -0.25044484200E+02 -0.29745621801E+03  0.30846968460E+03  0.77414335941E+02 0.  0.
         25    2    1    2    0    0 -0.46722176333E+02  0.47995542162E+02 -0.50980530605E+01  0.14198851607E+03  0.12509282443E+03 0.  0.
         24    2    1    2    0    0  0.39432520287E+02 -0.22951057962E+02  0.38414535234E+02  0.95038734348E+02  0.73993309099E+02 0.  0.
        -13    1    5    5    0    0  0.53468168424E+02 -0.93424514119E+01  0.27262788890E+01  0.54346656103E+02  0.00000000000E+00 0.  1.
         14    1    5    5    0    0 -0.14035648137E+02 -0.13608606551E+02  0.35688256345E+02  0.40692078244E+02  0.00000000000E+00 0. -1.
         11    1    3    3    0    0  0.17345415589E+02 -0.45918341021E+02 -0.12221973652E+03  0.13170809193E+03  0.00000000000E+00 0. -1.
        -12    1    3    3    0    0 -0.10055759543E+02  0.20873856821E+02 -0.17523648149E+03  0.17676159267E+03  0.00000000000E+00 0.  1.
          5    1    4    4  501    0  0.25077590823E+02 -0.13907514414E+02  0.29150877944E+02  0.41104143387E+02  0.41800000000E+01 0. -1.
         -5    1    4    4    0  501 -0.71799767156E+02  0.61903056577E+02 -0.34248931005E+02  0.10088437269E+03  0.41800000000E+01 0. -1.
</event>
<event>
11    1  0.6930157E-009  0.1429610E+03  0.7561462E-02  0.1104296E+00
         22   -1    0    0    0    0  0.00000000000E+00  0.00000000000E+00  0.28671412859E+04  0.28671412859E+04  0.00000000000E+00 0.  1.
         22   -1    0    0    0    0 -0.00000000000E+00 -0.00000000000E+00 -0.90518742927E+02  0.90518742927E+02  0.00000000000E+00 0. -1.
         24    2    1    2    0    0 -0.61393620588E+02 -0.33766136087E+02 -0.32920086232E+02  0.11172279686E+03  0.80553849483E+02 0.  0.
         25    2    1    2    0    0  0.67927049303E+02  0.58665316253E+01  0.27225963760E+03  0.30727846454E+03  0.12508494826E+03 0.  0.
        -24    2    1    2    0    0 -0.65334287142E+01  0.27899604462E+02  0.25372829916E+04  0.25386587674E+04  0.78500218676E+02 0.  0.
        -13    1    3    3    0    0 -0.25814159301E+02 -0.45523613274E+02  0.11527081880E+02  0.53587720633E+02  0.00000000000E+00 0.  1.
         14    1    3    3    0    0 -0.35579461287E+02  0.11757477187E+02 -0.44447168112E+02  0.58135076232E+02  0.00000000000E+00 0. -1.
         11    1    5    5    0    0  0.87512393545E+01 -0.19993360960E+02  0.29257286031E+03  0.29338574823E+03  0.00000000000E+00 0. -1.
        -12    1    5    5    0    0 -0.15284668069E+02  0.47892965422E+02  0.22447101313E+04  0.22452730192E+04  0.00000000000E+00 0.  1.
          5    1    4    4  501    0 -0.60748612443E+01  0.40786423243E+02  0.28985476437E+02  0.50577331922E+02  0.41800000000E+01 0.  1.
         -5    1    4    4    0  501  0.74001910547E+02 -0.34919891617E+02  0.24327416117E+03  0.25670113262E+03  0.41800000000E+01 0.  1.
</event>
<event>
11    1  0.6930157E-009  0.1937084E+03  0.7561462E-02  0.1059064E+00
         22   -1    0    0    0    0  0.00000000000E+00  0.00000000000E+00  0.15235115361E+04  0.15235115361E+04  0.00000000000E+00 0.  1.
         22   -1    0    0    0    0 -0.00000000000E+00 -0.00000000000E+00 -0.14000385470E+04  0.14000385470E+04  0.00000000000E+00 0.  1.
         24    2    1    2    0    0  0.40743122172E+02  0.47238564019E+01 -0.13544427251E+04  0.13571662654E+04  0.75517279716E+02 0.  0.
         25    2    1    2    0    0 -0.19571663764E+02  0.14291372076E+03  0.19742075570E+03  0.27464442484E+03  0.12508886327E+03 0.  0.
        -24    2    1    2    0    0 -0.21171458408E+02 -0.14763757716E+03  0.12804949585E+04  0.12917393930E+04  0.81720473823E+02 0.  0.
        -13    1    3    3    0    0  0.33367324317E+01 -0.22367240244E+02 -0.91952242559E+03  0.91980047748E+03  0.00000000000E+00 0.  1.
         14    1    3    3    0    0  0.37406389740E+02  0.27091096646E+02 -0.43492029948E+03  0.43736578788E+03  0.00000000000E+00 0. -1.
         11    1    5    5    0    0  0.61166660248E+01 -0.75961044342E+01  0.13062130861E+02  0.16301339468E+02  0.00000000000E+00 0. -1.
        -12    1    5    5    0    0 -0.27288124433E+02 -0.14004147272E+03  0.12674328276E+04  0.12754380535E+04  0.00000000000E+00 0.  1.
          5    1    4    4  501    0 -0.72062641773E+02  0.86644972844E+02  0.13147894604E+03  0.17321824762E+03  0.41800000000E+01 0.  1.
         -5    1    4    4    0  501  0.52490978009E+02  0.56268747912E+02  0.65941809661E+02  0.10142617722E+03  0.41800000000E+01 0.  1.
</event>
<event>
11    1  0.6930157E-009  0.1786598E+03  0.7561462E-02  0.1070732E+00
         22   -1    0    0    0    0  0.00000000000E+00  0.00000000000E+00  0.30638419633E+03  0.30638419633E+03  0.00000000000E+00 0. -1.
         22   -1    0    0    0    0 -0.00000000000E+00 -0.00000000000E+00 -0.93199769837E+03  0.93199769837E+03  0.00000000000E+00 0.  1.
         24    2    1    2    0    0 -0.11233907282E+03  0.53858296816E+02 -0.74085753404E+03  0.75541722792E+03  0.79148714991E+02 0.  0.
         25    2    1    2    0    0  0.12612420548E+03 -0.83025939083E+02 -0.12218022660E+03  0.23103379309E+03  0.12509190224E+03 0.  0.
        -24    2    1    2    0    0 -0.13785132655E+02  0.29167642267E+02  0.23742425860E+03  0.25193087369E+03  0.77833831392E+02 0.  0.
        -11    1    3    3    0    0 -0.89642353470E+02  0.67863614858E+02 -0.47049580166E+03  0.48374323886E+03  0.00000000000E+00 0.  1.
         12    1    3    3    0    0 -0.22696719354E+02 -0.14005318042E+02 -0.27036173237E+03  0.27167398906E+03  0.00000000000E+00 0. -1.
         13    1    5    5    0    0 -0.11523509230E+02  0.91603017937E+01  0.23000052382E+03  0.23047113345E+03  0.00000000000E+00 0. -1.
        -14    1    5    5    0    0 -0.22616234250E+01  0.20007340473E+02  0.74237347797E+01  0.21459740245E+02  0.00000000000E+00 0.  1.
          5    1    4    4  501    0  0.11670990232E+03 -0.11027154009E+03 -0.12234130464E+03  0.20190562417E+03  0.41800000000E+01 0.  1.
         -5    1    4    4    0  501  0.94143031632E+01  0.27245601003E+02  0.16107804004E+00  0.29128168913E+02  0.41800000000E+01 0.  1.
</event>
<event>
11    1  0.6930157E-009  0.1444853E+03  0.7561462E-02  0.1102651E+00
         22   -1    0    0    0    0  0.00000000000E+00  0.00000000000E+00  0.67878383724E+03  0.67878383724E+03  0.00000000000E+00 0.  1.
         22   -1    0    0    0    0 -0.00000000000E+00 -0.00000000000E+00 -0.22111279950E+04  0.22111279950E+04  0.00000000000E+00 0.  1.
         24    2    1    2    0    0  0.35357467780E+02 -0.48731644761E+02 -0.19984394789E+04  0.20011254147E+04  0.84366171594E+02 0.  0.
         25    2    1    2    0    0 -0.38075752906E+02 -0.24515833374E+02 -0.18553813016E+03  0.22830345214E+03  0.12508908614E+03 0.  0.
        -24    2    1    2    0    0  0.27182851263E+01  0.73247478134E+02  0.65163345125E+03  0.66048296541E+03  0.78987408379E+02 0.  0.
        -13    1    3    3    0    0  0.50942818587E+02 -0.63705750951E+02 -0.14975363532E+04  0.14997562211E+04  0.00000000000E+00 0.  1.
         14    1    3    3    0    0 -0.15585350807E+02  0.14974106191E+02 -0.50090312570E+03  0.50136919366E+03  0.00000000000E+00 0. -1.
         13    1    5    5    0    0  0.14487302733E+02 -0.10770812277E+01  0.21968321414E+02  0.26337220624E+02  0.00000000000E+00 0. -1.
        -14    1    5    5    0    0 -0.11769017606E+02  0.74324559362E+02  0.62966512984E+03  0.63414574479E+03  0.00000000000E+00 0.  1.
          5    1    4    4  501    0 -0.34227922721E+02  0.41245006896E+02 -0.13456526982E+03  0.14490681671E+03  0.41800000000E+01 0. -1.
         -5    1    4    4    0  501 -0.38478301856E+01 -0.65760840269E+02 -0.50972860335E+02  0.83396635428E+02  0.41800000000E+01 0. -1.
</event>
<event>
11    1  0.6930157E-009  0.1456028E+03  0.7561462E-02  0.1101458E+00
         22   -1    0    0    0    0  0.00000000000E+00  0.00000000000E+00  0.52423371213E+03  0.52423371213E+03  0.00000000000E+00 0.  1.
         22   -1    0    0    0    0 -0.00000000000E+00 -0.00000000000E+00 -0.37573252760E+03  0.37573252760E+03  0.00000000000E+00 0.  1.
         24    2    1    2    0    0  0.39314683956E+02  0.62592172495E+02 -0.32987526713E+03  0.34694869189E+03  0.78053049346E+02 0.  0.
         25    2    1    2    0    0 -0.96452168943E+02 -0.46105030702E+02  0.21196025077E+03  0.26833758019E+03  0.12509681963E+03 0.  0.
        -24    2    1    2    0    0  0.57137484987E+02 -0.16487141793E+02  0.26641620088E+03  0.28467996765E+03  0.80799590663E+02 0.  0.
        -11    1    3    3    0    0  0.57099944668E+02  0.28069963459E+02 -0.25225842211E+03  0.26015887080E+03  0.00000000000E+00 0.  1.
         12    1    3    3    0    0 -0.17785260712E+02  0.34522209036E+02 -0.77616845016E+02  0.86789821094E+02  0.00000000000E+00 0. -1.
         11    1    5    5    0    0  0.21298028813E+02 -0.16893546351E+02  0.15654487192E+02  0.31369745120E+02  0.00000000000E+00 0. -1.
        -12    1    5    5    0    0  0.35839456174E+02  0.40640455778E+00  0.25076171369E+03  0.25331022253E+03  0.00000000000E+00 0.  1.
          5    1    4    4  501    0 -0.76804844680E+02  0.31639738438E+02  0.92445165164E+02  0.12435287764E+03  0.41800000000E+01 0. -1.
         -5    1    4    4    0  501 -0.19647324263E+02 -0.77744769141E+02  0.11951508561E+03  0.14398470255E+03  0.41800000000E+01 0. -1.
</event>
<event>
11    1  0.6930157E-009  0.1478617E+03  0.7561462E-02  0.1099084E+00
         22   -1    0    0    0    0  0.00000000000E+00  0.00000000000E+00  0.20795143680E+04  0.20795143680E+04  0.00000000000E+00 0. -1.
         22   -1    0    0    0    0 -0.00000000000E+00 -0.00000000000E+00 -0.72456660859E+03  0.72456660859E+03  0.00000000000E+00 0. -1.
         24    2    1    2    0    0  0.57617009129E+02 -0.28401686013E+02 -0.66788988587E+03  0.67581352580E+03  0.80750520060E+02 0.  0.
         25    2    1    2    0    0 -0.12193675839E+02 -0.38183245466E+02  0.33351051758E+02  0.13550435428E+03  0.12506994608E+03 0.  0.
        -24    2    1    2    0    0 -0.45423333290E+02  0.66584931479E+02  0.19894865936E+04  0.19927630965E+04  0.80938375688E+02 0.  0.
        -11    1    3    3    0    0  0.60805178723E+02  0.12488226706E+02 -0.38777223040E+03  0.39270921587E+03  0.00000000000E+00 0.  1.
         12    1    3    3    0    0 -0.31881695943E+01 -0.40889912719E+02 -0.28011765548E+03  0.28310430992E+03  0.00000000000E+00 0. -1.
         13    1    5    5    0    0 -0.52053767706E+02  0.46215463025E+02  0.78345894675E+03  0.78654522120E+03  0.00000000000E+00 0. -1.
        -14    1    5    5    0    0  0.66304344154E+01  0.20369468454E+02  0.12060276468E+04  0.12062178753E+04  0.00000000000E+00 0.  1.
          5    1    4    4  501    0  0.54529765617E+02 -0.23398873296E+02  0.32489353046E+00  0.59485969485E+02  0.41800000000E+01 0.  1.
         -5    1    4    4    0  501 -0.66723441456E+02 -0.14784372170E+02  0.33026158228E+02  0.76018384799E+02  0.41800000000E+01 0.  1.
</event>
<event>
11    1  0.6930157E-009  0.1417579E+03  0.7561462E-02  0.1105611E+00
         22   -1    0    0    0    0  0.00000000000E+00  0.00000000000E+00  0.16296077357E+04  0.16296077357E+04  0.00000000000E+00 0. -1.
         22   -1    0    0    0    0 -0.00000000000E+00 -0.00000000000E+00 -0.30350002172E+03  0.30350002172E+03  0.00000000000E+00 0.  1.
        -24    2    1    2    0    0  0.62840455885E+02  0.24137616174E+02 -0.28092489638E+03  0.29993079117E+03  0.80673010843E+02 0.  0.
         25    2    1    2    0    0 -0.46535001856E+02  0.67568662605E+01  0.37734181714E+03  0.40030680749E+03  0.12509009361E+03 0.  0.
         24    2    1    2    0    0 -0.16305454029E+02 -0.30894482435E+02  0.12296907932E+04  0.12328701587E+04  0.81296030225E+02 0.  0.
        -11    1    5    5    0    0  0.29275739043E+02 -0.63315869120E+00  0.26143194110E+03  0.26306677786E+03  0.00000000000E+00 0.  1.
         12    1    5    5    0    0 -0.45581193072E+02 -0.30261323743E+02  0.96825885211E+03  0.96980338088E+03  0.00000000000E+00 0. -1.
         13    1    3    3    0    0 -0.13624113005E+02 -0.11803797414E+02 -0.79219241877E+02  0.81244288243E+02  0.00000000000E+00 0. -1.
        -14    1    3    3    0    0  0.76464568890E+02  0.35941413588E+02 -0.20170565450E+03  0.21868650293E+03  0.00000000000E+00 0.  1.
          5    1    4    4  501    0 -0.82245898816E+02  0.33335384057E+02  0.25752783319E+03  0.27242190252E+03  0.41800000000E+01 0. -1.
         -5    1    4    4    0  501  0.35710896960E+02 -0.26578517797E+02  0.11981398395E+03  0.12788490497E+03  0.41800000000E+01 0. -1.
</event>
<event>
11    1  0.6930157E-009  0.1502121E+03  0.7561462E-02  0.1096662E+00
         22   -1    0    0    0    0  0.00000000000E+00  0.00000000000E+00  0.15033910732E+04  0.15033910732E+04  0.00000000000E+00 0. -1.
         22   -1    0    0    0    0 -0.00000000000E+00 -0.00000000000E+00 -0.37435059746E+03  0.37435059746E+03  0.00000000000E+00 0. -1.
        -24    2    1    2    0    0 -0.25075928886E+02 -0.26425487667E+01 -0.34820772031E+03  0.35812940895E+03  0.79826510630E+02 0.  0.
         25    2    1    2    0    0  0.63932494154E+02  0.74055675574E+02  0.32264554481E+03  0.35960937824E+03  0.12508857038E+03 0.  0.
         24    2    1    2    0    0 -0.38856565267E+02 -0.71413126807E+02  0.11546026513E+04  0.11600028835E+04  0.76744641813E+02 0.  0.
        -11    1    5    5    0    0 -0.17637255745E+02 -0.15758800433E+02  0.72463716794E+02  0.76225998406E+02  0.00000000000E+00 0.  1.
         12    1    5    5    0    0 -0.21219309522E+02 -0.55654326375E+02  0.10821389345E+04  0.10837768851E+04  0.00000000000E+00 0. -1.
         13    1    3    3    0    0 -0.16476441810E+02  0.34940530370E+02 -0.24357975467E+03  0.24662402698E+03  0.00000000000E+00 0. -1.
        -14    1    3    3    0    0 -0.85994870764E+01 -0.37583079137E+02 -0.10462796564E+03  0.11150538197E+03  0.00000000000E+00 0.  1.
          5    1    4    4  501    0  0.61024401210E+02  0.15484970220E+02  0.27989219686E+03  0.28691614822E+03  0.41800000000E+01 0.  1.
         -5    1    4    4    0  501  0.29080929435E+01  0.58570705354E+02  0.42753347950E+02  0.72693230023E+02  0.41800000000E+01 0.  1.
</event>
<event>
11    1  0.6930157E-009  0.1476584E+03  0.7561462E-02  0.1099296E+00
         22   -1    0    0    0    0  0.00000000000E+00  0.00000000000E+00  0.14320206685E+03  0.14320206685E+03  0.00000000000E+00 0.  1.
         22   -1    0    0    0    0 -0.00000000000E+00 -0.00000000000E+00 -0.18572643874E+04  0.18572643874E+04  0.00000000000E+00 0. -1.
         24    2    1    2    0    0  0.79539187896E+02 -0.85558892491E+01 -0.16553474683E+04  0.16592035819E+04  0.79884916699E+02 0.  0.
         25    2    1    2    0    0 -0.57697105022E+02  0.53277139802E+01 -0.15923680515E+03  0.21062061681E+03  0.12508934265E+03 0.  0.
        -24    2    1    2    0    0 -0.21842082874E+02  0.32281752689E+01  0.10052195288E+03  0.13064225552E+03  0.80468864887E+02 0.  0.
        -11    1    3    3    0    0 -0.73896595754E+01 -0.19396130199E+02 -0.54944751176E+03  0.54983941757E+03  0.00000000000E+00 0.  1.
         12    1    3    3    0    0  0.86928847471E+02  0.10840240950E+02 -0.11058999565E+04  0.11093641644E+04  0.00000000000E+00 0. -1.
         13    1    5    5    0    0 -0.43909877184E+02 -0.10065225827E+02  0.26499506633E+02  0.52264805912E+02  0.00000000000E+00 0. -1.
        -14    1    5    5    0    0  0.22067794309E+02  0.13293401096E+02  0.74022446246E+02  0.78377449605E+02  0.00000000000E+00 0.  1.
          5    1    4    4  501    0 -0.71660090386E+02 -0.13161020055E+02 -0.16979847296E+03  0.18481713887E+03  0.41800000000E+01 0.  1.
         -5    1    4    4    0  501  0.13962985365E+02  0.18488734036E+02  0.10561667804E+02  0.25803477931E+02  0.41800000000E+01 0.  1.
</event>
<event>
11    1  0.6930157E-009  0.2022854E+03  0.7561462E-02  0.1052919E+00
         22   -1    0    0    0    0  0.00000000000E+00  0.00000000000E+00  0.34523421506E+04  0.34523421506E+04  0.00000000000E+00 0. -1.
         22   -1    0    0    0    0 -0.00000000000E+00 -0.00000000000E+00 -0.53057146710E+02  0.53057146710E+02  0.00000000000E+00 0. -1.
         24    2    1    2    0    0  0.93596564029E+02  0.51503680549E+02  0.10052932234E+03  0.16661655697E+03  0.79006243406E+02 0.  0.
         25    2    1    2    0    0 -0.11597371467E+03  0.11104727458E+03  0.59378493484E+03  0.62770100289E+03  0.12508637218E+03 0.  0.
        -24    2    1    2    0    0  0.22377150643E+02 -0.16255095513E+03  0.27049707467E+04  0.27110817375E+04  0.78574147700E+02 0.  0.
        -13    1    3    3    0    0  0.55932784690E+02  0.56814105582E+02  0.10087691737E+03  0.12857865862E+03  0.00000000000E+00 0.  1.
         14    1    3    3    0    0  0.37663779339E+02 -0.53104250331E+01 -0.34759502413E+00  0.38037898344E+02  0.00000000000E+00 0. -1.
         13    1    5    5    0    0  0.13088602054E+02 -0.16965581149E+03  0.25489196977E+04  0.25545931244E+04  0.00000000000E+00 0. -1.
        -14    1    5    5    0    0  0.92885485889E+01  0.71048563609E+01  0.15605104907E+03  0.15648861311E+03  0.00000000000E+00 0.  1.
          5    1    4    4  501    0 -0.11097049823E+03  0.60073522797E+02  0.53465766397E+03  0.54936287613E+03  0.41800000000E+01 0.  1.
         -5    1    4    4    0  501 -0.50032164416E+01  0.50973751782E+02  0.59127270863E+02  0.78338126766E+02  0.41800000000E+01 0.  1.
</event>
<event>
11    1  0.6930157E-009  0.1334651E+03  0.7561462E-02  0.1115083E+00
         22   -1    0    0    0    0  0.00000000000E+00  0.00000000000E+00  0.94079293521E+03  0.94079293521E+03  0.00000000000E+00 0. -1.
         22   -1    0    0    0    0 -0.00000000000E+00 -0.00000000000E+00 -0.73814639321E+02  0.73814639321E+02  0.00000000000E+00 0.  1.
         24    2    1    2    0    0  0.10394660325E+02  0.56265694620E+01 -0.56005460327E+01  0.75032043083E+02  0.73883246587E+02 0.  0.
         25    2    1    2    0    0 -0.48624523992E+02  0.20038641316E+02  0.11982097896E+03  0.18102733750E+03  0.12509172013E+03 0.  0.
        -24    2    1    2    0    0  0.38229863667E+02 -0.25665210778E+02  0.75275786296E+03  0.75854819394E+03  0.81429336045E+02 0.  0.
        -13    1    3    3    0    0  0.41215016281E+02  0.91940462888E+01 -0.10766045912E+02  0.43578845771E+02  0.00000000000E+00 0.  1.
         14    1    3    3    0    0 -0.30820355955E+02 -0.35674768268E+01  0.51654998798E+01  0.31453197312E+02  0.00000000000E+00 0. -1.
         13    1    5    5    0    0  0.49719600298E+02 -0.19523444108E+01  0.66651634720E+03  0.66837107312E+03  0.00000000000E+00 0. -1.
        -14    1    5    5    0    0 -0.11489736631E+02 -0.23712866368E+02  0.86241515764E+02  0.90177120826E+02  0.00000000000E+00 0.  1.
          5    1    4    4  501    0 -0.12151798080E+02 -0.46899442274E+02  0.14115714847E+02  0.50635458799E+02  0.41800000000E+01 0. -1.
         -5    1    4    4    0  501 -0.36472725912E+02  0.66938083590E+02  0.10570526411E+03  0.13039187870E+03  0.41800000000E+01 0. -1.
</event>
<event>
11    1  0.6930157E-009  0.1610284E+03  0.7561462E-02  0.1086114E+00
         22   -1    0    0    0    0  0.00000000000E+00  0.00000000000E+00  0.14483740010E+04  0.14483740010E+04  0.00000000000E+00 0.  1.
         22   -1    0    0    0    0 -0.00000000000E+00 -0.00000000000E+00 -0.13609891897E+03  0.13609891897E+03  0.00000000000E+00 0.  1.
         24    2    1    2    0    0 -0.14846832635E+02 -0.13998765756E+02 -0.92430673646E+02  0.12508110537E+03  0.81764659896E+02 0.  0.
         25    2    1    2    0    0 -0.65908209615E+02  0.76226816599E+02  0.26616727436E+03  0.31087242993E+03  0.12506890137E+03 0.  0.
        -24    2    1    2    0    0  0.80755042250E+02 -0.62228050843E+02  0.11385384813E+04  0.11485193846E+04  0.11150424365E+03 0.  0.
        -13    1    3    3    0    0 -0.36465932591E+02  0.19788948071E+02 -0.62564853581E+02  0.75071483328E+02  0.00000000000E+00 0.  1.
         14    1    3    3    0    0  0.21619099956E+02 -0.33787713827E+02 -0.29865820066E+02  0.50009622042E+02  0.00000000000E+00 0. -1.
         11    1    5    5    0    0  0.10257904339E+03 -0.73772683319E+02  0.96248324436E+03  0.97074139946E+03  0.00000000000E+00 0. -1.
        -12    1    5    5    0    0 -0.21824001139E+02  0.11544632476E+02  0.17605523693E+03  0.17777798518E+03  0.00000000000E+00 0.  1.
          5    1    4    4  501    0 -0.99572930414E+02  0.64500966858E+02  0.23522631452E+03  0.26348441062E+03  0.41800000000E+01 0.  1.
         -5    1    4    4    0  501  0.33664720799E+02  0.11725849741E+02  0.30940959833E+02  0.47388019308E+02  0.41800000000E+01 0.  1.
</event>
<event>
11    1  0.6930157E-009  0.1288373E+03  0.7561462E-02  0.1120706E+00
         22   -1    0    0    0    0  0.00000000000E+00  0.00000000000E+00  0.27389048727E+03  0.27389048727E+03  0.00000000000E+00 0. -1.
         22   -1    0    0    0    0 -0.00000000000E+00 -0.00000000000E+00 -0.21058916755E+04  0.21058916755E+04  0.00000000000E+00 0. -1.
         24    2    1    2    0    0 -0.10844961082E+02  0.28286739129E+02 -0.19233202553E+04  0.19252848917E+04  0.81506789564E+02 0.  0.
         25    2    1    2    0    0 -0.44733600891E+01 -0.50816134523E+02 -0.14848026120E+03  0.20073581306E+03  0.12508472409E+03 0.  0.
        -24    2    1    2    0    0  0.15318321171E+02  0.22529395394E+02  0.23979932836E+03  0.25376145797E+03  0.78415145548E+02 0.  0.
        -13    1    3    3    0    0  0.76798514391E+01  0.66693393902E+01 -0.28671819209E+02  0.30422580804E+02  0.00000000000E+00 0.  1.
         14    1    3    3    0    0 -0.18524812521E+02  0.21617399739E+02 -0.18946484361E+04  0.18948623109E+04  0.00000000000E+00 0. -1.
         13    1    5    5    0    0  0.29216343059E+02  0.17533801598E+01  0.21982516831E+03  0.22176513176E+03  0.00000000000E+00 0. -1.
        -14    1    5    5    0    0 -0.13898021888E+02  0.20776015234E+02  0.19974160054E+02  0.31996326215E+02  0.00000000000E+00 0.  1.
          5    1    4    4  501    0  0.21818548277E+02  0.30228138799E+02 -0.89451392500E+02  0.96999038368E+02  0.41800000000E+01 0. -1.
         -5    1    4    4    0  501 -0.26291908366E+02 -0.81044273322E+02 -0.59028868702E+02  0.10373677469E+03  0.41800000000E+01 0. -1.
</event>
<event>
11    1  0.6930157E-009  0.1735080E+03  0.7561462E-02  0.1075019E+00
         22   -1    0    0    0    0  0.00000000000E+00  0.00000000000E+00  0.26008782884E+04  0.26008782884E+04  0.00000000000E+00 0.  1.
         22   -1    0    0    0    0 -0.00000000000E+00 -0.00000000000E+00 -0.17695716846E+04  0.17695716846E+04  0.00000000000E+00 0. -1.
         24    2    1    2    0    0  0.96534773978E+02  0.20613987434E+02 -0.17395803998E+04  0.17442086632E+04  0.79874865767E+02 0.  0.
         25    2    1    2    0    0 -0.35837179528E+02  0.89274438310E+02  0.22033613137E+03  0.27101678764E+03  0.12509140507E+03 0.  0.
        -24    2    1    2    0    0 -0.60697594450E+02 -0.10988842574E+03  0.23505508723E+04  0.23552245221E+04  0.78952405889E+02 0.  0.
        -13    1    3    3    0    0  0.38820498718E+02  0.47114559472E+02 -0.10228417182E+04  0.10246618922E+04  0.00000000000E+00 0.  1.
         14    1    3    3    0    0  0.57714275260E+02 -0.26500572037E+02 -0.71673868166E+03  0.71954677101E+03  0.00000000000E+00 0. -1.
         13    1    5    5    0    0 -0.47424879754E+02 -0.13315428583E+02  0.95831124368E+03  0.95957639592E+03  0.00000000000E+00 0. -1.
        -14    1    5    5    0    0 -0.13272714696E+02 -0.96572997161E+02  0.13922396286E+04  0.13956481262E+04  0.00000000000E+00 0.  1.
          5    1    4    4  501    0  0.13464896154E+02 -0.26994979989E+02  0.31602200476E+02  0.43888538913E+02  0.41800000000E+01 0.  1.
         -5    1    4    4    0  501 -0.49302075682E+02  0.11626941830E+03  0.18873393089E+03  0.22712824872E+03  0.41800000000E+01 0.  1.
</event>
<event>
11    1  0.6930157E-009  0.2218340E+03  0.7561462E-02  0.1040075E+00
         22   -1    0    0    0    0  0.00000000000E+00  0.00000000000E+00  0.21794271372E+03  0.21794271372E+03  0.00000000000E+00 0.  1.
         22   -1    0    0    0    0 -0.00000000000E+00 -0.00000000000E+00 -0.19065236881E+04  0.19065236881E+04  0.00000000000E+00 0.  1.
         24    2    1    2    0    0  0.12931374556E+03  0.11503936115E+03 -0.13983084377E+04  0.14112610997E+04  0.80220354214E+02 0.  0.
         25    2    1    2    0    0 -0.13419015026E+03 -0.22915327628E+03 -0.42391006283E+03  0.51562309336E+03  0.12509681282E+03 0.  0.
        -24    2    1    2    0    0  0.48764047024E+01  0.11411391513E+03  0.13363752618E+03  0.19758220872E+03  0.90188557190E+02 0.  0.
        -13    1    3    3    0    0  0.12279348839E+03  0.12696690994E+03 -0.13225447869E+04  0.13342876565E+04  0.00000000000E+00 0.  1.
         14    1    3    3    0    0  0.65202571700E+01 -0.11927548792E+02 -0.75763650789E+02  0.76973443177E+02  0.00000000000E+00 0. -1.
         11    1    5    5    0    0  0.15335031488E+02  0.43222546488E+02 -0.93282064297E-01  0.45862407451E+02  0.00000000000E+00 0. -1.
        -12    1    5    5    0    0 -0.10458626785E+02  0.70891368647E+02  0.13373080824E+03  0.15171980127E+03  0.00000000000E+00 0.  1.
          5    1    4    4  501    0 -0.82547418691E+02 -0.19062261985E+03 -0.22390412207E+03  0.30545308611E+03  0.41800000000E+01 0.  1.
         -5    1    4    4    0  501 -0.51642731568E+02 -0.38530656428E+02 -0.20000594076E+03  0.21017000725E+03  0.41800000000E+01 0.  1.
</event>
<event>
11    1  0.6930157E-009  0.1639728E+03  0.7561462E-02  0.1083399E+00
         22   -1    0    0    0    0  0.00000000000E+00  0.00000000000E+00  0.37321638209E+03  0.37321638209E+03  0.00000000000E+00 0.  1.
         22   -1    0    0    0    0 -0.00000000000E+00 -0.00000000000E+00 -0.40267434878E+03  0.40267434878E+03  0.00000000000E+00 0.  1.
        -24    2    1    2    0    0  0.18218477526E+02  0.20178612213E+02 -0.31419505109E+03  0.32558176847E+03  0.80906541852E+02 0.  0.
         25    2    1    2    0    0 -0.97819833368E+02 -0.81821538818E+02  0.54036793835E+02  0.18663295000E+03  0.12509356068E+03 0.  0.
         24    2    1    2    0    0  0.79601355843E+02  0.61642926605E+02  0.23070029056E+03  0.26367601240E+03  0.78525086411E+02 0.  0.
        -11    1    5    5    0    0  0.88982731754E+02  0.50624173144E+02  0.22657166422E+03  0.24862713545E+03  0.00000000000E+00 0.  1.
         12    1    5    5    0    0 -0.93813759114E+01  0.11018753461E+02  0.41286263455E+01  0.15048876946E+02  0.00000000000E+00 0. -1.
         13    1    3    3    0    0 -0.12125068362E+02 -0.24468695144E+02 -0.63204218261E+02  0.68851343711E+02  0.00000000000E+00 0. -1.
        -14    1    3    3    0    0  0.30343545888E+02  0.44647307357E+02 -0.25099083283E+03  0.25673042475E+03  0.00000000000E+00 0.  1.
          5    1    4    4  501    0  0.88323453021E+01 -0.52003903947E+02 -0.16309443141E+02  0.55370449563E+02  0.41800000000E+01 0. -1.
         -5    1    4    4    0  501 -0.10665217867E+03 -0.29817634871E+02  0.70346236975E+02  0.13126250044E+03  0.41800000000E+01 0. -1.
</event>
<event>
11    1  0.6930157E-009  0.1415009E+03  0.7561462E-02  0.1105894E+00
         22   -1    0    0    0    0  0.00000000000E+00  0.00000000000E+00  0.10412329275E+04  0.10412329275E+04  0.00000000000E+00 0. -1.
         22   -1    0    0    0    0 -0.00000000000E+00 -0.00000000000E+00 -0.20476182547E+03  0.20476182547E+03  0.00000000000E+00 0. -1.
         24    2    1    2    0    0  0.79418516349E+02 -0.96811022146E+01 -0.11823864423E+03  0.16398116949E+03  0.80674794574E+02 0.  0.
         25    2    1    2    0    0 -0.26388941588E+02 -0.16224135035E+02  0.70891818432E+01  0.12905604462E+03  0.12508240228E+03 0.  0.
        -24    2    1    2    0    0 -0.53029574761E+02  0.25905237250E+02  0.94762056439E+03  0.95295753883E+03  0.81609556022E+02 0.  0.
        -11    1    3    3    0    0 -0.14641270398E+02  0.97124113332E+01 -0.19144088316E+02  0.25984492495E+02  0.00000000000E+00 0.  1.
         12    1    3    3    0    0  0.94059786747E+02 -0.19393513548E+02 -0.99094555912E+02  0.13799667700E+03  0.00000000000E+00 0. -1.
         13    1    5    5    0    0 -0.55794857481E+02  0.17973500226E+02  0.32271711576E+03  0.32799763663E+03  0.00000000000E+00 0. -1.
        -14    1    5    5    0    0  0.27652827193E+01  0.79317370240E+01  0.62490344864E+03  0.62495990220E+03  0.00000000000E+00 0.  1.
          5    1    4    4  501    0 -0.45277281142E+02  0.17215753659E+02 -0.43611974091E+02  0.65313789094E+02  0.41800000000E+01 0.  1.
         -5    1    4    4    0  501  0.18888339554E+02 -0.33439888694E+02  0.50701155934E+02  0.63742255530E+02  0.41800000000E+01 0.  1.
</event>
<event>
11    1  0.6930157E-009  0.1735686E+03  0.7561462E-02  0.1074967E+00
         22   -1    0    0    0    0  0.00000000000E+00  0.00000000000E+00  0.15130857366E+04  0.15130857366E+04  0.00000000000E+00 0. -1.
         22   -1    0    0    0    0 -0.00000000000E+00 -0.00000000000E+00 -0.14399806908E+04  0.14399806908E+04  0.00000000000E+00 0.  1.
        -24    2    1    2    0    0 -0.10585794093E+03 -0.55972062694E+02 -0.13783173613E+04  0.13858164353E+04  0.79935400420E+02 0.  0.
         25    2    1    2    0    0  0.16889922529E+03  0.21254242069E+01  0.14403888522E+03  0.25481077676E+03  0.12509942353E+03 0.  0.
         24    2    1    2    0    0 -0.63041284357E+02  0.53846638487E+02  0.13073835219E+04  0.13124392154E+04  0.79820780197E+02 0.  0.
        -11    1    5    5    0    0 -0.78511094748E+01 -0.17693409845E+02  0.42526312688E+03  0.42570344579E+03  0.00000000000E+00 0.  1.
         12    1    5    5    0    0 -0.55190174882E+02  0.71540048332E+02  0.88212039498E+03  0.88673576964E+03  0.00000000000E+00 0. -1.
         11    1    3    3    0    0 -0.89678027816E+01 -0.18541683735E+02 -0.60456679342E+02  0.63868815548E+02  0.00000000000E+00 0. -1.
        -12    1    3    3    0    0 -0.96890138153E+02 -0.37430378959E+02 -0.13178606820E+04  0.13219476197E+04  0.00000000000E+00 0.  1.
          5    1    4    4  501    0  0.12203985572E+03 -0.36128944884E+02  0.38401876447E+02  0.13300828379E+03  0.41800000000E+01 0. -1.
         -5    1    4    4    0  501  0.46859369569E+02  0.38254369090E+02  0.10563700877E+03  0.12180249297E+03  0.41800000000E+01 0. -1.
</event>
<event>
11    1  0.6930157E-009  0.3360452E+03  0.7561462E-02  0.9859937E-01
         22   -1    0    0    0    0  0.00000000000E+00  0.00000000000E+00  0.81777571105E+03  0.81777571105E+03  0.00000000000E+00 0.  1.
         22   -1    0    0    0    0 -0.00000000000E+00 -0.00000000000E+00 -0.81126520906E+03  0.81126520906E+03  0.00000000000E+00 0.  1.
        -24    2    1    2    0    0  0.23211237019E+03  0.20992226395E+03 -0.70185667667E+03  0.77261397833E+03  0.79912800181E+02 0.  0.
         25    2    1    2    0    0 -0.20195817931E+03 -0.22421291332E+03  0.31606379526E+03  0.45453553002E+03  0.12509072180E+03 0.  0.
         24    2    1    2    0    0 -0.30154190877E+02  0.14290649374E+02  0.39230338341E+03  0.40189141176E+03  0.80630418113E+02 0.  0.
        -13    1    5    5    0    0 -0.22023370660E+02  0.20749719268E+02  0.39010550400E+03  0.39127724692E+03  0.00000000000E+00 0.  1.
         14    1    5    5    0    0 -0.81308202173E+01 -0.64590698941E+01  0.21978794041E+01  0.10614164837E+02  0.00000000000E+00 0. -1.
         11    1    3    3    0    0  0.21056535339E+02 -0.38393335092E+01 -0.65701059591E+02  0.69099546986E+02  0.00000000000E+00 0. -1.
        -12    1    3    3    0    0  0.21105583485E+03  0.21376159746E+03 -0.63615561708E+03  0.70351443135E+03  0.00000000000E+00 0.  1.
          5    1    4    4  501    0 -0.83729588010E+02 -0.63300946888E+02  0.37014454057E+02  0.11137861552E+03  0.41800000000E+01 0.  1.
         -5    1    4    4    0  501 -0.11822859130E+03 -0.16091196644E+03  0.27904934120E+03  0.34315691450E+03  0.41800000000E+01 0.  1.
</event>
<event>
11    1  0.6930157E-009  0.1564097E+03  0.7561462E-02  0.1090504E+00
         22   -1    0    0    0    0  0.00000000000E+00  0.00000000000E+00  0.11968629796E+04  0.11968629796E+04  0.00000000000E+00 0. -1.
         22   -1    0    0    0    0 -0.00000000000E+00 -0.00000000000E+00 -0.80567070148E+03  0.80567070148E+03  0.00000000000E+00 0.  1.
         24    2    1    2    0    0 -0.17382403320E+02  0.36942083087E+01 -0.76802006683E+03  0.77120594214E+03  0.67734680985E+02 0.  0.
         25    2    1    2    0    0  0.10142752302E+03  0.34745743164E+02  0.17758597248E+03  0.24223519365E+03  0.12508518030E+03 0.  0.
        -24    2    1    2    0    0 -0.84045119704E+02 -0.38439951473E+02  0.98162637250E+03  0.98909254530E+03  0.78565361137E+02 0.  0.
        -11    1    3    3    0    0 -0.26350287442E+01 -0.25512519956E+02 -0.56366155182E+03  0.56424478469E+03  0.00000000000E+00 0.  1.
         12    1    3    3    0    0 -0.14747374576E+02  0.29206728265E+02 -0.20435851502E+03  0.20696115745E+03  0.00000000000E+00 0. -1.
         11    1    5    5    0    0 -0.32705236246E+01 -0.40355683661E+02  0.33503010938E+03  0.33746770471E+03  0.00000000000E+00 0. -1.
        -12    1    5    5    0    0 -0.80774596079E+02  0.19157321881E+01  0.64659626311E+03  0.65162484059E+03  0.00000000000E+00 0.  1.
          5    1    4    4  501    0  0.14103362669E+02  0.21694304769E+02  0.14605268750E+03  0.14838600886E+03  0.41800000000E+01 0. -1.
         -5    1    4    4    0  501  0.87324160355E+02  0.13051438396E+02  0.31533284973E+02  0.93849184797E+02  0.41800000000E+01 0. -1.
</event>
<event>
11    1  0.6930157E-009  0.1357813E+03  0.7561462E-02  0.1112363E+00
         22   -1    0    0    0    0  0.00000000000E+00  0.00000000000E+00  0.28324641994E+04  0.28324641994E+04  0.00000000000E+00 0. -1.
         22   -1    0    0    0    0 -0.00000000000E+00 -0.00000000000E+00 -0.38185464264E+02  0.38185464264E+02  0.00000000000E+00 0.  1.
         24    2    1    2    0    0 -0.10545945783E+02  0.53136175213E+02  0.11450984050E+03  0.14965430652E+03  0.79682104646E+02 0.  0.
         25    2    1    2    0    0  0.58877179648E+02 -0.30325884810E+02  0.23343882613E+03  0.27299751635E+03  0.12509107408E+03 0.  0.
        -24    2    1    2    0    0 -0.48331233865E+02 -0.22810290403E+02  0.24463300685E+04  0.24479978408E+04  0.72845088557E+02 0.  0.
        -13    1    3    3    0    0 -0.16537829211E+02  0.50857042919E+02  0.23491567768E+02  0.58410550123E+02  0.00000000000E+00 0.  1.
         14    1    3    3    0    0  0.59918834285E+01  0.22791322941E+01  0.91018272728E+02  0.91243756397E+02  0.00000000000E+00 0. -1.
         13    1    5    5    0    0 -0.24387751883E+02 -0.29289644172E+02  0.22174637482E+04  0.22177912706E+04  0.00000000000E+00 0. -1.
        -14    1    5    5    0    0 -0.23943481982E+02  0.64793537691E+01  0.22886632033E+03  0.23020657014E+03  0.00000000000E+00 0.  1.
          5    1    4    4  501    0 -0.38776503313E+02 -0.76513648725E-01  0.57735167901E+02  0.69673847864E+02  0.41800000000E+01 0. -1.
         -5    1    4    4    0  501  0.97653682961E+02 -0.30249371161E+02  0.17570365823E+03  0.20332366849E+03  0.41800000000E+01 0. -1.
</event>
<event>
11    1  0.6930157E-009  0.1693098E+03  0.7561462E-02  0.1078634E+00
         22   -1    0    0    0    0  0.00000000000E+00  0.00000000000E+00  0.16573585547E+03  0.16573585547E+03  0.00000000000E+00 0.  1.
         22   -1    0    0    0    0 -0.00000000000E+00 -0.00000000000E+00 -0.63402733706E+03  0.63402733706E+03  0.00000000000E+00 0.  1.
        -24    2    1    2    0    0 -0.11998787211E+03  0.20699277605E+02 -0.51701768788E+03  0.53709163508E+03  0.79590108347E+02 0.  0.
         25    2    1    2    0    0  0.53533735291E+02 -0.44066086118E+02 -0.36821318511E+01  0.14306871461E+03  0.12508964084E+03 0.  0.
         24    2    1    2    0    0  0.66454136824E+02  0.23366808513E+02  0.52408338136E+02  0.11960284283E+03  0.81216045624E+02 0.  0.
        -13    1    5    5    0    0  0.60053485420E+02  0.50198412281E+02  0.47583391173E+02  0.91599567806E+02  0.00000000000E+00 0.  1.
         14    1    5    5    0    0  0.64006514034E+01 -0.26831603768E+02  0.48249469627E+01  0.28003275029E+02  0.00000000000E+00 0. -1.
         13    1    3    3    0    0  0.75380629344E+01 -0.90884994342E+01 -0.80228685673E+02  0.81092941860E+02  0.00000000000E+00 0. -1.
        -14    1    3    3    0    0 -0.12752593505E+03  0.29787777039E+02 -0.43678900220E+03  0.45599869322E+03  0.00000000000E+00 0.  1.
          5    1    4    4  501    0  0.59673360636E+02 -0.52136398066E+02  0.46317794974E+02  0.91879946148E+02  0.41800000000E+01 0.  1.
         -5    1    4    4    0  501 -0.61396253454E+01  0.80703119483E+01 -0.49999926825E+02  0.51188768464E+02  0.41800000000E+01 0.  1.
</event>
<event>
11    1  0.6930157E-009  0.1615339E+03  0.7561462E-02  0.1085643E+00
         22   -1    0    0    0    0  0.00000000000E+00  0.00000000000E+00  0.46565874451E+02  0.46565874451E+02  0.00000000000E+00 0.  1.
         22   -1    0    0    0    0 -0.00000000000E+00 -0.00000000000E+00 -0.23469814811E+04  0.23469814811E+04  0.00000000000E+00 0. -1.
         24    2    1    2    0    0 -0.12032023497E+02 -0.12206221672E+02 -0.97662256212E+03  0.98046060247E+03  0.84956475483E+02 0.  0.
         25    2    1    2    0    0 -0.91135884291E+02  0.12426722632E+02 -0.12531555088E+04  0.12627377204E+04  0.12509056150E+03 0.  0.
        -24    2    1    2    0    0  0.10316790779E+03 -0.22050095979E+00 -0.70637535792E+02  0.15034903269E+03  0.83495534904E+02 0.  0.
        -11    1    3    3    0    0 -0.14196622193E+02  0.30483832876E+02 -0.21258112980E+03  0.21522440590E+03  0.00000000000E+00 0.  1.
         12    1    3    3    0    0  0.21645986962E+01 -0.42690054548E+02 -0.76404143232E+03  0.76523619657E+03  0.00000000000E+00 0. -1.
         13    1    5    5    0    0  0.64285057352E+02  0.19087316832E+02 -0.81554929686E+02  0.10558456714E+03  0.00000000000E+00 0. -1.
        -14    1    5    5    0    0  0.38882850436E+02 -0.19307817792E+02  0.10917393895E+02  0.44764465543E+02  0.00000000000E+00 0.  1.
          5    1    4    4  501    0 -0.71423111911E+02 -0.17566268880E+02 -0.30055388533E+03  0.30945103830E+03  0.41800000000E+01 0. -1.
         -5    1    4    4    0  501 -0.19712772380E+02  0.29992991512E+02 -0.95260162343E+03  0.95328668211E+03  0.41800000000E+01 0. -1.
</event>
<event>
11    1  0.6930157E-009  0.1366546E+03  0.7561462E-02  0.1111353E+00
         22   -1    0    0    0    0  0.00000000000E+00  0.00000000000E+00  0.62466861242E+03  0.62466861242E+03  0.00000000000E+00 0.  1.
         22   -1    0    0    0    0 -0.00000000000E+00 -0.00000000000E+00 -0.33247871406E+04  0.33247871406E+04  0.00000000000E+00 0.  1.
         24    2    1    2    0    0  0.53014806806E+02  0.14795937621E+02 -0.32854039903E+04  0.32868167898E+04  0.79093243975E+02 0.  0.
         25    2    1    2    0    0 -0.33354156675E+02 -0.66049454020E+02  0.12244121393E+03  0.19003781085E+03  0.12508992182E+03 0.  0.
        -24    2    1    2    0    0 -0.19660650131E+02  0.51253516398E+02  0.46284424813E+03  0.47260115234E+03  0.78189430586E+02 0.  0.
        -11    1    3    3    0    0  0.40706268045E+02  0.28792101288E+02 -0.31145679290E+04  0.31149669934E+04  0.00000000000E+00 0.  1.
         12    1    3    3    0    0  0.12308538761E+02 -0.13996163667E+02 -0.17083606126E+03  0.17184979648E+03  0.00000000000E+00 0. -1.
         11    1    5    5    0    0 -0.19035111200E+02 -0.17911027702E+02  0.11276797820E+03  0.11575732063E+03  0.00000000000E+00 0. -1.
        -12    1    5    5    0    0 -0.62553893117E+00  0.69164544101E+02  0.35007626993E+03  0.35684383171E+03  0.00000000000E+00 0.  1.
          5    1    4    4  501    0 -0.60278639869E+02  0.12476765828E+02  0.44295936757E+02  0.75952528090E+02  0.41800000000E+01 0. -1.
         -5    1    4    4    0  501  0.26924483195E+02 -0.78526219847E+02  0.78145277173E+02  0.11408528276E+03  0.41800000000E+01 0. -1.
</event>
<event>
11    1  0.6930157E-009  0.1394919E+03  0.7561462E-02  0.1108127E+00
         22   -1    0    0    0    0  0.00000000000E+00  0.00000000000E+00  0.11345339990E+04  0.11345339990E+04  0.00000000000E+00 0. -1.
         22   -1    0    0    0    0 -0.00000000000E+00 -0.00000000000E+00 -0.12346057293E+03  0.12346057293E+03  0.00000000000E+00 0. -1.
        -24    2    1    2    0    0 -0.62758299689E+02 -0.19369406791E+02 -0.82289507625E+02  0.13843429090E+03  0.89881654039E+02 0.  0.
         25    2    1    2    0    0 -0.17185345172E+02  0.28721526264E+02  0.48144623206E+03  0.49855793749E+03  0.12509708432E+03 0.  0.
         24    2    1    2    0    0  0.79943644861E+02 -0.93521194727E+01  0.61191670165E+03  0.62100234357E+03  0.68727086846E+02 0.  0.
        -11    1    5    5    0    0  0.32394380994E+02  0.27566279219E+02  0.18279401234E+03  0.18767777337E+03  0.00000000000E+00 0.  1.
         12    1    5    5    0    0  0.47549263866E+02 -0.36918398691E+02  0.42912268930E+03  0.43332457019E+03  0.00000000000E+00 0. -1.
         11    1    3    3    0    0 -0.52360786275E+02 -0.12650530328E+02 -0.10188925380E+03  0.11525236612E+03  0.00000000000E+00 0. -1.
        -12    1    3    3    0    0 -0.10397513414E+02 -0.67188764630E+01  0.19599746177E+02  0.23181924777E+02  0.00000000000E+00 0.  1.
          5    1    4    4  501    0 -0.62919012523E+02  0.40483475925E+02  0.20921547291E+03  0.22223028701E+03  0.41800000000E+01 0.  1.
         -5    1    4    4    0  501  0.45733667351E+02 -0.11761949661E+02  0.27223075916E+03  0.27632765048E+03  0.41800000000E+01 0.  1.
</event>
<event>
11    1  0.6930157E-009  0.1336518E+03  0.7561462E-02  0.1114862E+00
         22   -1    0    0    0    0  0.00000000000E+00  0.00000000000E+00  0.37579630174E+03  0.37579630174E+03  0.00000000000E+00 0.  1.
         22   -1    0    0    0    0 -0.00000000000E+00 -0.00000000000E+00 -0.73901209554E+03  0.73901209554E+03  0.00000000000E+00 0. -1.
         24    2    1    2    0    0  0.33742378348E+02  0.29238476190E+02 -0.53065863596E+03  0.53684716071E+03  0.67917961200E+02 0.  0.
         25    2    1    2    0    0 -0.62484644333E+02 -0.64894738464E+02 -0.16952077626E+03  0.22912929060E+03  0.12508908973E+03 0.  0.
        -24    2    1    2    0    0  0.28742265985E+02  0.35656262274E+02  0.33696361842E+03  0.34883194597E+03  0.77728755945E+02 0.  0.
        -11    1    3    3    0    0 -0.18230326119E+01  0.40119635463E+02 -0.19219697718E+03  0.19634812613E+03  0.00000000000E+00 0.  1.
         12    1    3    3    0    0  0.35565410960E+02 -0.10881159272E+02 -0.33846165878E+03  0.34049903457E+03  0.00000000000E+00 0. -1.
         13    1    5    5    0    0  0.28869925329E+00  0.12010870986E+02  0.24284608077E+01  0.12257315815E+02  0.00000000000E+00 0. -1.
        -14    1    5    5    0    0  0.28453566732E+02  0.23645391288E+02  0.33453515761E+03  0.33657463016E+03  0.00000000000E+00 0.  1.
          5    1    4    4  501    0 -0.41006486135E+02  0.23557838132E+02 -0.11128845038E+03  0.12099212879E+03  0.41800000000E+01 0. -1.
         -5    1    4    4    0  501 -0.21478158198E+02 -0.88452576595E+02 -0.58232325877E+02  0.10813716180E+03  0.41800000000E+01 0. -1.
</event>
<event>
11    1  0.6930157E-009  0.1503651E+03  0.7561462E-02  0.1096506E+00
         22   -1    0    0    0    0  0.00000000000E+00  0.00000000000E+00  0.14915995829E+03  0.14915995829E+03  0.00000000000E+00 0.  1.
         22   -1    0    0    0    0 -0.00000000000E+00 -0.00000000000E+00 -0.18283060180E+04  0.18283060180E+04  0.00000000000E+00 0.  1.
        -24    2    1    2    0    0  0.81199597417E+02 -0.10307124748E+02 -0.15906274422E+04  0.15947831221E+04  0.80857498785E+02 0.  0.
         25    2    1    2    0    0 -0.10276091104E+03  0.42378842068E+02 -0.18822467152E+03  0.25186021620E+03  0.12509704409E+03 0.  0.
         24    2    1    2    0    0  0.21561313621E+02 -0.32071717320E+02  0.99706054042E+02  0.13082263799E+03  0.75364315829E+02 0.  0.
        -11    1    5    5    0    0  0.10490953297E+01 -0.45932145953E+02  0.95134942141E+02  0.10564809439E+03  0.00000000000E+00 0.  1.
         12    1    5    5    0    0  0.20512218291E+02  0.13860428633E+02  0.45711119004E+01  0.25174543593E+02  0.00000000000E+00 0. -1.
         11    1    3    3    0    0  0.37405768540E+01 -0.30834465111E+02 -0.28220933210E+03  0.28391347850E+03  0.00000000000E+00 0. -1.
        -12    1    3    3    0    0  0.77459020563E+02  0.20527340363E+02 -0.13084181101E+04  0.13108696436E+04  0.00000000000E+00 0.  1.
          5    1    4    4  501    0 -0.50785076577E+02  0.83920806833E+02 -0.90277010903E+02  0.13337629819E+03  0.41800000000E+01 0. -1.
         -5    1    4    4    0  501 -0.51975834461E+02 -0.41541964766E+02 -0.97947660618E+02  0.11848391800E+03  0.41800000000E+01 0. -1.
</event>
<event>
11    1  0.6930157E-009  0.1595655E+03  0.7561462E-02  0.1087487E+00
         22   -1    0    0    0    0  0.00000000000E+00  0.00000000000E+00  0.25978012762E+03  0.25978012762E+03  0.00000000000E+00 0. -1.
         22   -1    0    0    0    0 -0.00000000000E+00 -0.00000000000E+00 -0.15859879299E+04  0.15859879299E+04  0.00000000000E+00 0. -1.
        -24    2    1    2    0    0  0.96543708425E+02  0.14655882052E+02 -0.13303321312E+04  0.13363838357E+04  0.81256966744E+02 0.  0.
         25    2    1    2    0    0 -0.11768709541E+03  0.24099006288E+02 -0.21198002341E+03  0.27388750267E+03  0.12509124376E+03 0.  0.
         24    2    1    2    0    0  0.21143386981E+02 -0.38754888341E+02  0.21610435229E+03  0.23549671914E+03  0.82514419719E+02 0.  0.
        -13    1    5    5    0    0  0.20223574858E+02 -0.58667801487E+02  0.99973005106E+02  0.11766692680E+03  0.00000000000E+00 0.  1.
         14    1    5    5    0    0  0.91981212293E+00  0.19912913147E+02  0.11613134718E+03  0.11782979234E+03  0.00000000000E+00 0. -1.
         11    1    3    3    0    0  0.64815725586E+02 -0.26076457923E+01 -0.11796767675E+04  0.11814589091E+04  0.00000000000E+00 0. -1.
        -12    1    3    3    0    0  0.31727982839E+02  0.17263527845E+02 -0.15065536371E+03  0.15492492667E+03  0.00000000000E+00 0.  1.
          5    1    4    4  501    0 -0.11809195628E+03  0.10257319725E+02 -0.22504959007E+03  0.25439283232E+03  0.41800000000E+01 0. -1.
         -5    1    4    4    0  501  0.40486087485E+00  0.13841686564E+02  0.13069566661E+02  0.19494670347E+02  0.41800000000E+01 0. -1.
</event>
<event>
11    1  0.6930157E-009  0.1472695E+03  0.7561462E-02  0.1099702E+00
         22   -1    0    0    0    0  0.00000000000E+00  0.00000000000E+00  0.10365078738E+03  0.10365078738E+03  0.00000000000E+00 0.  1.
         22   -1    0    0    0    0 -0.00000000000E+00 -0.00000000000E+00 -0.29931531536E+04  0.29931531536E+04  0.00000000000E+00 0. -1.
        -24    2    1    2    0    0 -0.47165176604E+01 -0.63397275903E+02 -0.22457702558E+04  0.22481632742E+04  0.81930489803E+02 0.  0.
         25    2    1    2    0    0 -0.40549863065E+02  0.12375621432E+03 -0.69975156740E+03  0.72267603202E+03  0.12509396148E+03 0.  0.
         24    2    1    2    0    0  0.45266380725E+02 -0.60358938418E+02  0.56019456962E+02  0.12596463484E+03  0.83884819854E+02 0.  0.
        -13    1    5    5    0    0  0.26490359330E+02 -0.23607109509E+02  0.73133349076E+02  0.81286662521E+02  0.00000000000E+00 0.  1.
         14    1    5    5    0    0  0.18776021395E+02 -0.36751828908E+02 -0.17113892113E+02  0.44677972322E+02  0.00000000000E+00 0. -1.
         13    1    3    3    0    0 -0.16260493431E+02  0.52377400302E+01 -0.11796208997E+04  0.11797445930E+04  0.00000000000E+00 0. -1.
        -14    1    3    3    0    0  0.11543975771E+02 -0.68635015933E+02 -0.10661493561E+04  0.10684186812E+04  0.00000000000E+00 0.  1.
          5    1    4    4  501    0  0.12892517516E+02  0.11700574569E+03 -0.57143952951E+03  0.58345279999E+03  0.41800000000E+01 0. -1.
         -5    1    4    4    0  501 -0.53442380581E+02  0.67504686347E+01 -0.12831203790E+03  0.13922323203E+03  0.41800000000E+01 0. -1.
</event>
<event>
11    1  0.6930157E-009  0.1286006E+03  0.7561462E-02  0.1121000E+00
         22   -1    0    0    0    0  0.00000000000E+00  0.00000000000E+00  0.26069085358E+03  0.26069085358E+03  0.00000000000E+00 0.  1.
         22   -1    0    0    0    0 -0.00000000000E+00 -0.00000000000E+00 -0.68479411438E+03  0.68479411438E+03  0.00000000000E+00 0.  1.
         24    2    1    2    0    0  0.26292163372E+02  0.12355248555E+02 -0.59353508127E+03  0.59889433166E+03  0.74475484390E+02 0.  0.
         25    2    1    2    0    0 -0.26678255237E+02  0.18670412886E+02 -0.25668796341E+02  0.13178452024E+03  0.12509180249E+03 0.  0.
        -24    2    1    2    0    0  0.38609186562E+00 -0.31025661441E+02  0.19510061681E+03  0.21480611605E+03  0.84348539290E+02 0.  0.
        -13    1    3    3    0    0 -0.11084189720E+00 -0.19525336286E+02 -0.42139662662E+03  0.42184875011E+03  0.00000000000E+00 0.  1.
         14    1    3    3    0    0  0.26403005269E+02  0.31880584841E+02 -0.17213845464E+03  0.17704558154E+03  0.00000000000E+00 0. -1.
         13    1    5    5    0    0 -0.41960502172E+01  0.83352166851E+01 -0.51594244410E+01  0.10663129708E+02  0.00000000000E+00 0. -1.
        -14    1    5    5    0    0  0.45821420828E+01 -0.39360878126E+02  0.20026004125E+03  0.20414298634E+03  0.00000000000E+00 0.  1.
          5    1    4    4  501    0 -0.16727574860E+02  0.64304588279E+02 -0.45742120270E+02  0.80775651042E+02  0.41800000000E+01 0. -1.
         -5    1    4    4    0  501 -0.99506803776E+01 -0.45634175393E+02  0.20073323929E+02  0.51008869202E+02  0.41800000000E+01 0. -1.
</event>
<event>
11    1  0.6930157E-009  0.1677665E+03  0.7561462E-02  0.1079992E+00
         22   -1    0    0    0    0  0.00000000000E+00  0.00000000000E+00  0.41087153928E+03  0.41087153928E+03  0.00000000000E+00 0.  1.
         22   -1    0    0    0    0 -0.00000000000E+00 -0.00000000000E+00 -0.13190419148E+04  0.13190419148E+04  0.00000000000E+00 0.  1.
        -24    2    1    2    0    0  0.26725627171E+02 -0.54617342078E+01 -0.12214619246E+04  0.12245445705E+04  0.82438354267E+02 0.  0.
         25    2    1    2    0    0 -0.25447739776E+02 -0.10714075760E+03  0.43183763903E+01  0.16671200471E+03  0.12509002653E+03 0.  0.
         24    2    1    2    0    0 -0.12778873951E+01  0.11260249181E+03  0.30897317267E+03  0.33865687887E+03  0.80889467886E+02 0.  0.
        -11    1    5    5    0    0 -0.16848382255E+02  0.94974658061E+02  0.15263096948E+03  0.18055543886E+03  0.00000000000E+00 0.  1.
         12    1    5    5    0    0  0.15570494860E+02  0.17627833752E+02  0.15634220319E+03  0.15810144000E+03  0.00000000000E+00 0. -1.
         13    1    3    3    0    0  0.31092669587E+02  0.17942814961E+02 -0.22896290560E+03  0.23176002859E+03  0.00000000000E+00 0. -1.
        -14    1    3    3    0    0 -0.43670424160E+01 -0.23404549169E+02 -0.99249901896E+03  0.99278454189E+03  0.00000000000E+00 0.  1.
          5    1    4    4  501    0  0.43874997339E+02 -0.80084463708E+02  0.10033890683E+02  0.91960252725E+02  0.41800000000E+01 0. -1.
         -5    1    4    4    0  501 -0.69322737115E+02 -0.27056293897E+02 -0.57155142932E+01  0.74751751981E+02  0.41800000000E+01 0. -1.
</event>
<event>
11    1  0.6930157E-009  0.1742880E+03  0.7561462E-02  0.1074359E+00
         22   -1    0    0    0    0  0.00000000000E+00  0.00000000000E+00  0.34504361129E+03  0.34504361129E+03  0.00000000000E+00 0. -1.
         22   -1    0    0    0    0 -0.00000000000E+00 -0.00000000000E+00 -0.97745873879E+03  0.97745873879E+03  0.00000000000E+00 0.  1.
         24    2    1    2    0    0 -0.86864347211E+01  0.41618540751E+02 -0.85679250618E+03  0.86159835866E+03  0.80316722504E+02 0.  0.
         25    2    1    2    0    0  0.93185818105E+02  0.51432325389E+02 -0.27462797674E+02  0.16652691183E+03  0.12509247107E+03 0.  0.
        -24    2    1    2    0    0 -0.84499383384E+02 -0.93050866140E+02  0.25184017636E+03  0.29437707959E+03  0.86230975140E+02 0.  0.
        -13    1    3    3    0    0  0.11104895110E+02  0.60943253097E+01 -0.68277784764E+03  0.68289534244E+03  0.00000000000E+00 0.  1.
         14    1    3    3    0    0 -0.19791329831E+02  0.35524215441E+02 -0.17401465854E+03  0.17870301622E+03  0.00000000000E+00 0. -1.
         13    1    5    5    0    0 -0.67041263310E+02 -0.68784780762E+02  0.96383346916E+02  0.13607213753E+03  0.00000000000E+00 0. -1.
        -14    1    5    5    0    0 -0.17458120074E+02 -0.24266085378E+02  0.15545682945E+03  0.15830494205E+03  0.00000000000E+00 0.  1.
          5    1    4    4  501    0  0.10705271497E+03  0.24769117140E+02  0.18446123355E+02  0.11149674799E+03  0.41800000000E+01 0.  1.
         -5    1    4    4    0  501 -0.13866896861E+02  0.26663208249E+02 -0.45908921029E+02  0.55030163844E+02  0.41800000000E+01 0.  1.
</event>
<event>
11    1  0.6930157E-009  0.1686636E+03  0.7561462E-02  0.1079201E+00
         22   -1    0    0    0    0  0.00000000000E+00  0.00000000000E+00  0.47196655284E+03  0.47196655284E+03  0.00000000000E+00 0.  1.
         22   -1    0    0    0    0 -0.00000000000E+00 -0.00000000000E+00 -0.25177500432E+04  0.25177500432E+04  0.00000000000E+00 0. -1.
        -24    2    1    2    0    0  0.15964451929E+02 -0.11422458692E+03 -0.23719541470E+04  0.23760505009E+04  0.78405278569E+02 0.  0.
         25    2    1    2    0    0  0.96442706986E+01  0.74029413259E+02 -0.10045777079E+03  0.17695433923E+03  0.12509080092E+03 0.  0.
         24    2    1    2    0    0 -0.25608722627E+02  0.40195173665E+02  0.42662842746E+03  0.43671175582E+03  0.80211494761E+02 0.  0.
        -13    1    5    5    0    0 -0.23311501570E+01  0.96126563711E+01  0.35734731683E+03  0.35748418465E+03  0.00000000000E+00 0.  1.
         14    1    5    5    0    0 -0.23277572470E+02  0.30582517294E+02  0.69281110624E+02  0.79227571170E+02  0.00000000000E+00 0. -1.
         13    1    3    3    0    0 -0.18385635122E+02 -0.77383921294E+02 -0.18396065921E+04  0.18413252609E+04  0.00000000000E+00 0. -1.
        -14    1    3    3    0    0  0.34350087051E+02 -0.36840665631E+02 -0.53234755487E+03  0.53472524001E+03  0.00000000000E+00 0.  1.
          5    1    4    4  501    0 -0.66452767708E+01 -0.85334184547E+01 -0.91488196964E+02  0.92220071121E+02  0.41800000000E+01 0.  1.
         -5    1    4    4    0  501  0.16289547469E+02  0.82562831714E+02 -0.89695738291E+01  0.84734268109E+02  0.41800000000E+01 0.  1.
</event>
<event>
11    1  0.6930157E-009  0.1437671E+03  0.7561462E-02  0.1103423E+00
         22   -1    0    0    0    0  0.00000000000E+00  0.00000000000E+00  0.99639911558E+03  0.99639911558E+03  0.00000000000E+00 0.  1.
         22   -1    0    0    0    0 -0.00000000000E+00 -0.00000000000E+00 -0.23796616619E+03  0.23796616619E+03  0.00000000000E+00 0.  1.
         24    2    1    2    0    0  0.32904390709E+02 -0.61893335471E+02 -0.19037232174E+03  0.21919079525E+03  0.83003011598E+02 0.  0.
         25    2    1    2    0    0  0.11514510570E+02  0.97599358887E+02  0.18010755165E+03  0.24029783262E+03  0.12508436909E+03 0.  0.
        -24    2    1    2    0    0 -0.44418901279E+02 -0.35706023416E+02  0.76869771947E+03  0.77487665390E+03  0.79307540247E+02 0.  0.
        -13    1    3    3    0    0  0.20544991745E+02 -0.67461155722E+02 -0.19291357885E+03  0.20539900955E+03  0.00000000000E+00 0.  1.
         14    1    3    3    0    0  0.12359398963E+02  0.55678202507E+01  0.25412571162E+01  0.13791785701E+02  0.00000000000E+00 0. -1.
         13    1    5    5    0    0  0.10062837038E+01  0.23225320921E+02  0.18700160164E+03  0.18844104424E+03  0.00000000000E+00 0. -1.
        -14    1    5    5    0    0 -0.45425184982E+02 -0.58931344337E+02  0.58169611783E+03  0.58643560966E+03  0.00000000000E+00 0.  1.
          5    1    4    4  501    0  0.30702440440E-01  0.11246627940E+03  0.79315082235E+02  0.13768449301E+03  0.41800000000E+01 0. -1.
         -5    1    4    4    0  501  0.11483808130E+02 -0.14866920516E+02  0.10079246942E+03  0.10261333961E+03  0.41800000000E+01 0. -1.
</event>
<event>
11    1  0.6930157E-009  0.1539316E+03  0.7561462E-02  0.1092928E+00
         22   -1    0    0    0    0  0.00000000000E+00  0.00000000000E+00  0.43053572101E+03  0.43053572101E+03  0.00000000000E+00 0. -1.
         22   -1    0    0    0    0 -0.00000000000E+00 -0.00000000000E+00 -0.11507385305E+04  0.11507385305E+04  0.00000000000E+00 0.  1.
         24    2    1    2    0    0 -0.42337021483E+02  0.74035562760E+01 -0.10913050789E+04  0.10951522769E+04  0.81021591132E+02 0.  0.
         25    2    1    2    0    0 -0.44942672678E+02 -0.50162100272E+02  0.67675681760E+02  0.15736429551E+03  0.12508974166E+03 0.  0.
        -24    2    1    2    0    0  0.87279694160E+02  0.42758543996E+02  0.30342658768E+03  0.32875767912E+03  0.81042454131E+02 0.  0.
        -11    1    3    3    0    0 -0.34913408509E+02 -0.29362570157E+02 -0.81983772371E+03  0.82110596139E+03  0.00000000000E+00 0.  1.
         12    1    3    3    0    0 -0.74236129733E+01  0.36766126433E+02 -0.27146735522E+03  0.27404631549E+03  0.00000000000E+00 0. -1.
         11    1    5    5    0    0  0.74151792813E+02 -0.60793441764E+01  0.20530901142E+03  0.21837407578E+03  0.00000000000E+00 0. -1.
        -12    1    5    5    0    0  0.13127901348E+02  0.48837888172E+02  0.98117576263E+02  0.11038360334E+03  0.00000000000E+00 0.  1.
          5    1    4    4  501    0 -0.60426585166E+02 -0.81416899134E+01  0.88699622458E+02  0.10771608391E+03  0.41800000000E+01 0.  1.
         -5    1    4    4    0  501  0.15483912489E+02 -0.42020410358E+02 -0.21023940697E+02  0.49648211600E+02  0.41800000000E+01 0.  1.
</event>
<event>
11    1  0.6930157E-009  0.1507512E+03  0.7561462E-02  0.1096114E+00
         22   -1    0    0    0    0  0.00000000000E+00  0.00000000000E+00  0.14349777431E+04  0.14349777431E+04  0.00000000000E+00 0. -1.
         22   -1    0    0    0    0 -0.00000000000E+00 -0.00000000000E+00 -0.51441537046E+03  0.51441537046E+03  0.00000000000E+00 0.  1.
         24    2    1    2    0    0 -0.37723032888E+02 -0.22259947000E+02 -0.49261483966E+03  0.50269362929E+03  0.90072039080E+02 0.  0.
         25    2    1    2    0    0 -0.25742342782E+02 -0.45386079308E+02  0.33197856312E+03  0.35858358301E+03  0.12509938140E+03 0.  0.
        -24    2    1    2    0    0  0.63465375670E+02  0.67646026307E+02  0.10811986492E+04  0.10881159013E+04  0.80011604115E+02 0.  0.
        -11    1    3    3    0    0  0.11121411149E+01 -0.43503221049E+02 -0.36571248707E+03  0.36829253359E+03  0.00000000000E+00 0.  1.
         12    1    3    3    0    0 -0.38835174003E+02  0.21243274049E+02 -0.12690235259E+03  0.13440109570E+03  0.00000000000E+00 0. -1.
         13    1    5    5    0    0  0.52973779259E+02  0.35628510288E+02  0.96557749328E+03  0.96768564501E+03  0.00000000000E+00 0. -1.
        -14    1    5    5    0    0  0.10491596411E+02  0.32017516019E+02  0.11562115591E+03  0.12043025626E+03  0.00000000000E+00 0.  1.
          5    1    4    4  501    0 -0.52400562216E+02  0.26413878111E+02  0.14643481938E+03  0.15781045784E+03  0.41800000000E+01 0.  1.
         -5    1    4    4    0  501  0.26658219434E+02 -0.71799957418E+02  0.18554374374E+03  0.20077312517E+03  0.41800000000E+01 0.  1.
</event>
<event>
11    1  0.6930157E-009  0.1305013E+03  0.7561462E-02  0.1118655E+00
         22   -1    0    0    0    0  0.00000000000E+00  0.00000000000E+00  0.72147404318E+03  0.72147404318E+03  0.00000000000E+00 0. -1.
         22   -1    0    0    0    0 -0.00000000000E+00 -0.00000000000E+00 -0.66681625303E+03  0.66681625303E+03  0.00000000000E+00 0.  1.
         24    2    1    2    0    0  0.27355218962E+02 -0.25069932301E+02 -0.64564863131E+03  0.65167437617E+03  0.80252899821E+02 0.  0.
         25    2    1    2    0    0 -0.40808603276E+02  0.32421685447E+02  0.53390475019E+03  0.55083433131E+03  0.12509064907E+03 0.  0.
        -24    2    1    2    0    0  0.13453384315E+02 -0.73517531459E+01  0.16640167127E+03  0.18578158873E+03  0.81180297404E+02 0.  0.
        -13    1    3    3    0    0  0.51437005137E+02  0.27933347998E+01 -0.38962933640E+03  0.39301983156E+03  0.00000000000E+00 0.  1.
         14    1    3    3    0    0 -0.24081786175E+02 -0.27863267101E+02 -0.25601929492E+03  0.25865454461E+03  0.00000000000E+00 0. -1.
         13    1    5    5    0    0  0.24046950444E+02 -0.65171621110E+01  0.17198324718E+03  0.17377849849E+03  0.00000000000E+00 0. -1.
        -14    1    5    5    0    0 -0.10593566129E+02 -0.83459103492E+00 -0.55815759145E+01  0.12003090236E+02  0.00000000000E+00 0.  1.
          5    1    4    4  501    0 -0.30625289243E+02  0.25515864605E+02  0.53615088581E+03  0.53764692173E+03  0.41800000000E+01 0.  1.
         -5    1    4    4    0  501 -0.10183314033E+02  0.69058208422E+01 -0.22461356210E+01  0.13187409580E+02  0.41800000000E+01 0.  1.
</event>
<event>
11    1  0.6930157E-009  0.1593754E+03  0.7561462E-02  0.1087666E+00
         22   -1    0    0    0    0  0.00000000000E+00  0.00000000000E+00  0.62081477475E+02  0.62081477475E+02  0.00000000000E+00 0. -1.
         22   -1    0    0    0    0 -0.00000000000E+00 -0.00000000000E+00 -0.60596902296E+03  0.60596902296E+03  0.00000000000E+00 0.  1.
        -24    2    1    2    0    0 -0.72199363880E+01  0.84185943756E+02 -0.20076143505E+03  0.23280340679E+03  0.82175858987E+02 0.  0.
         25    2    1    2    0    0 -0.32095643453E+02 -0.11233939887E+03 -0.19196631541E+03  0.25719438072E+03  0.12509041671E+03 0.  0.
         24    2    1    2    0    0  0.39315579841E+02  0.28153455117E+02 -0.15115979502E+03  0.17805271292E+03  0.80716498296E+02 0.  0.
        -11    1    5    5    0    0  0.28889843384E+02 -0.12322892806E+02 -0.12467570070E+03  0.12857101960E+03  0.00000000000E+00 0.  1.
         12    1    5    5    0    0  0.10425736457E+02  0.40476347923E+02 -0.26484094318E+02  0.49481693319E+02  0.00000000000E+00 0. -1.
         11    1    3    3    0    0 -0.83882675737E+01  0.87866437785E+02 -0.10589001496E+03  0.13785343373E+03  0.00000000000E+00 0. -1.
        -12    1    3    3    0    0  0.11683311857E+01 -0.36804940283E+01 -0.94871420095E+02  0.94949973064E+02  0.00000000000E+00 0.  1.
          5    1    4    4  501    0  0.20720014524E+02 -0.71797477508E+02 -0.17196708800E+03  0.18754825654E+03  0.41800000000E+01 0. -1.
         -5    1    4    4    0  501 -0.52815657977E+02 -0.40541921365E+02 -0.19999227416E+02  0.69646124176E+02  0.41800000000E+01 0. -1.
</event>
<event>
11    1  0.6930157E-009  0.2062774E+03  0.7561462E-02  0.1050171E+00
         22   -1    0    0    0    0  0.00000000000E+00  0.00000000000E+00  0.92527026429E+03  0.92527026429E+03  0.00000000000E+00 0.  1.
         22   -1    0    0    0    0 -0.00000000000E+00 -0.00000000000E+00 -0.31456782708E+03  0.31456782708E+03  0.00000000000E+00 0.  1.
         24    2    1    2    0    0  0.55639254659E+01  0.49520754753E+02 -0.25811836030E+03  0.27882075928E+03  0.92912138423E+02 0.  0.
         25    2    1    2    0    0 -0.16171143469E+03  0.19236362314E+02  0.59809662517E+03  0.63236661677E+03  0.12508932498E+03 0.  0.
        -24    2    1    2    0    0  0.15614750922E+03 -0.68757117067E+02  0.27072417234E+03  0.32865071531E+03  0.74900797072E+02 0.  0.
        -11    1    3    3    0    0  0.34656431840E+02  0.61556556713E+02 -0.20765049940E+03  0.21933765715E+03  0.00000000000E+00 0.  1.
         12    1    3    3    0    0 -0.29092506374E+02 -0.12035801960E+02 -0.50467860894E+02  0.59483102131E+02  0.00000000000E+00 0. -1.
         13    1    5    5    0    0  0.15232763578E+02 -0.33838852475E+02  0.30815019614E+02  0.48235572525E+02  0.00000000000E+00 0. -1.
        -14    1    5    5    0    0  0.14091474564E+03 -0.34918264592E+02  0.23990915273E+03  0.28041514279E+03  0.00000000000E+00 0.  1.
          5    1    4    4  501    0 -0.12079612843E+03  0.60200957968E+02  0.30465707428E+03  0.33324055169E+03  0.41800000000E+01 0. -1.
         -5    1    4    4    0  501 -0.40915306257E+02 -0.40964595653E+02  0.29343955089E+03  0.29912606508E+03  0.41800000000E+01 0. -1.
</event>
<event>
11    1  0.6930157E-009  0.2046557E+03  0.7561462E-02  0.1051279E+00
         22   -1    0    0    0    0  0.00000000000E+00  0.00000000000E+00  0.82286276971E+03  0.82286276971E+03  0.00000000000E+00 0.  1.
         22   -1    0    0    0    0 -0.00000000000E+00 -0.00000000000E+00 -0.72693152884E+03  0.72693152884E+03  0.00000000000E+00 0. -1.
        -24    2    1    2    0    0 -0.81783861962E+02 -0.29662305500E+02 -0.64996576295E+03  0.66049525102E+03  0.78930546526E+02 0.  0.
         25    2    1    2    0    0 -0.91703744060E+02  0.59255301905E+02  0.60142223475E+02  0.17659098264E+03  0.12508605289E+03 0.  0.
         24    2    1    2    0    0  0.17348760602E+03 -0.29592996405E+02  0.68575478034E+03  0.71270806489E+03  0.81972386314E+02 0.  0.
        -11    1    5    5    0    0  0.14283584502E+03 -0.17860581727E+02  0.40073162518E+03  0.42580149650E+03  0.00000000000E+00 0.  1.
         12    1    5    5    0    0  0.30651761001E+02 -0.11732414677E+02  0.28502315516E+03  0.28690656839E+03  0.00000000000E+00 0. -1.
         13    1    3    3    0    0 -0.82469427279E+02 -0.21405954091E+02 -0.34321112270E+03  0.35362875456E+03  0.00000000000E+00 0. -1.
        -14    1    3    3    0    0  0.68556531706E+00 -0.82563514092E+01 -0.30675464025E+03  0.30686649646E+03  0.00000000000E+00 0.  1.
          5    1    4    4  501    0 -0.13149923284E+02  0.55679351840E+02  0.77041430804E+02  0.96051887874E+02  0.41800000000E+01 0. -1.
         -5    1    4    4    0  501 -0.78553820776E+02  0.35759500651E+01 -0.16899207329E+02  0.80539094766E+02  0.41800000000E+01 0. -1.
</event>
<event>
11    1  0.8912470E-009  0.2075986E+03  0.7561462E-02  0.1049277E+00
         22   -1    0    0    0    0  0.00000000000E+00  0.00000000000E+00  0.58901057484E+03  0.58901057484E+03  0.00000000000E+00 0. -1.
         22   -1    0    0    0    0 -0.00000000000E+00 -0.00000000000E+00 -0.31235820208E+03  0.31235820208E+03  0.00000000000E+00 0. -1.
        -24    2    1    2    0    0  0.46197979406E+01 -0.22008059684E+02 -0.18465472434E+03  0.20282450590E+03  0.80837588710E+02 0.  0.
         25    2    1    2    0    0 -0.10656931090E+03 -0.11136625419E+03 -0.28440912739E+01  0.19853399825E+03  0.12509276162E+03 0.  0.
         24    2    1    2    0    0  0.10194951296E+03  0.13337431387E+03  0.46415118837E+03  0.50001027277E+03  0.79947085099E+02 0.  0.
        -11    1    5    5    0    0  0.81096508277E+02  0.41409011456E+02  0.24783646050E+03  0.26403458303E+03  0.00000000000E+00 0.  1.
         12    1    5    5    0    0  0.20853004679E+02  0.91965302414E+02  0.21631472788E+03  0.23597568974E+03  0.00000000000E+00 0. -1.
         11    1    3    3    0    0 -0.10993590705E+02  0.16008593443E+02 -0.14298407872E+03  0.14429684982E+03  0.00000000000E+00 0. -1.
        -12    1    3    3    0    0  0.15613388646E+02 -0.38016653127E+02 -0.41670645625E+02  0.58527656085E+02  0.00000000000E+00 0.  1.
          5    1    4    4  501    0  0.12230882969E+02 -0.40933525465E+02 -0.36472092857E+02  0.56327914595E+02  0.41800000000E+01 0. -1.
         -5    1    4    4    0  501 -0.11880019387E+03 -0.70432728721E+02  0.33628001583E+02  0.14220608365E+03  0.41800000000E+01 0. -1.
</event>
<event>
11    1  0.6930157E-009  0.2491893E+03  0.7561462E-02  0.1024332E+00
         22   -1    0    0    0    0  0.00000000000E+00  0.00000000000E+00  0.78401289717E+03  0.78401289717E+03  0.00000000000E+00 0.  1.
         22   -1    0    0    0    0 -0.00000000000E+00 -0.00000000000E+00 -0.13491718127E+04  0.13491718127E+04  0.00000000000E+00 0. -1.
        -24    2    1    2    0    0  0.13021970417E+03 -0.12949952639E+03 -0.85912386655E+03  0.88213175649E+03  0.79594717355E+02 0.  0.
         25    2    1    2    0    0 -0.35607943727E+02  0.32050899356E+03 -0.39504224179E+03  0.52507340219E+03  0.12509901791E+03 0.  0.
         24    2    1    2    0    0 -0.94611760441E+02 -0.19100946717E+03  0.68900719280E+03  0.72597955120E+03  0.82942119932E+02 0.  0.
        -11    1    5    5    0    0 -0.88435798025E+02 -0.85431779731E+02  0.36776384302E+03  0.38777535197E+03  0.00000000000E+00 0.  1.
         12    1    5    5    0    0 -0.61759624159E+01 -0.10557768743E+03  0.32124334978E+03  0.33820419923E+03  0.00000000000E+00 0. -1.
         11    1    3    3    0    0  0.86965281402E+02 -0.84727153420E+02 -0.71353839812E+03  0.72379465063E+03  0.00000000000E+00 0. -1.
        -12    1    3    3    0    0  0.43254422766E+02 -0.44772372975E+02 -0.14558546843E+03  0.15833710585E+03  0.00000000000E+00 0.  1.
          5    1    4    4  501    0 -0.20221481793E+02  0.32650041347E+03 -0.38528547144E+03  0.50544415639E+03  0.41800000000E+01 0. -1.
         -5    1    4    4    0  501 -0.15386461933E+02 -0.59914199072E+01 -0.97567703475E+01  0.19629245807E+02  0.41800000000E+01 0. -1.
</event>
<event>
11    1  0.6930157E-009  0.2270693E+03  0.7561462E-02  0.1036877E+00
         22   -1    0    0    0    0  0.00000000000E+00  0.00000000000E+00  0.10135198194E+04  0.10135198194E+04  0.00000000000E+00 0. -1.
         22   -1    0    0    0    0 -0.00000000000E+00 -0.00000000000E+00 -0.38093682921E+03  0.38093682921E+03  0.00000000000E+00 0.  1.
        -24    2    1    2    0    0 -0.79335500474E+02  0.17497695146E+03 -0.30687999703E+03  0.37333416365E+03  0.91060474358E+02 0.  0.
         25    2    1    2    0    0  0.12396857087E+03 -0.12352822199E+03  0.27914925650E+03  0.35241873681E+03  0.12508889024E+03 0.  0.
         24    2    1    2    0    0 -0.44633070392E+02 -0.51448729475E+02  0.66031373075E+03  0.66870374818E+03  0.80693228209E+02 0.  0.
        -11    1    5    5    0    0  0.10826946646E+02 -0.43292871299E+02  0.19587296446E+03  0.20089229375E+03  0.00000000000E+00 0.  1.
         12    1    5    5    0    0 -0.55460017038E+02 -0.81558581761E+01  0.46444076629E+03  0.46781145444E+03  0.00000000000E+00 0. -1.
         11    1    3    3    0    0 -0.71107187921E+02  0.12978037859E+03 -0.15347779834E+03  0.21320087576E+03  0.00000000000E+00 0. -1.
        -12    1    3    3    0    0 -0.82283125534E+01  0.45196572871E+02 -0.15340219869E+03  0.16013328789E+03  0.00000000000E+00 0.  1.
          5    1    4    4  501    0  0.10706554072E+03 -0.14849049449E+03  0.22295162604E+03  0.28850885068E+03  0.41800000000E+01 0. -1.
         -5    1    4    4    0  501  0.16903030145E+02  0.24962272504E+02  0.56197630461E+02  0.63909886137E+02  0.41800000000E+01 0. -1.
</event>
<event>
11    1  0.6930157E-009  0.1804942E+03  0.7561462E-02  0.1069244E+00
         22   -1    0    0    0    0  0.00000000000E+00  0.00000000000E+00  0.12958659967E+03  0.12958659967E+03  0.00000000000E+00 0. -1.
         22   -1    0    0    0    0 -0.00000000000E+00 -0.00000000000E+00 -0.30679122229E+04  0.30679122229E+04  0.00000000000E+00 0. -1.
         24    2    1    2    0    0  0.49543419983E+02  0.82900441156E+02 -0.27392083433E+04  0.27420248090E+04  0.78170784797E+02 0.  0.
         25    2    1    2    0    0  0.86447535142E+02 -0.99209809409E+02 -0.22788109706E+03  0.29136313562E+03  0.12508764841E+03 0.  0.
        -24    2    1    2    0    0 -0.13599095513E+03  0.16309368253E+02  0.28763817176E+02  0.16411087791E+03  0.85705820686E+02 0.  0.
        -11    1    3    3    0    0  0.43977747025E+02  0.29368091484E+01 -0.95102120111E+03  0.95204201170E+03  0.00000000000E+00 0.  1.
         12    1    3    3    0    0  0.55656729578E+01  0.79963632007E+02 -0.17881871422E+04  0.17899827973E+04  0.00000000000E+00 0. -1.
         13    1    5    5    0    0 -0.92077373124E+02  0.42811472522E+02  0.43909420020E+02  0.11063047495E+03  0.00000000000E+00 0. -1.
        -14    1    5    5    0    0 -0.43913582002E+02 -0.26502104269E+02 -0.15145602843E+02  0.53480402957E+02  0.00000000000E+00 0.  1.
          5    1    4    4  501    0  0.10720727492E+03 -0.58942247511E+02 -0.20877748169E+03  0.24201879595E+03  0.41800000000E+01 0. -1.
         -5    1    4    4    0  501 -0.20759739773E+02 -0.40267561898E+02 -0.19103615375E+02  0.49344339665E+02  0.41800000000E+01 0. -1.
</event>
<event>
11    1  0.6930157E-009  0.1896847E+03  0.7561462E-02  0.1062068E+00
         22   -1    0    0    0    0  0.00000000000E+00  0.00000000000E+00  0.61917189993E+03  0.61917189993E+03  0.00000000000E+00 0.  1.
         22   -1    0    0    0    0 -0.00000000000E+00 -0.00000000000E+00 -0.21380469040E+04  0.21380469040E+04  0.00000000000E+00 0. -1.
         24    2    1    2    0    0  0.49518029507E+02 -0.18083804485E+01 -0.19265168440E+04  0.19287856702E+04  0.79320273262E+02 0.  0.
         25    2    1    2    0    0 -0.54043720178E+01 -0.13476580563E+03 -0.15592970159E+03  0.24114951225E+03  0.12509190946E+03 0.  0.
        -24    2    1    2    0    0 -0.44113657489E+02  0.13657418608E+03  0.56357154155E+03  0.58728362148E+03  0.81796372352E+02 0.  0.
        -11    1    3    3    0    0  0.50940694736E+02 -0.26595330370E+02 -0.82960430885E+03  0.83159219287E+03  0.00000000000E+00 0.  1.
         12    1    3    3    0    0 -0.14226652285E+01  0.24786949922E+02 -0.10969125352E+04  0.10971934773E+04  0.00000000000E+00 0. -1.
         11    1    5    5    0    0 -0.12570335073E+02  0.58549096292E+02  0.10347896091E+03  0.11955712171E+03  0.00000000000E+00 0. -1.
        -12    1    5    5    0    0 -0.31543322417E+02  0.78025089790E+02  0.46009258064E+03  0.46772649977E+03  0.00000000000E+00 0.  1.
          5    1    4    4  501    0  0.10692972195E+02 -0.14908953890E+03 -0.96929587042E+02  0.17819889873E+03  0.41800000000E+01 0. -1.
         -5    1    4    4    0  501 -0.16097344213E+02  0.14323733266E+02 -0.59000114550E+02  0.62950613518E+02  0.41800000000E+01 0. -1.
</event>
<event>
11    1  0.6930157E-009  0.1343879E+03  0.7561462E-02  0.1113992E+00
         22   -1    0    0    0    0  0.00000000000E+00  0.00000000000E+00  0.52319914085E+03  0.52319914085E+03  0.00000000000E+00 0.  1.
         22   -1    0    0    0    0 -0.00000000000E+00 -0.00000000000E+00 -0.40646773036E+03  0.40646773036E+03  0.00000000000E+00 0.  1.
         24    2    1    2    0    0  0.29884444046E+02 -0.83265262374E+01 -0.22391318724E+03  0.24011725089E+03  0.80973870591E+02 0.  0.
         25    2    1    2    0    0 -0.10551056395E+02 -0.37374220416E+02 -0.14468299980E+03  0.19516200910E+03  0.12508749826E+03 0.  0.
        -24    2    1    2    0    0 -0.19333387652E+02  0.45700746653E+02  0.48532759753E+03  0.49438761123E+03  0.80086797222E+02 0.  0.
        -11    1    3    3    0    0 -0.14067701564E+02 -0.23347137282E+02 -0.15257425481E+03  0.15498997477E+03  0.00000000000E+00 0.  1.
         12    1    3    3    0    0  0.43952145610E+02  0.15020611044E+02 -0.71338932431E+02  0.85127276124E+02  0.00000000000E+00 0. -1.
         13    1    5    5    0    0  0.90782084276E+01 -0.19702878936E+02  0.82920236089E+02  0.85711042811E+02  0.00000000000E+00 0. -1.
        -14    1    5    5    0    0 -0.28411596079E+02  0.65403625589E+02  0.40240736144E+03  0.40867656842E+03  0.00000000000E+00 0.  1.
          5    1    4    4  501    0  0.52214988690E+02 -0.43538847066E+01 -0.94655408009E+02  0.10827040233E+03  0.41800000000E+01 0.  1.
         -5    1    4    4    0  501 -0.62766045084E+02 -0.33020335709E+02 -0.50027591789E+02  0.86891606764E+02  0.41800000000E+01 0.  1.
</event>
<event>
11    1  0.6930157E-009  0.1321963E+03  0.7561462E-02  0.1116599E+00
         22   -1    0    0    0    0  0.00000000000E+00  0.00000000000E+00  0.12313821551E+04  0.12313821551E+04  0.00000000000E+00 0.  1.
         22   -1    0    0    0    0 -0.00000000000E+00 -0.00000000000E+00 -0.68921978149E+03  0.68921978149E+03  0.00000000000E+00 0. -1.
         24    2    1    2    0    0  0.90447714751E+01 -0.11203360332E+02 -0.65605886503E+03  0.66086134332E+03  0.78212259519E+02 0.  0.
         25    2    1    2    0    0  0.90304268497E+01 -0.28501107202E+02  0.11464061903E+03  0.17229249866E+03  0.12509345244E+03 0.  0.
        -24    2    1    2    0    0 -0.18075198325E+02  0.39704467533E+02  0.10835806196E+04  0.10874480946E+04  0.80580653611E+02 0.  0.
        -13    1    3    3    0    0  0.24853119980E+02 -0.17380081345E+02 -0.98931873973E+02  0.10347589327E+03  0.00000000000E+00 0.  1.
         14    1    3    3    0    0 -0.15808348505E+02  0.61767210140E+01 -0.55712699106E+03  0.55738545005E+03  0.00000000000E+00 0. -1.
         11    1    5    5    0    0  0.26804351764E+02  0.25092377842E+01  0.18144803512E+03  0.18343434520E+03  0.00000000000E+00 0. -1.
        -12    1    5    5    0    0 -0.44879550088E+02  0.37195229749E+02  0.90213258452E+03  0.90401374944E+03  0.00000000000E+00 0.  1.
          5    1    4    4  501    0  0.31188944882E+02  0.37878024468E+02  0.17009366834E+02  0.52098809780E+02  0.41800000000E+01 0.  1.
         -5    1    4    4    0  501 -0.22158518032E+02 -0.66379131670E+02  0.97631252194E+02  0.12019368888E+03  0.41800000000E+01 0.  1.
</event>
<event>
11    1  0.6930157E-009  0.1580623E+03  0.7561462E-02  0.1088914E+00
         22   -1    0    0    0    0  0.00000000000E+00  0.00000000000E+00  0.30921417253E+04  0.30921417253E+04  0.00000000000E+00 0.  1.
         22   -1    0    0    0    0 -0.00000000000E+00 -0.00000000000E+00 -0.22280186516E+02  0.22280186516E+02  0.00000000000E+00 0.  1.
        -24    2    1    2    0    0 -0.99015076826E+02 -0.29883043507E+02  0.30351201431E+03  0.33051650737E+03  0.80153833870E+02 0.  0.
         25    2    1    2    0    0  0.84481356334E+02 -0.37356052629E+01  0.72021176080E+03  0.73586810434E+03  0.12508330138E+03 0.  0.
         24    2    1    2    0    0  0.14533720492E+02  0.33618648770E+02  0.20461377636E+04  0.20480373001E+04  0.80222142231E+02 0.  0.
        -13    1    5    5    0    0  0.18772945103E+02  0.58153450760E+02  0.16391142998E+04  0.16402530095E+04  0.00000000000E+00 0.  1.
         14    1    5    5    0    0 -0.42392246109E+01 -0.24534801990E+02  0.40702346382E+03  0.40778429057E+03  0.00000000000E+00 0. -1.
         11    1    3    3    0    0 -0.18899973629E+02  0.10796948670E+02  0.15804711040E+03  0.15953893635E+03  0.00000000000E+00 0. -1.
        -12    1    3    3    0    0 -0.80115103197E+02 -0.40679992177E+02  0.14546490391E+03  0.17097757102E+03  0.00000000000E+00 0.  1.
          5    1    4    4  501    0  0.79333527043E+02 -0.31595942614E+02  0.23947562430E+03  0.25427968683E+03  0.41800000000E+01 0. -1.
         -5    1    4    4    0  501  0.51478292909E+01  0.27860337352E+02  0.48073613650E+03  0.48158841751E+03  0.41800000000E+01 0. -1.
</event>
<event>
11    1  0.6930157E-009  0.1451918E+03  0.7561462E-02  0.1101896E+00
         22   -1    0    0    0    0  0.00000000000E+00  0.00000000000E+00  0.11030388546E+04  0.11030388546E+04  0.00000000000E+00 0.  1.
         22   -1    0    0    0    0 -0.00000000000E+00 -0.00000000000E+00 -0.16887648702E+03  0.16887648702E+03  0.00000000000E+00 0. -1.
         24    2    1    2    0    0  0.52694056648E+02 -0.51520634265E+02 -0.13618307684E+03  0.17383666551E+03  0.79008331813E+02 0.  0.
         25    2    1    2    0    0 -0.43157307837E+02  0.61658055535E+02  0.47460772029E+03  0.49655273873E+03  0.12509142714E+03 0.  0.
        -24    2    1    2    0    0 -0.95367488117E+01 -0.10137421270E+02  0.59573772414E+03  0.60152593740E+03  0.82074968828E+02 0.  0.
        -13    1    3    3    0    0  0.72052078182E+02 -0.29908549436E+02 -0.10928151668E+03  0.13427015003E+03  0.00000000000E+00 0.  1.
         14    1    3    3    0    0 -0.19358021534E+02 -0.21612084829E+02 -0.26901560160E+02  0.39566515482E+02  0.00000000000E+00 0. -1.
         11    1    5    5    0    0 -0.12882510036E+02  0.34782757685E+02  0.22105689873E+03  0.22414716544E+03  0.00000000000E+00 0. -1.
        -12    1    5    5    0    0  0.33457612241E+01 -0.44920178955E+02  0.37468082541E+03  0.37737877196E+03  0.00000000000E+00 0.  1.
          5    1    4    4  501    0 -0.50000545732E+02  0.26029024518E+02  0.68518536351E+02  0.88824697661E+02  0.41800000000E+01 0. -1.
         -5    1    4    4    0  501  0.68432378959E+01  0.35629031017E+02  0.40608918394E+03  0.40772804106E+03  0.41800000000E+01 0. -1.
</event>
<event>
11    1  0.6930157E-009  0.2035362E+03  0.7561462E-02  0.1052051E+00
         22   -1    0    0    0    0  0.00000000000E+00  0.00000000000E+00  0.18114403300E+04  0.18114403300E+04  0.00000000000E+00 0. -1.
         22   -1    0    0    0    0 -0.00000000000E+00 -0.00000000000E+00 -0.34958365708E+03  0.34958365708E+03  0.00000000000E+00 0.  1.
         24    2    1    2    0    0  0.45746082436E+02 -0.34580235713E+02 -0.26827957670E+03  0.28582917906E+03  0.80224008652E+02 0.  0.
         25    2    1    2    0    0 -0.96037887596E+02  0.18369428209E+03  0.14895538709E+03  0.28425098516E+03  0.12507617717E+03 0.  0.
        -24    2    1    2    0    0  0.50291805160E+02 -0.14911404637E+03  0.15811808625E+04  0.15909438229E+04  0.78772222256E+02 0.  0.
        -11    1    3    3    0    0  0.58166799387E+02 -0.50414959814E+02 -0.23066191973E+03  0.24316653951E+03  0.00000000000E+00 0.  1.
         12    1    3    3    0    0 -0.12420716951E+02  0.15834724101E+02 -0.37617656974E+02  0.42662639548E+02  0.00000000000E+00 0. -1.
         13    1    5    5    0    0  0.49529595114E+02 -0.33648860608E+02  0.60581179859E+03  0.60876379814E+03  0.00000000000E+00 0. -1.
        -14    1    5    5    0    0  0.76221004561E+00 -0.11546518577E+03  0.97536906393E+03  0.98218002472E+03  0.00000000000E+00 0.  1.
          5    1    4    4  501    0  0.18116001532E+02 -0.57389976892E+01  0.42522284973E+01  0.19916813329E+02  0.41800000000E+01 0. -1.
         -5    1    4    4    0  501 -0.11415388913E+03  0.18943327978E+03  0.14470315860E+03  0.26433417183E+03  0.41800000000E+01 0. -1.
</event>
<event>
11    1  0.6930157E-009  0.2207860E+03  0.7561462E-02  0.1040726E+00
         22   -1    0    0    0    0  0.00000000000E+00  0.00000000000E+00  0.10431570327E+04  0.10431570327E+04  0.00000000000E+00 0.  1.
         22   -1    0    0    0    0 -0.00000000000E+00 -0.00000000000E+00 -0.50329075652E+03  0.50329075652E+03  0.00000000000E+00 0. -1.
        -24    2    1    2    0    0  0.91453812194E+02  0.15242266455E+03 -0.36947469298E+03  0.41780377471E+03  0.80324199220E+02 0.  0.
         25    2    1    2    0    0 -0.18117060240E+03 -0.13130055045E+03  0.50683722754E+02  0.26132607841E+03  0.12513935346E+03 0.  0.
         24    2    1    2    0    0  0.89716790203E+02 -0.21122114099E+02  0.85865724636E+03  0.86731793606E+03  0.80329878272E+02 0.  0.
        -13    1    5    5    0    0  0.39565161469E+02 -0.28666375362E+02  0.67562270730E+03  0.67738704276E+03  0.00000000000E+00 0.  1.
         14    1    5    5    0    0  0.50151628734E+02  0.75442612628E+01  0.18303453906E+03  0.18993089330E+03  0.00000000000E+00 0. -1.
         11    1    3    3    0    0  0.66672142335E+02  0.14347346023E+03 -0.25305949518E+03  0.29844415969E+03  0.00000000000E+00 0. -1.
        -12    1    3    3    0    0  0.24781669859E+02  0.89492043136E+01 -0.11641519780E+03  0.11935961502E+03  0.00000000000E+00 0.  1.
          5    1    4    4  501    0 -0.18914668654E+03 -0.83172524527E+02  0.33102842873E+02  0.20930219414E+03  0.41800000000E+01 0.  1.
         -5    1    4    4    0  501  0.79760841420E+01 -0.48128025921E+02  0.17580879882E+02  0.52023884272E+02  0.41800000000E+01 0.  1.
</event>
<event>
11    1  0.6930157E-009  0.1557323E+03  0.7561462E-02  0.1091161E+00
         22   -1    0    0    0    0  0.00000000000E+00  0.00000000000E+00  0.38196160836E+03  0.38196160836E+03  0.00000000000E+00 0. -1.
         22   -1    0    0    0    0 -0.00000000000E+00 -0.00000000000E+00 -0.90717775554E+03  0.90717775554E+03  0.00000000000E+00 0.  1.
        -24    2    1    2    0    0  0.15911852223E+01 -0.62448524744E+02 -0.82204649397E+03  0.82891829209E+03  0.86271354436E+02 0.  0.
         25    2    1    2    0    0 -0.74252353712E+02 -0.57463582507E+01  0.10648592428E+02  0.14591997238E+03  0.12503124871E+03 0.  0.
         24    2    1    2    0    0  0.72661168489E+02  0.68194882995E+02  0.28618175436E+03  0.31430109942E+03  0.83396625209E+02 0.  0.
        -11    1    5    5    0    0  0.58660149703E+02  0.64002889421E+02  0.12348984065E+03  0.15095404520E+03  0.00000000000E+00 0.  1.
         12    1    5    5    0    0  0.14001018786E+02  0.41919935734E+01  0.16269191372E+03  0.16334705423E+03  0.00000000000E+00 0. -1.
         13    1    3    3    0    0  0.24133501771E+02  0.16039288542E+01 -0.45507789689E+03  0.45572018907E+03  0.00000000000E+00 0. -1.
        -14    1    3    3    0    0 -0.22542316548E+02 -0.64052453598E+02 -0.36696859709E+03  0.37319810302E+03  0.00000000000E+00 0.  1.
          5    1    4    4  501    0  0.19628727881E+02  0.14139319593E+02 -0.32407762882E+02  0.40656399396E+02  0.41800000000E+01 0. -1.
         -5    1    4    4    0  501 -0.93881081593E+02 -0.19885677844E+02  0.43056355310E+02  0.10526357298E+03  0.41800000000E+01 0. -1.
</event>
<event>
11    1  0.6930157E-009  0.1295037E+03  0.7561462E-02  0.1119880E+00
         22   -1    0    0    0    0  0.00000000000E+00  0.00000000000E+00  0.14148593178E+04  0.14148593178E+04  0.00000000000E+00 0. -1.
         22   -1    0    0    0    0 -0.00000000000E+00 -0.00000000000E+00 -0.18529204923E+03  0.18529204923E+03  0.00000000000E+00 0. -1.
         24    2    1    2    0    0 -0.27536738817E+02 -0.15382355551E+02 -0.13258768105E+03  0.15833276086E+03  0.80590825457E+02 0.  0.
         25    2    1    2    0    0  0.34535739221E+02  0.44256757403E+02  0.84025456611E+02  0.16080665002E+03  0.12508846258E+03 0.  0.
        -24    2    1    2    0    0 -0.69990004040E+01 -0.28874401852E+02  0.12781294930E+04  0.12810119561E+04  0.80584823565E+02 0.  0.
        -13    1    3    3    0    0  0.11235565145E+02  0.20768731451E+02 -0.11742646697E+02  0.26371725042E+02  0.00000000000E+00 0.  1.
         14    1    3    3    0    0 -0.38772303962E+02 -0.36151087002E+02 -0.12084503436E+03  0.13196103582E+03  0.00000000000E+00 0. -1.
         11    1    5    5    0    0  0.48984247770E+01 -0.53550591754E+02  0.10238218213E+04  0.10252330380E+04  0.00000000000E+00 0. -1.
        -12    1    5    5    0    0 -0.11897425181E+02  0.24676189901E+02  0.25430767164E+03  0.25577891807E+03  0.00000000000E+00 0.  1.
          5    1    4    4  501    0  0.63369240924E+02  0.26055699012E+02  0.10129045280E+03  0.12235925946E+03  0.41800000000E+01 0.  1.
         -5    1    4    4    0  501 -0.28833501703E+02  0.18201058392E+02 -0.17264996192E+02  0.38447390556E+02  0.41800000000E+01 0.  1.
</event>
<event>
11    1  0.6930157E-009  0.1320193E+03  0.7561462E-02  0.1116812E+00
         22   -1    0    0    0    0  0.00000000000E+00  0.00000000000E+00  0.63223869007E+02  0.63223869007E+02  0.00000000000E+00 0.  1.
         22   -1    0    0    0    0 -0.00000000000E+00 -0.00000000000E+00 -0.31234489924E+04  0.31234489924E+04  0.00000000000E+00 0. -1.
        -24    2    1    2    0    0  0.21170955631E+02  0.25785833445E+02 -0.21012200271E+04  0.21029619931E+04  0.78806240381E+02 0.  0.
         25    2    1    2    0    0 -0.39077525132E+02 -0.62737953289E+02 -0.98008799976E+03  0.99079944893E+03  0.12509179416E+03 0.  0.
         24    2    1    2    0    0  0.17906569501E+02  0.36952119845E+02  0.21082903545E+02  0.92911419313E+02  0.80634599427E+02 0.  0.
        -13    1    5    5    0    0  0.37686491426E+02 -0.95642305223E+01  0.16227210787E+02  0.42131561939E+02  0.00000000000E+00 0.  1.
         14    1    5    5    0    0 -0.19779921925E+02  0.46516350367E+02  0.48556927580E+01  0.50779857375E+02  0.00000000000E+00 0. -1.
         13    1    3    3    0    0 -0.14837280379E+01  0.30439752144E+02 -0.19237415601E+04  0.19239829443E+04  0.00000000000E+00 0. -1.
        -14    1    3    3    0    0  0.22654683669E+02 -0.46539186994E+01 -0.17747846700E+03  0.17897904877E+03  0.00000000000E+00 0.  1.
          5    1    4    4  501    0  0.81123231803E+01 -0.90099534158E+02 -0.60159606064E+03  0.60837408592E+03  0.41800000000E+01 0. -1.
         -5    1    4    4    0  501 -0.47189848312E+02  0.27361580869E+02 -0.37849193913E+03  0.38242536301E+03  0.41800000000E+01 0. -1.
</event>
<event>
11    1  0.6930157E-009  0.1320043E+03  0.7561462E-02  0.1116831E+00
         22   -1    0    0    0    0  0.00000000000E+00  0.00000000000E+00  0.90285067784E+03  0.90285067784E+03  0.00000000000E+00 0. -1.
         22   -1    0    0    0    0 -0.00000000000E+00 -0.00000000000E+00 -0.38098220008E+03  0.38098220008E+03  0.00000000000E+00 0. -1.
        -24    2    1    2    0    0 -0.41383809951E+02 -0.98817151065E+01 -0.33294884709E+03  0.34513150470E+03  0.80315333146E+02 0.  0.
         25    2    1    2    0    0  0.25105333727E+02  0.41307927259E+02  0.74305233977E+02  0.15331805252E+03  0.12509410376E+03 0.  0.
         24    2    1    2    0    0  0.16278476223E+02 -0.31426212152E+02  0.78051209087E+03  0.78538332071E+03  0.79845105353E+02 0.  0.
        -11    1    5    5    0    0  0.10644913545E+02  0.88949693036E+01  0.23585242724E+02  0.27362352560E+02  0.00000000000E+00 0.  1.
         12    1    5    5    0    0  0.56335626783E+01 -0.40321181456E+02  0.75692684815E+03  0.75802096815E+03  0.00000000000E+00 0. -1.
         11    1    3    3    0    0  0.39461821949E+01  0.28247360099E+01 -0.24770038723E+03  0.24774792294E+03  0.00000000000E+00 0. -1.
        -12    1    3    3    0    0 -0.45329992145E+02 -0.12706451116E+02 -0.85248459865E+02  0.97383581765E+02  0.00000000000E+00 0.  1.
          5    1    4    4  501    0 -0.28559641774E+02  0.33298144504E+02 -0.16829700037E+02  0.47171291788E+02  0.41800000000E+01 0. -1.
         -5    1    4    4    0  501  0.53664975502E+02  0.80097827553E+01  0.91134934014E+02  0.10614676073E+03  0.41800000000E+01 0. -1.
</event>
<event>
11    1  0.6930157E-009  0.2433418E+03  0.7561462E-02  0.1027507E+00
         22   -1    0    0    0    0  0.00000000000E+00  0.00000000000E+00  0.90317550334E+03  0.90317550334E+03  0.00000000000E+00 0. -1.
         22   -1    0    0    0    0 -0.00000000000E+00 -0.00000000000E+00 -0.36050961057E+03  0.36050961057E+03  0.00000000000E+00 0. -1.
        -24    2    1    2    0    0  0.72529069981E+02  0.70387662850E+01 -0.24959273217E+03  0.27416709105E+03  0.86954307764E+02 0.  0.
         25    2    1    2    0    0 -0.26781477755E+03 -0.96040996744E+01  0.19157905832E+03  0.35237321219E+03  0.12508937315E+03 0.  0.
         24    2    1    2    0    0  0.19528570757E+03  0.25653333894E+01  0.60067956662E+03  0.63714481067E+03  0.83633004828E+02 0.  0.
        -11    1    5    5    0    0  0.82384794291E+01  0.22824274424E+02  0.64363290970E+02  0.68785560046E+02  0.00000000000E+00 0.  1.
         12    1    5    5    0    0  0.18704722814E+03 -0.20258941035E+02  0.53631627565E+03  0.56835925062E+03  0.00000000000E+00 0. -1.
         11    1    3    3    0    0  0.28611818324E+02  0.38593479393E+02 -0.17845197936E+03  0.18480584876E+03  0.00000000000E+00 0. -1.
        -12    1    3    3    0    0  0.43917251657E+02 -0.31554713108E+02 -0.71140752810E+02  0.89361242285E+02  0.00000000000E+00 0.  1.
          5    1    4    4  501    0 -0.91815593605E+02  0.73939875516E+01  0.78526598103E+00  0.92210971818E+02  0.41800000000E+01 0.  1.
         -5    1    4    4    0  501 -0.17599918395E+03 -0.16998087226E+02  0.19079379234E+03  0.26016224037E+03  0.41800000000E+01 0.  1.
</event>
<event>
11    1  0.6930157E-009  0.1714201E+03  0.7561462E-02  0.1076802E+00
         22   -1    0    0    0    0  0.00000000000E+00  0.00000000000E+00  0.22105666327E+04  0.22105666327E+04  0.00000000000E+00 0. -1.
         22   -1    0    0    0    0 -0.00000000000E+00 -0.00000000000E+00 -0.53869195293E+03  0.53869195293E+03  0.00000000000E+00 0. -1.
         24    2    1    2    0    0  0.14964036863E+02 -0.57713366988E+02 -0.51705089206E+03  0.52628228534E+03  0.77952958579E+02 0.  0.
         25    2    1    2    0    0  0.67479329782E+02  0.13093416581E+03  0.70077516770E+03  0.72693299036E+03  0.12509404898E+03 0.  0.
        -24    2    1    2    0    0 -0.82443366645E+02 -0.73220798826E+02  0.14881504041E+04  0.14960433099E+04  0.10675095205E+03 0.  0.
        -11    1    3    3    0    0  0.16923080475E+01  0.17238438031E+02 -0.17548394522E+03  0.17633673095E+03  0.00000000000E+00 0.  1.
         12    1    3    3    0    0  0.13271728815E+02 -0.74951805019E+02 -0.34156694684E+03  0.34994555439E+03  0.00000000000E+00 0. -1.
         11    1    5    5    0    0 -0.46806147861E+02 -0.63324986601E+02  0.13694976892E+04  0.13717597421E+04  0.00000000000E+00 0. -1.
        -12    1    5    5    0    0 -0.35637218784E+02 -0.98958122251E+01  0.11865271490E+03  0.12428356776E+03  0.00000000000E+00 0.  1.
          5    1    4    4  501    0  0.77076309716E+02  0.11474804712E+03  0.69212300980E+03  0.70580422564E+03  0.41800000000E+01 0.  1.
         -5    1    4    4    0  501 -0.95969799339E+01  0.16186118699E+02  0.86521578946E+01  0.21128764720E+02  0.41800000000E+01 0.  1.
</event>
<event>
11    1  0.7417844E-009  0.1584650E+03  0.7561462E-02  0.1088530E+00
         22   -1    0    0    0    0  0.00000000000E+00  0.00000000000E+00  0.55284387553E+03  0.55284387553E+03  0.00000000000E+00 0. -1.
         22   -1    0    0    0    0 -0.00000000000E+00 -0.00000000000E+00 -0.60469878885E+03  0.60469878885E+03  0.00000000000E+00 0. -1.
        -24    2    1    2    0    0 -0.19031910519E+02 -0.62794333570E+02 -0.32140522013E+03  0.33758491737E+03  0.79730288900E+02 0.  0.
         25    2    1    2    0    0  0.86658288294E+02 -0.83831337465E+01 -0.24575451265E+03  0.28917537577E+03  0.12508869494E+03 0.  0.
         24    2    1    2    0    0 -0.67626377775E+02  0.71177467317E+02  0.51530481946E+03  0.53078237124E+03  0.80940162100E+02 0.  0.
        -13    1    5    5    0    0  0.13474321300E+02  0.24837438495E+02  0.19828764423E+03  0.20029090229E+03  0.00000000000E+00 0.  1.
         14    1    5    5    0    0 -0.81100699075E+02  0.46340028821E+02  0.31701717523E+03  0.33049146895E+03  0.00000000000E+00 0. -1.
         11    1    3    3    0    0 -0.37982289497E+01 -0.67224159695E+02 -0.31191258207E+03  0.31909712164E+03  0.00000000000E+00 0. -1.
        -12    1    3    3    0    0 -0.15233681569E+02  0.44298261252E+01 -0.94926380590E+01  0.18487795731E+02  0.00000000000E+00 0.  1.
          5    1    4    4  501    0  0.27879566895E+02  0.16917207823E+02  0.23071907592E+01  0.32958423809E+02  0.41800000000E+01 0.  1.
         -5    1    4    4    0  501  0.58778721399E+02 -0.25300341570E+02 -0.24806170341E+03  0.25621695196E+03  0.41800000000E+01 0.  1.
</event>
<event>
11    1  0.6930157E-009  0.1566219E+03  0.7561462E-02  0.1090298E+00
         22   -1    0    0    0    0  0.00000000000E+00  0.00000000000E+00  0.27753650104E+03  0.27753650104E+03  0.00000000000E+00 0.  1.
         22   -1    0    0    0    0 -0.00000000000E+00 -0.00000000000E+00 -0.16081871371E+04  0.16081871371E+04  0.00000000000E+00 0. -1.
         24    2    1    2    0    0  0.41126346667E+02  0.37534758664E+01 -0.10833213354E+04  0.10871936501E+04  0.81850181256E+02 0.  0.
         25    2    1    2    0    0  0.12877668236E+02 -0.81682930414E+02 -0.49730765835E+03  0.51942269066E+03  0.12508832504E+03 0.  0.
        -24    2    1    2    0    0 -0.54004014903E+02  0.77929454548E+02  0.24997835761E+03  0.27910729744E+03  0.80139070999E+02 0.  0.
        -13    1    3    3    0    0  0.19421456021E+02  0.40927169478E+02 -0.40935587457E+03  0.41185489945E+03  0.00000000000E+00 0.  1.
         14    1    3    3    0    0  0.21704890646E+02 -0.37173693612E+02 -0.67396546079E+03  0.67533875064E+03  0.00000000000E+00 0. -1.
         11    1    5    5    0    0  0.13593730114E+02  0.46619759835E+02  0.81093292250E+02  0.94521497837E+02  0.00000000000E+00 0. -1.
        -12    1    5    5    0    0 -0.67597745017E+02  0.31309694713E+02  0.16888506536E+03  0.18458579960E+03  0.00000000000E+00 0.  1.
          5    1    4    4  501    0 -0.52734688602E+02 -0.46316220479E+02 -0.30807164696E+03  0.31599327797E+03  0.41800000000E+01 0.  1.
         -5    1    4    4    0  501  0.65612356838E+02 -0.35366709935E+02 -0.18923601139E+03  0.20342941269E+03  0.41800000000E+01 0.  1.
</event>
<event>
11    1  0.6930157E-009  0.1724437E+03  0.7561462E-02  0.1075924E+00
         22   -1    0    0    0    0  0.00000000000E+00  0.00000000000E+00  0.28813342640E+03  0.28813342640E+03  0.00000000000E+00 0.  1.
         22   -1    0    0    0    0 -0.00000000000E+00 -0.00000000000E+00 -0.59419923211E+03  0.59419923211E+03  0.00000000000E+00 0. -1.
         24    2    1    2    0    0 -0.10579060955E+03 -0.52259400427E+02 -0.48865876821E+03  0.50930240350E+03  0.81724222025E+02 0.  0.
         25    2    1    2    0    0  0.98412234881E+02  0.82403300496E+02  0.98036156063E+01  0.17949907656E+03  0.12509410738E+03 0.  0.
        -24    2    1    2    0    0  0.73783746676E+01 -0.30143900069E+02  0.17278934689E+03  0.19353117845E+03  0.81455899184E+02 0.  0.
        -13    1    3    3    0    0 -0.75729785171E+02 -0.51704076264E+02 -0.21156166350E+03  0.23057894380E+03  0.00000000000E+00 0.  1.
         14    1    3    3    0    0 -0.30060824378E+02 -0.55532416389E+00 -0.27709710471E+03  0.27872345970E+03  0.00000000000E+00 0. -1.
         13    1    5    5    0    0  0.20307689669E+02 -0.47679442400E+02  0.62882863514E+02  0.81486109313E+02  0.00000000000E+00 0. -1.
        -14    1    5    5    0    0 -0.12929315002E+02  0.17535542331E+02  0.10990648337E+03  0.11204506914E+03  0.00000000000E+00 0.  1.
          5    1    4    4  501    0 -0.10497265514E+02  0.22103977182E+02  0.43834422965E+02  0.50375663045E+02  0.41800000000E+01 0. -1.
         -5    1    4    4    0  501  0.10890950040E+03  0.60299323314E+02 -0.34030807359E+02  0.12912341352E+03  0.41800000000E+01 0. -1.
</event>
<event>
11    1  0.6930157E-009  0.1996781E+03  0.7561462E-02  0.1054751E+00
         22   -1    0    0    0    0  0.00000000000E+00  0.00000000000E+00  0.19356516404E+03  0.19356516404E+03  0.00000000000E+00 0.  1.
         22   -1    0    0    0    0 -0.00000000000E+00 -0.00000000000E+00 -0.22161881597E+04  0.22161881597E+04  0.00000000000E+00 0.  1.
        -24    2    1    2    0    0  0.24602994408E+01 -0.11369645027E+03 -0.10942208116E+04  0.11040403349E+04  0.93021183899E+02 0.  0.
         25    2    1    2    0    0 -0.15147874830E+03  0.15386602425E+03 -0.10591026924E+04  0.10881024352E+04  0.12509129375E+03 0.  0.
         24    2    1    2    0    0  0.14901844885E+03 -0.40169573980E+02  0.13070050836E+03  0.21761055367E+03  0.80322085451E+02 0.  0.
        -11    1    5    5    0    0  0.13820930688E+03 -0.45117385595E+02  0.80835951571E+02  0.16634855592E+03  0.00000000000E+00 0.  1.
         12    1    5    5    0    0  0.10809141980E+02  0.49478116154E+01  0.49864556784E+02  0.51261997751E+02  0.00000000000E+00 0. -1.
         13    1    3    3    0    0  0.11013361460E+02 -0.59881531270E+02 -0.22436755067E+03  0.23248202019E+03  0.00000000000E+00 0. -1.
        -14    1    3    3    0    0 -0.85530620195E+01 -0.53814918999E+02 -0.86985326093E+03  0.87155831470E+03  0.00000000000E+00 0.  1.
          5    1    4    4  501    0  0.19729343747E+02  0.36330249114E+02 -0.19625882821E+03  0.20060940669E+03  0.41800000000E+01 0.  1.
         -5    1    4    4    0  501 -0.17120809204E+03  0.11753577513E+03 -0.86284386421E+03  0.88749302849E+03  0.41800000000E+01 0.  1.
</event>
<event>
11    1  0.6930157E-009  0.1421866E+03  0.7561462E-02  0.1105141E+00
         22   -1    0    0    0    0  0.00000000000E+00  0.00000000000E+00  0.51045524136E+03  0.51045524136E+03  0.00000000000E+00 0. -1.
         22   -1    0    0    0    0 -0.00000000000E+00 -0.00000000000E+00 -0.49451596853E+03  0.49451596853E+03  0.00000000000E+00 0. -1.
        -24    2    1    2    0    0 -0.65077045746E+02  0.23271039929E+02 -0.38960494880E+03  0.40419036566E+03  0.82469827094E+02 0.  0.
         25    2    1    2    0    0  0.34536074178E+02 -0.63519544435E+02 -0.35794504047E+02  0.14884897441E+03  0.12508915908E+03 0.  0.
         24    2    1    2    0    0  0.30540971568E+02  0.40248504506E+02  0.44133872567E+03  0.45193186982E+03  0.83125514237E+02 0.  0.
        -11    1    5    5    0    0 -0.23998482569E+02 -0.65137876039E+01  0.13605856598E+03  0.13831229147E+03  0.00000000000E+00 0.  1.
         12    1    5    5    0    0  0.54539454137E+02  0.46762292110E+02  0.30528015969E+03  0.31361957835E+03  0.00000000000E+00 0. -1.
         13    1    3    3    0    0 -0.82783838457E+02  0.10205987612E+02 -0.33698679937E+03  0.34715620266E+03  0.00000000000E+00 0. -1.
        -14    1    3    3    0    0  0.17706792711E+02  0.13065052317E+02 -0.52618149422E+02  0.57034162997E+02  0.00000000000E+00 0.  1.
          5    1    4    4  501    0 -0.34688651417E+02 -0.65620458610E+02 -0.10910204644E+02  0.75138885343E+02  0.41800000000E+01 0.  1.
         -5    1    4    4    0  501  0.69224725595E+02  0.21009141748E+01 -0.24884299403E+02  0.73710089071E+02  0.41800000000E+01 0.  1.
</event>
<event>
11    1  0.6930157E-009  0.1635523E+03  0.7561462E-02  0.1083783E+00
         22   -1    0    0    0    0  0.00000000000E+00  0.00000000000E+00  0.59232380359E+03  0.59232380359E+03  0.00000000000E+00 0.  1.
         22   -1    0    0    0    0 -0.00000000000E+00 -0.00000000000E+00 -0.70921651161E+03  0.70921651161E+03  0.00000000000E+00 0.  1.
         24    2    1    2    0    0  0.10104224515E+03  0.16239473276E+02 -0.59055671438E+03  0.60473303791E+03  0.80445997098E+02 0.  0.
         25    2    1    2    0    0 -0.15549326657E+03  0.45737328232E+02 -0.62906338022E+01  0.20483244652E+03  0.12508676961E+03 0.  0.
        -24    2    1    2    0    0  0.54451021417E+02 -0.61976801508E+02  0.47995464016E+03  0.49197483077E+03  0.69833658334E+02 0.  0.
        -11    1    3    3    0    0  0.11099362130E+03 -0.13815893638E+00 -0.50676792562E+03  0.51878062174E+03  0.00000000000E+00 0.  1.
         12    1    3    3    0    0 -0.99513761501E+01  0.16377632213E+02 -0.83788788760E+02  0.85952416174E+02  0.00000000000E+00 0. -1.
         11    1    5    5    0    0  0.34922861661E+02 -0.29971489188E+01  0.29017750942E+03  0.29228680459E+03  0.00000000000E+00 0. -1.
        -12    1    5    5    0    0  0.19528159756E+02 -0.58979652589E+02  0.18977713075E+03  0.19968802617E+03  0.00000000000E+00 0.  1.
          5    1    4    4  501    0 -0.10263316891E+02 -0.29780380312E+02 -0.24437572577E+02  0.40085833889E+02  0.41800000000E+01 0. -1.
         -5    1    4    4    0  501 -0.14522994967E+03  0.75517708544E+02  0.18146938775E+02  0.16474661263E+03  0.41800000000E+01 0. -1.
</event>
<event>
11    1  0.6930157E-009  0.1359997E+03  0.7561462E-02  0.1112109E+00
         22   -1    0    0    0    0  0.00000000000E+00  0.00000000000E+00  0.20239430090E+04  0.20239430090E+04  0.00000000000E+00 0.  1.
         22   -1    0    0    0    0 -0.00000000000E+00 -0.00000000000E+00 -0.77020928534E+03  0.77020928534E+03  0.00000000000E+00 0. -1.
        -24    2    1    2    0    0 -0.18048966334E+01  0.51850100227E+01 -0.74949457078E+03  0.75396181945E+03  0.81769013592E+02 0.  0.
         25    2    1    2    0    0 -0.26167330884E+02 -0.50361339407E+02  0.25714448949E+03  0.29153233541E+03  0.12508725116E+03 0.  0.
         24    2    1    2    0    0  0.27972227518E+02  0.45176329385E+02  0.17460838049E+04  0.17486581394E+04  0.78570278180E+02 0.  0.
        -11    1    5    5    0    0  0.34129976546E+02  0.26818113389E+01  0.13140365326E+04  0.13144824291E+04  0.00000000000E+00 0.  1.
         12    1    5    5    0    0 -0.61577490285E+01  0.42494518046E+02  0.43204727227E+03  0.43417571030E+03  0.00000000000E+00 0. -1.
         11    1    3    3    0    0 -0.26370053923E+02  0.30993767539E+02 -0.53334606423E+03  0.53489626807E+03  0.00000000000E+00 0. -1.
        -12    1    3    3    0    0  0.24565157290E+02 -0.25808757517E+02 -0.21614850655E+03  0.21906555138E+03  0.00000000000E+00 0.  1.
          5    1    4    4  501    0  0.22434205126E+01  0.36676078068E+02  0.12755236542E+03  0.13280529343E+03  0.41800000000E+01 0. -1.
         -5    1    4    4    0  501 -0.28410751397E+02 -0.87037417475E+02  0.12959212407E+03  0.15872704199E+03  0.41800000000E+01 0. -1.
</event>
<event>
11    1  0.6930157E-009  0.1416632E+03  0.7561462E-02  0.1105715E+00
         22   -1    0    0    0    0  0.00000000000E+00  0.00000000000E+00  0.59307286738E+03  0.59307286738E+03  0.00000000000E+00 0. -1.
         22   -1    0    0    0    0 -0.00000000000E+00 -0.00000000000E+00 -0.10123988026E+03  0.10123988026E+03  0.00000000000E+00 0. -1.
         24    2    1    2    0    0  0.63093479584E+02 -0.36184370648E+02 -0.20174630375E+02  0.11020026653E+03  0.80293132875E+02 0.  0.
         25    2    1    2    0    0 -0.35403054139E+02  0.31911377726E+02  0.11051408127E+03  0.17358911701E+03  0.12509239431E+03 0.  0.
        -24    2    1    2    0    0 -0.27690425444E+02  0.42729929215E+01  0.40149353623E+03  0.41052336410E+03  0.80915725957E+02 0.  0.
        -11    1    3    3    0    0  0.92496878882E+01  0.14253588213E+02 -0.31274444622E+02  0.35592308008E+02  0.00000000000E+00 0.  1.
         12    1    3    3    0    0  0.53843791695E+02 -0.50437958860E+02  0.11099814246E+02  0.74607958519E+02  0.00000000000E+00 0. -1.
         13    1    5    5    0    0 -0.26169104545E+02  0.30313832612E+02  0.35467279047E+03  0.35692651734E+03  0.00000000000E+00 0. -1.
        -14    1    5    5    0    0 -0.15213208986E+01 -0.26040839691E+02  0.46820745759E+02  0.53596846759E+02  0.00000000000E+00 0.  1.
          5    1    4    4  501    0 -0.44176526641E+02 -0.11242151021E+01  0.12763435737E+03  0.13513264205E+03  0.41800000000E+01 0.  1.
         -5    1    4    4    0  501  0.87734725017E+01  0.33035592828E+02 -0.17120276095E+02  0.38456474966E+02  0.41800000000E+01 0.  1.
</event>
<event>
11    1  0.6930157E-009  0.1926967E+03  0.7561462E-02  0.1059812E+00
         22   -1    0    0    0    0  0.00000000000E+00  0.00000000000E+00  0.14866887781E+04  0.14866887781E+04  0.00000000000E+00 0. -1.
         22   -1    0    0    0    0 -0.00000000000E+00 -0.00000000000E+00 -0.17438534027E+04  0.17438534027E+04  0.00000000000E+00 0.  1.
        -24    2    1    2    0    0 -0.14433211776E+03 -0.31549214408E+02 -0.16838842556E+04  0.16922695852E+04  0.80517385468E+02 0.  0.
         25    2    1    2    0    0  0.11568223474E+03 -0.21984914584E+02  0.83039756510E+02  0.19081147889E+03  0.12509078069E+03 0.  0.
         24    2    1    2    0    0  0.28649883022E+02  0.53534128991E+02  0.13436798746E+04  0.13474611167E+04  0.80555180048E+02 0.  0.
        -13    1    5    5    0    0  0.51962331321E+02  0.15126410864E+02  0.60482077703E+03  0.60723723907E+03  0.00000000000E+00 0.  1.
         14    1    5    5    0    0 -0.23312448299E+02  0.38407718128E+02  0.73885909755E+03  0.74022387768E+03  0.00000000000E+00 0. -1.
         13    1    3    3    0    0 -0.34388235018E+02 -0.10397187163E+02 -0.14752856221E+03  0.15183981321E+03  0.00000000000E+00 0. -1.
        -14    1    3    3    0    0 -0.10994388274E+03 -0.21152027244E+02 -0.15363556934E+04  0.15404297719E+04  0.00000000000E+00 0.  1.
          5    1    4    4  501    0 -0.21464531095E+02 -0.19412347570E+02  0.34548194482E+02  0.45261633591E+02  0.41800000000E+01 0. -1.
         -5    1    4    4    0  501  0.13714676583E+03 -0.25725670138E+01  0.48491562028E+02  0.14554984530E+03  0.41800000000E+01 0. -1.
</event>
<event>
11    1  0.6930157E-009  0.1625290E+03  0.7561462E-02  0.1084723E+00
         22   -1    0    0    0    0  0.00000000000E+00  0.00000000000E+00  0.82288714480E+02  0.82288714480E+02  0.00000000000E+00 0. -1.
         22   -1    0    0    0    0 -0.00000000000E+00 -0.00000000000E+00 -0.18252409669E+04  0.18252409669E+04  0.00000000000E+00 0.  1.
        -24    2    1    2    0    0  0.66755873703E+02 -0.63255450449E+02 -0.13284472874E+04  0.13340728754E+04  0.80750496066E+02 0.  0.
         25    2    1    2    0    0  0.43718705951E+02  0.79595527376E+02 -0.40610161490E+03  0.43452568431E+03  0.12508907014E+03 0.  0.
         24    2    1    2    0    0 -0.11047457965E+03 -0.16340076927E+02 -0.84033501200E+01  0.13893112174E+03  0.82216843964E+02 0.  0.
        -11    1    5    5    0    0 -0.55149836867E+02  0.64239360286E+01 -0.42636046039E+02  0.70004313313E+02  0.00000000000E+00 0.  1.
         12    1    5    5    0    0 -0.55324742787E+02 -0.22764012956E+02  0.34232695919E+02  0.68926808429E+02  0.00000000000E+00 0. -1.
         11    1    3    3    0    0  0.17235319688E+02  0.18851424351E+02 -0.35362767837E+03  0.35454896327E+03  0.00000000000E+00 0. -1.
        -12    1    3    3    0    0  0.49520554015E+02 -0.82106874800E+02 -0.97481960907E+03  0.97952391210E+03  0.00000000000E+00 0.  1.
          5    1    4    4  501    0  0.39287642324E+02  0.53101758338E+02 -0.66454116224E+02  0.93791990816E+02  0.41800000000E+01 0.  1.
         -5    1    4    4    0  501  0.44310636269E+01  0.26493769038E+02 -0.33964749868E+03  0.34073369349E+03  0.41800000000E+01 0.  1.
</event>
<event>
11    1  0.6930157E-009  0.1512768E+03  0.7561462E-02  0.1095581E+00
         22   -1    0    0    0    0  0.00000000000E+00  0.00000000000E+00  0.48604436416E+03  0.48604436416E+03  0.00000000000E+00 0. -1.
         22   -1    0    0    0    0 -0.00000000000E+00 -0.00000000000E+00 -0.30068021572E+03  0.30068021572E+03  0.00000000000E+00 0.  1.
         24    2    1    2    0    0  0.81738410051E+02 -0.17712946927E+01 -0.23366208462E+03  0.25945766227E+03  0.77691721331E+02 0.  0.
         25    2    1    2    0    0 -0.13479205553E+03 -0.28050947373E+02  0.14743671871E+03  0.23736225290E+03  0.12508996440E+03 0.  0.
        -24    2    1    2    0    0  0.53053645484E+02  0.29822242066E+02  0.27158951434E+03  0.28990466471E+03  0.81115934915E+02 0.  0.
        -13    1    3    3    0    0  0.81822017527E+02  0.28700415362E+01 -0.11754436325E+03  0.14324718853E+03  0.00000000000E+00 0.  1.
         14    1    3    3    0    0 -0.83607476237E-01 -0.46413362289E+01 -0.11611772136E+03  0.11621047374E+03  0.00000000000E+00 0. -1.
         13    1    5    5    0    0  0.68666417871E+01  0.48102640302E+02  0.17021271122E+03  0.17701237763E+03  0.00000000000E+00 0. -1.
        -14    1    5    5    0    0  0.46187003697E+02 -0.18280398236E+02  0.10137680313E+03  0.11289228708E+03  0.00000000000E+00 0.  1.
          5    1    4    4  501    0  0.61105574580E+01 -0.13755315959E+02  0.78048222595E+02  0.79596137342E+02  0.41800000000E+01 0. -1.
         -5    1    4    4    0  501 -0.14090261299E+03 -0.14295631414E+02  0.69388496118E+02  0.15776611556E+03  0.41800000000E+01 0. -1.
</event>
<event>
11    1  0.6930157E-009  0.1454479E+03  0.7561462E-02  0.1101623E+00
         22   -1    0    0    0    0  0.00000000000E+00  0.00000000000E+00  0.53081902390E+03  0.53081902390E+03  0.00000000000E+00 0.  1.
         22   -1    0    0    0    0 -0.00000000000E+00 -0.00000000000E+00 -0.24500588567E+04  0.24500588567E+04  0.00000000000E+00 0.  1.
         24    2    1    2    0    0  0.71604279565E+02  0.19943242370E+02 -0.12798760515E+04  0.12845075716E+04  0.79699989606E+02 0.  0.
         25    2    1    2    0    0 -0.52970315733E+02  0.52080164719E+02 -0.11576235709E+04  0.11667295745E+04  0.12508944924E+03 0.  0.
        -24    2    1    2    0    0 -0.18633963832E+02 -0.72023407089E+02  0.51825978962E+03  0.52964073451E+03  0.79946871958E+02 0.  0.
        -11    1    3    3    0    0  0.31228858887E+02  0.37149894703E+02 -0.10030986294E+04  0.10042719834E+04  0.00000000000E+00 0.  1.
         12    1    3    3    0    0  0.40375420678E+02 -0.17206652333E+02 -0.27677742216E+03  0.28023558821E+03  0.00000000000E+00 0. -1.
         11    1    5    5    0    0  0.60005317874E+01 -0.23650321689E+02  0.31408174939E+02  0.39772069983E+02  0.00000000000E+00 0. -1.
        -12    1    5    5    0    0 -0.24634495620E+02 -0.48373085400E+02  0.48685161468E+03  0.48986866452E+03  0.00000000000E+00 0.  1.
          5    1    4    4  501    0  0.23371465162E+02  0.50265678358E+02 -0.74552192580E+03  0.74759165194E+03  0.41800000000E+01 0. -1.
         -5    1    4    4    0  501 -0.76341780895E+02  0.18144863605E+01 -0.41210164509E+03  0.41913792259E+03  0.41800000000E+01 0. -1.
</event>
<event>
11    1  0.6930157E-009  0.1605946E+03  0.7561462E-02  0.1086519E+00
         22   -1    0    0    0    0  0.00000000000E+00  0.00000000000E+00  0.44973817624E+03  0.44973817624E+03  0.00000000000E+00 0.  1.
         22   -1    0    0    0    0 -0.00000000000E+00 -0.00000000000E+00 -0.13871754361E+04  0.13871754361E+04  0.00000000000E+00 0.  1.
         24    2    1    2    0    0 -0.77927860803E+02 -0.37556571268E+02 -0.75469720382E+03  0.76386453874E+03  0.80236628544E+02 0.  0.
         25    2    1    2    0    0  0.13442522062E+03  0.59632212373E+02 -0.60879167036E+03  0.63867161255E+03  0.12509192653E+03 0.  0.
        -24    2    1    2    0    0 -0.56497359820E+02 -0.22075641104E+02  0.42605161427E+03  0.43437746111E+03  0.59029781478E+02 0.  0.
        -11    1    3    3    0    0 -0.91399745737E+02 -0.24293122445E+02 -0.52985561172E+03  0.53822954080E+03  0.00000000000E+00 0.  1.
         12    1    3    3    0    0  0.13471884934E+02 -0.13263448823E+02 -0.22484159210E+03  0.22563499794E+03  0.00000000000E+00 0. -1.
         13    1    5    5    0    0 -0.39191969255E+01 -0.29050229892E+02  0.10678826211E+03  0.11073847067E+03  0.00000000000E+00 0. -1.
        -14    1    5    5    0    0 -0.52578162894E+02  0.69745887876E+01  0.31926335216E+03  0.32363899044E+03  0.00000000000E+00 0.  1.
          5    1    4    4  501    0  0.57385224040E+02  0.33026438093E+02 -0.49045496261E+03  0.49492156177E+03  0.41800000000E+01 0. -1.
         -5    1    4    4    0  501  0.77039996583E+02  0.26605774279E+02 -0.11833670774E+03  0.14375005078E+03  0.41800000000E+01 0. -1.
</event>
<event>
11    1  0.6930157E-009  0.1870490E+03  0.7561462E-02  0.1064079E+00
         22   -1    0    0    0    0  0.00000000000E+00  0.00000000000E+00  0.47152907988E+03  0.47152907988E+03  0.00000000000E+00 0.  1.
         22   -1    0    0    0    0 -0.00000000000E+00 -0.00000000000E+00 -0.24826036499E+03  0.24826036499E+03  0.00000000000E+00 0.  1.
        -24    2    1    2    0    0 -0.23089911316E+01 -0.13544409344E+03  0.24923218544E+02  0.15982298931E+03  0.81066560306E+02 0.  0.
         25    2    1    2    0    0  0.70014819670E+02  0.12928378875E+03 -0.11806936020E+03  0.22629821025E+03  0.12511647828E+03 0.  0.
         24    2    1    2    0    0 -0.67705828538E+02  0.61603046974E+01  0.31641485655E+03  0.33366824532E+03  0.81204112669E+02 0.  0.
        -11    1    5    5    0    0 -0.52604967518E+02  0.23989071989E+02  0.29897130518E+03  0.30451042593E+03  0.00000000000E+00 0.  1.
         12    1    5    5    0    0 -0.15100861020E+02 -0.17828767292E+02  0.17443551375E+02  0.29157819384E+02  0.00000000000E+00 0. -1.
         13    1    3    3    0    0 -0.73042347695E+01  0.84716438838E+01 -0.57694606867E+01  0.12585995085E+02  0.00000000000E+00 0. -1.
        -14    1    3    3    0    0  0.49952436379E+01 -0.14391573733E+03  0.30692679230E+02  0.14723699422E+03  0.00000000000E+00 0.  1.
          5    1    4    4  501    0  0.10637437100E+03  0.95329769470E+02 -0.92281316891E+02  0.17010757067E+03  0.41800000000E+01 0.  1.
         -5    1    4    4    0  501 -0.36359551334E+02  0.33954019276E+02 -0.25788043311E+02  0.56190639577E+02  0.41800000000E+01 0.  1.
</event>
<event>
11    1  0.6930157E-009  0.1780052E+03  0.7561462E-02  0.1071268E+00
         22   -1    0    0    0    0  0.00000000000E+00  0.00000000000E+00  0.27786968359E+03  0.27786968359E+03  0.00000000000E+00 0. -1.
         22   -1    0    0    0    0 -0.00000000000E+00 -0.00000000000E+00 -0.21661130308E+04  0.21661130308E+04  0.00000000000E+00 0. -1.
         24    2    1    2    0    0 -0.54570223145E+02 -0.11476166538E+03 -0.20572394004E+04  0.20627759992E+04  0.81625506404E+02 0.  0.
         25    2    1    2    0    0  0.11057224867E+03  0.71367882878E+02  0.18165478981E+01  0.18157384778E+03  0.12508463322E+03 0.  0.
        -24    2    1    2    0    0 -0.56002025527E+02  0.43393782505E+02  0.16717950534E+03  0.19963286734E+03  0.82976186299E+02 0.  0.
        -13    1    3    3    0    0 -0.24848311177E+02 -0.59923157623E+02 -0.48742039817E+03  0.49171828108E+03  0.00000000000E+00 0.  1.
         14    1    3    3    0    0 -0.29721911967E+02 -0.54838507760E+02 -0.15698190022E+04  0.15710577182E+04  0.00000000000E+00 0. -1.
         13    1    5    5    0    0 -0.38431811252E+02  0.56721078538E+02  0.16349977704E+03  0.17727510248E+03  0.00000000000E+00 0. -1.
        -14    1    5    5    0    0 -0.17570214275E+02 -0.13327296033E+02  0.36797283017E+01  0.22357764861E+02  0.00000000000E+00 0.  1.
          5    1    4    4  501    0  0.10836140212E+03  0.62492038734E+02 -0.45520362096E+02  0.13318041951E+03  0.41800000000E+01 0.  1.
         -5    1    4    4    0  501  0.22108465472E+01  0.88758441445E+01  0.47336909994E+02  0.48393428268E+02  0.41800000000E+01 0.  1.
</event>
<event>
11    1  0.6930157E-009  0.2237208E+03  0.7561462E-02  0.1038911E+00
         22   -1    0    0    0    0  0.00000000000E+00  0.00000000000E+00  0.29992023017E+03  0.29992023017E+03  0.00000000000E+00 0. -1.
         22   -1    0    0    0    0 -0.00000000000E+00 -0.00000000000E+00 -0.21374719140E+04  0.21374719140E+04  0.00000000000E+00 0.  1.
        -24    2    1    2    0    0  0.18722180503E+03  0.10698019630E+02 -0.19920280488E+04  0.20025801940E+04  0.83577715252E+02 0.  0.
         25    2    1    2    0    0 -0.13719241976E+03 -0.11490271387E+03 -0.97546116974E+01  0.21855677522E+03  0.12509003897E+03 0.  0.
         24    2    1    2    0    0 -0.50029385271E+02  0.10420469424E+03  0.16423097660E+03  0.21625517498E+03  0.80205544320E+02 0.  0.
        -13    1    5    5    0    0 -0.34658656551E+02  0.62401280349E+02  0.34871803623E+02  0.79442966655E+02  0.00000000000E+00 0.  1.
         14    1    5    5    0    0 -0.15370728721E+02  0.41803413889E+02  0.12935917297E+03  0.13681220832E+03  0.00000000000E+00 0. -1.
         11    1    3    3    0    0  0.40068680597E+01  0.10330121351E+02 -0.29393860234E+02  0.31412822514E+02  0.00000000000E+00 0. -1.
        -12    1    3    3    0    0  0.18321493697E+03  0.36789827898E+00 -0.19626341885E+04  0.19711673715E+04  0.00000000000E+00 0.  1.
          5    1    4    4  501    0  0.14154405044E+02 -0.44847235473E+02 -0.20310457389E+02  0.51396583457E+02  0.41800000000E+01 0.  1.
         -5    1    4    4    0  501 -0.15134682480E+03 -0.70055478395E+02  0.10555845692E+02  0.16716019176E+03  0.41800000000E+01 0.  1.
</event>
<event>
11    1  0.6930157E-009  0.1467927E+03  0.7561462E-02  0.1100202E+00
         22   -1    0    0    0    0  0.00000000000E+00  0.00000000000E+00  0.48782035002E+03  0.48782035002E+03  0.00000000000E+00 0. -1.
         22   -1    0    0    0    0 -0.00000000000E+00 -0.00000000000E+00 -0.68666990735E+02  0.68666990735E+02  0.00000000000E+00 0.  1.
         24    2    1    2    0    0 -0.73374293951E+01 -0.20155903496E+02  0.83588488040E+02  0.11791447137E+03  0.80353524569E+02 0.  0.
         25    2    1    2    0    0 -0.56856780421E+02 -0.29457465441E+02  0.87214569984E+02  0.16539335441E+03  0.12509254461E+03 0.  0.
        -24    2    1    2    0    0  0.64194209817E+02  0.49613368936E+02  0.24835030126E+03  0.27317951497E+03  0.79792182015E+02 0.  0.
        -13    1    3    3    0    0 -0.34339625577E+02  0.97274049919E+00  0.85310005619E+01  0.35396808888E+02  0.00000000000E+00 0.  1.
         14    1    3    3    0    0  0.27002196182E+02 -0.21128643995E+02  0.75057487478E+02  0.82517662486E+02  0.00000000000E+00 0. -1.
         11    1    5    5    0    0  0.36966126426E+02  0.60859200408E+02  0.10522339942E+03  0.12705235363E+03  0.00000000000E+00 0. -1.
        -12    1    5    5    0    0  0.27228083391E+02 -0.11245831471E+02  0.14312690184E+03  0.14612716134E+03  0.00000000000E+00 0.  1.
          5    1    4    4  501    0 -0.37314396244E+02 -0.16494851306E+02  0.11888778919E+03  0.12576256639E+03  0.41800000000E+01 0.  1.
         -5    1    4    4    0  501 -0.19542384178E+02 -0.12962614134E+02 -0.31673219205E+02  0.39630788023E+02  0.41800000000E+01 0.  1.
</event>
<event>
11    1  0.6930157E-009  0.1406071E+03  0.7561462E-02  0.1106882E+00
         22   -1    0    0    0    0  0.00000000000E+00  0.00000000000E+00  0.85379194605E+03  0.85379194605E+03  0.00000000000E+00 0. -1.
         22   -1    0    0    0    0 -0.00000000000E+00 -0.00000000000E+00 -0.10718082832E+04  0.10718082832E+04  0.00000000000E+00 0.  1.
         24    2    1    2    0    0  0.35104519926E+02 -0.54233193727E+02 -0.10517471097E+04  0.10568535056E+04  0.81202110852E+02 0.  0.
         25    2    1    2    0    0 -0.33424371459E+02 -0.69792764004E+01  0.32306666972E+03  0.34811718011E+03  0.12509036373E+03 0.  0.
        -24    2    1    2    0    0 -0.16801484672E+01  0.61212470127E+02  0.51066410287E+03  0.52062954355E+03  0.80792983928E+02 0.  0.
        -13    1    3    3    0    0  0.17273708882E+02 -0.42036758171E+02 -0.99645676626E+03  0.99749263511E+03  0.00000000000E+00 0.  1.
         14    1    3    3    0    0  0.17830811044E+02 -0.12196435555E+02 -0.55290343468E+02  0.59360870475E+02  0.00000000000E+00 0. -1.
         13    1    5    5    0    0 -0.83995178376E+01  0.58931115064E+02  0.51004456175E+03  0.51350645876E+03  0.00000000000E+00 0. -1.
        -14    1    5    5    0    0  0.67193693704E+01  0.22813550634E+01  0.61954112809E+00  0.71230847862E+01  0.00000000000E+00 0.  1.
          5    1    4    4  501    0  0.33174670122E+02 -0.35625770707E+02  0.73960145597E+02  0.88641580609E+02  0.41800000000E+01 0. -1.
         -5    1    4    4    0  501 -0.66599041581E+02  0.28646494307E+02  0.24910652412E+03  0.25947559950E+03  0.41800000000E+01 0. -1.
</event>
<event>
11    1  0.6930157E-009  0.1394366E+03  0.7561462E-02  0.1108189E+00
         22   -1    0    0    0    0  0.00000000000E+00  0.00000000000E+00  0.86814286712E+03  0.86814286712E+03  0.00000000000E+00 0.  1.
         22   -1    0    0    0    0 -0.00000000000E+00 -0.00000000000E+00 -0.38145167329E+03  0.38145167329E+03  0.00000000000E+00 0.  1.
         24    2    1    2    0    0  0.71307148371E+01  0.44933075911E+02 -0.19237036994E+03  0.21327306269E+03  0.80057552008E+02 0.  0.
         25    2    1    2    0    0 -0.16356007035E+02  0.16739050170E+02 -0.15244749852E+03  0.19858411308E+03  0.12509074865E+03 0.  0.
        -24    2    1    2    0    0  0.92252921978E+01 -0.61672126081E+02  0.83150906228E+03  0.83773736464E+03  0.80672264747E+02 0.  0.
        -13    1    3    3    0    0  0.88563888199E+01  0.40505880598E+02 -0.20001754989E+03  0.20426987602E+03  0.00000000000E+00 0.  1.
         14    1    3    3    0    0 -0.17256739828E+01  0.44271953126E+01  0.76471799490E+01  0.90031866693E+01  0.00000000000E+00 0. -1.
         13    1    5    5    0    0 -0.27226954172E+02 -0.31553341070E+02  0.19143428525E+03  0.19591836549E+03  0.00000000000E+00 0. -1.
        -14    1    5    5    0    0  0.36452246370E+02 -0.30118785011E+02  0.64007477703E+03  0.64181899915E+03  0.00000000000E+00 0.  1.
          5    1    4    4  501    0  0.80020906086E+01 -0.51276187859E+02 -0.43777645986E+02  0.68023786895E+02  0.41800000000E+01 0. -1.
         -5    1    4    4    0  501 -0.24358097644E+02  0.68015238029E+02 -0.10866985253E+03  0.13056032619E+03  0.41800000000E+01 0. -1.
</event>
<event>
11    1  0.6930157E-009  0.1495401E+03  0.7561462E-02  0.1097350E+00
         22   -1    0    0    0    0  0.00000000000E+00  0.00000000000E+00  0.67112025850E+03  0.67112025850E+03  0.00000000000E+00 0. -1.
         22   -1    0    0    0    0 -0.00000000000E+00 -0.00000000000E+00 -0.20150344134E+03  0.20150344134E+03  0.00000000000E+00 0.  1.
         24    2    1    2    0    0 -0.14864965631E+02 -0.76970579889E+02 -0.12050391551E+03  0.16466187432E+03  0.80292601341E+02 0.  0.
         25    2    1    2    0    0  0.66516993560E+02  0.89648852839E+02  0.74985337629E+02  0.18366365349E+03  0.12509240387E+03 0.  0.
        -24    2    1    2    0    0 -0.51652027929E+02 -0.12678272949E+02  0.51513539505E+03  0.52429817203E+03  0.81825591159E+02 0.  0.
        -11    1    3    3    0    0  0.16778286020E+02 -0.47651230408E+01 -0.67373830671E+02  0.69594901672E+02  0.00000000000E+00 0.  1.
         12    1    3    3    0    0 -0.31643251652E+02 -0.72205456848E+02 -0.53130084837E+02  0.95066972649E+02  0.00000000000E+00 0. -1.
         13    1    5    5    0    0 -0.15633048477E+02  0.34400044384E+01  0.43175327247E+03  0.43204989772E+03  0.00000000000E+00 0. -1.
        -14    1    5    5    0    0 -0.36018979452E+02 -0.16118277388E+02  0.83382122579E+02  0.92248274306E+02  0.00000000000E+00 0.  1.
          5    1    4    4  501    0  0.33805123107E+02  0.70484194020E+01  0.87206409479E+02  0.93887681932E+02  0.41800000000E+01 0.  1.
         -5    1    4    4    0  501  0.32711870453E+02  0.82600433437E+02 -0.12221071850E+02  0.89775971560E+02  0.41800000000E+01 0.  1.
</event>
<event>
11    1  0.6930157E-009  0.1705713E+03  0.7561462E-02  0.1077536E+00
         22   -1    0    0    0    0  0.00000000000E+00  0.00000000000E+00  0.12074128266E+04  0.12074128266E+04  0.00000000000E+00 0.  1.
         22   -1    0    0    0    0 -0.00000000000E+00 -0.00000000000E+00 -0.12496238417E+04  0.12496238417E+04  0.00000000000E+00 0. -1.
         24    2    1    2    0    0  0.11445295557E+03  0.22382763775E+02 -0.12245258744E+04  0.12326008958E+04  0.78999265982E+02 0.  0.
         25    2    1    2    0    0 -0.73495112974E+02  0.25925781861E+02  0.28027688969E+03  0.31666415011E+03  0.12508945310E+03 0.  0.
        -24    2    1    2    0    0 -0.40957842591E+02 -0.48308545636E+02  0.90203796962E+03  0.90777162249E+03  0.79784456619E+02 0.  0.
        -13    1    3    3    0    0  0.63231036537E+02  0.11270308591E+02 -0.31048757998E+03  0.31706106850E+03  0.00000000000E+00 0.  1.
         14    1    3    3    0    0  0.51221919029E+02  0.11112455184E+02 -0.91403829441E+03  0.91553982726E+03  0.00000000000E+00 0. -1.
         11    1    5    5    0    0 -0.30016827890E+02 -0.48510695007E+02  0.28586290220E+03  0.29149939338E+03  0.00000000000E+00 0. -1.
        -12    1    5    5    0    0 -0.10941014700E+02  0.20214937126E+00  0.61617506742E+03  0.61627222912E+03  0.00000000000E+00 0.  1.
          5    1    4    4  501    0  0.10477763633E+02 -0.55258692214E+01  0.18622882237E+03  0.18665199019E+03  0.41800000000E+01 0.  1.
         -5    1    4    4    0  501 -0.83972876607E+02  0.31451651082E+02  0.94048067320E+02  0.13001215992E+03  0.41800000000E+01 0.  1.
</event>
<event>
11    1  0.6930157E-009  0.1268660E+03  0.7561462E-02  0.1123181E+00
         22   -1    0    0    0    0  0.00000000000E+00  0.00000000000E+00  0.90820350019E+03  0.90820350019E+03  0.00000000000E+00 0.  1.
         22   -1    0    0    0    0 -0.00000000000E+00 -0.00000000000E+00 -0.10290296068E+04  0.10290296068E+04  0.00000000000E+00 0.  1.
        -24    2    1    2    0    0  0.23398475435E+02  0.84436499775E+01 -0.99793653595E+03  0.10013589252E+04  0.78889691602E+02 0.  0.
         25    2    1    2    0    0 -0.13245561025E+01 -0.12024699953E+01  0.11846132743E+03  0.17229104510E+03  0.12509163738E+03 0.  0.
         24    2    1    2    0    0 -0.22073919333E+02 -0.72411799822E+01  0.75864910193E+03  0.76358313667E+03  0.83492838868E+02 0.  0.
        -11    1    5    5    0    0 -0.31868244411E+02  0.53120685012E+01  0.73072323356E+03  0.73143711086E+03  0.00000000000E+00 0.  1.
         12    1    5    5    0    0  0.97943250785E+01 -0.12553248483E+02  0.27925868367E+02  0.32146025808E+02  0.00000000000E+00 0. -1.
         11    1    3    3    0    0  0.35803441867E+02 -0.27115970829E+02 -0.57210387261E+03  0.57386409836E+03  0.00000000000E+00 0. -1.
        -12    1    3    3    0    0 -0.12404966432E+02  0.35559620806E+02 -0.42583266334E+03  0.42749482686E+03  0.00000000000E+00 0.  1.
          5    1    4    4  501    0 -0.12914846388E+02  0.58999766955E+02  0.39713485316E+02  0.72404413360E+02  0.41800000000E+01 0.  1.
         -5    1    4    4    0  501  0.11590290285E+02 -0.60202236950E+02  0.78747842111E+02  0.99886631738E+02  0.41800000000E+01 0.  1.
</event>
<event>
11    1  0.6930157E-009  0.1737088E+03  0.7561462E-02  0.1074848E+00
         22   -1    0    0    0    0  0.00000000000E+00  0.00000000000E+00  0.63208381783E+03  0.63208381783E+03  0.00000000000E+00 0.  1.
         22   -1    0    0    0    0 -0.00000000000E+00 -0.00000000000E+00 -0.43801927451E+03  0.43801927451E+03  0.00000000000E+00 0.  1.
         24    2    1    2    0    0 -0.71437385780E+02  0.96430818192E+02 -0.37975821632E+03  0.40612262061E+03  0.79480043532E+02 0.  0.
         25    2    1    2    0    0  0.72525506570E+02 -0.10593269367E+03  0.15623064410E+03  0.23777555391E+03  0.12509002834E+03 0.  0.
        -24    2    1    2    0    0 -0.10881207905E+01  0.95018754761E+01  0.41759211554E+03  0.42620491783E+03  0.84711199831E+02 0.  0.
        -13    1    3    3    0    0 -0.74763474287E+02  0.55816559881E+02 -0.18557055518E+03  0.20770531143E+03  0.00000000000E+00 0.  1.
         14    1    3    3    0    0  0.33260885073E+01  0.40614258311E+02 -0.19418766114E+03  0.19841730918E+03  0.00000000000E+00 0. -1.
         13    1    5    5    0    0 -0.33279756112E+02  0.65006478195E+01  0.77676606661E+02  0.84755270109E+02  0.00000000000E+00 0. -1.
        -14    1    5    5    0    0  0.32191635321E+02  0.30012276566E+01  0.33991550888E+03  0.34144964772E+03  0.00000000000E+00 0.  1.
          5    1    4    4  501    0 -0.76376453392E+00 -0.76745123185E+02  0.18594951136E+02  0.79079971401E+02  0.41800000000E+01 0.  1.
         -5    1    4    4    0  501  0.73289271104E+02 -0.29187570483E+02  0.13763569296E+03  0.15869558251E+03  0.41800000000E+01 0.  1.
</event>
<event>
11    1  0.6930157E-009  0.1363345E+03  0.7561462E-02  0.1111722E+00
         22   -1    0    0    0    0  0.00000000000E+00  0.00000000000E+00  0.14894382373E+04  0.14894382373E+04  0.00000000000E+00 0.  1.
         22   -1    0    0    0    0 -0.00000000000E+00 -0.00000000000E+00 -0.78343906762E+02  0.78343906762E+02  0.00000000000E+00 0. -1.
        -24    2    1    2    0    0  0.52521165805E+02 -0.19428026693E+02 -0.33752253427E+02  0.10406741375E+03  0.80962280819E+02 0.  0.
         25    2    1    2    0    0 -0.25781768587E+02  0.61536569100E+01  0.54288551073E+03  0.55774084557E+03  0.12509039117E+03 0.  0.
         24    2    1    2    0    0 -0.26739397219E+02  0.13274369783E+02  0.90196107318E+03  0.90597388469E+03  0.79772789547E+02 0.  0.
        -13    1    5    5    0    0 -0.30231430329E+02 -0.28591422438E+02  0.53503928380E+03  0.53665486491E+03  0.00000000000E+00 0.  1.
         14    1    5    5    0    0  0.34920331101E+01  0.41865792221E+02  0.36692178938E+03  0.36931901979E+03  0.00000000000E+00 0. -1.
         11    1    3    3    0    0  0.58908872431E+01  0.54765435899E+01 -0.48517704016E+02  0.49179901232E+02  0.00000000000E+00 0. -1.
        -12    1    3    3    0    0  0.46630278562E+02 -0.24904570283E+02  0.14765450589E+02  0.54887512522E+02  0.00000000000E+00 0.  1.
          5    1    4    4  501    0  0.25060193441E+02  0.29594761046E+01  0.45757990474E+03  0.45829424328E+03  0.41800000000E+01 0. -1.
         -5    1    4    4    0  501 -0.50841962028E+02  0.31941808054E+01  0.85305605990E+02  0.99446602291E+02  0.41800000000E+01 0. -1.
</event>
<event>
11    1  0.6930157E-009  0.1361101E+03  0.7561462E-02  0.1111982E+00
         22   -1    0    0    0    0  0.00000000000E+00  0.00000000000E+00  0.28795461513E+04  0.28795461513E+04  0.00000000000E+00 0.  1.
         22   -1    0    0    0    0 -0.00000000000E+00 -0.00000000000E+00 -0.10418740634E+03  0.10418740634E+03  0.00000000000E+00 0. -1.
         24    2    1    2    0    0  0.24611657824E+02  0.43047474069E+02 -0.40415864859E+02  0.10236736198E+03  0.79917557160E+02 0.  0.
         25    2    1    2    0    0 -0.64729649184E+02 -0.49395532352E+02  0.14173465544E+03  0.20583132565E+03  0.12509187011E+03 0.  0.
        -24    2    1    2    0    0  0.40117991360E+02  0.63480582831E+01  0.26740399544E+04  0.26755348700E+04  0.79670646533E+02 0.  0.
        -11    1    3    3    0    0 -0.23356528949E+02  0.19858566971E+02  0.65424631183E+01  0.31347949699E+02  0.00000000000E+00 0.  1.
         12    1    3    3    0    0  0.47968186773E+02  0.23188907098E+02 -0.46958327978E+02  0.71019412284E+02  0.00000000000E+00 0. -1.
         11    1    5    5    0    0  0.15164875850E+02  0.42693757807E+02  0.13914474616E+04  0.13921848903E+04  0.00000000000E+00 0. -1.
        -12    1    5    5    0    0  0.24953115510E+02 -0.36345699524E+02  0.12825924928E+04  0.12833499797E+04  0.00000000000E+00 0.  1.
          5    1    4    4  501    0 -0.43012647725E+02  0.11422404131E+02 -0.54671074294E+01  0.45032442129E+02  0.41800000000E+01 0.  1.
         -5    1    4    4    0  501 -0.21717001460E+02 -0.60817936483E+02  0.14720176287E+03  0.16079888352E+03  0.41800000000E+01 0.  1.
</event>
<event>
11    1  0.6930157E-009  0.1356168E+03  0.7561462E-02  0.1112554E+00
         22   -1    0    0    0    0  0.00000000000E+00  0.00000000000E+00  0.26747733573E+04  0.26747733573E+04  0.00000000000E+00 0. -1.
         22   -1    0    0    0    0 -0.00000000000E+00 -0.00000000000E+00 -0.72343927485E+02  0.72343927485E+02  0.00000000000E+00 0. -1.
        -24    2    1    2    0    0 -0.16085335244E+02  0.54452960353E+02 -0.12144073407E+02  0.99464325243E+02  0.80757727655E+02 0.  0.
         25    2    1    2    0    0 -0.89286376608E+01 -0.29099815077E+02  0.24878741444E+03  0.28012418382E+03  0.12509141046E+03 0.  0.
         24    2    1    2    0    0  0.25013972904E+02 -0.25353145276E+02  0.23657860888E+04  0.23675287758E+04  0.83547622209E+02 0.  0.
        -11    1    5    5    0    0 -0.25801208000E+02 -0.29968591644E+02  0.94625245785E+03  0.94707841956E+03  0.00000000000E+00 0.  1.
         12    1    5    5    0    0  0.50815180904E+02  0.46154463688E+01  0.14195336310E+04  0.14204503562E+04  0.00000000000E+00 0. -1.
         13    1    3    3    0    0 -0.22323696041E+02  0.40895172381E+02 -0.44126643338E+02  0.64171046285E+02  0.00000000000E+00 0. -1.
        -14    1    3    3    0    0  0.62383607975E+01  0.13557787972E+02  0.31982569932E+02  0.35293278958E+02  0.00000000000E+00 0.  1.
          5    1    4    4  501    0  0.24094258979E+02 -0.59764587169E+02  0.68071307229E+02  0.93827045478E+02  0.41800000000E+01 0. -1.
         -5    1    4    4    0  501 -0.33022896639E+02  0.30664772091E+02  0.18071610721E+03  0.18629713835E+03  0.41800000000E+01 0. -1.
</event>
<event>
11    1  0.6930157E-009  0.1409588E+03  0.7561462E-02  0.1106492E+00
         22   -1    0    0    0    0  0.00000000000E+00  0.00000000000E+00  0.79703864415E+02  0.79703864415E+02  0.00000000000E+00 0.  1.
         22   -1    0    0    0    0 -0.00000000000E+00 -0.00000000000E+00 -0.10279517176E+04  0.10279517176E+04  0.00000000000E+00 0. -1.
        -24    2    1    2    0    0  0.31989325297E+02  0.28696389302E+02 -0.76432222505E+03  0.76971252655E+03  0.80138069206E+02 0.  0.
         25    2    1    2    0    0 -0.82825540122E+02  0.78017623107E+01 -0.18163253837E+03  0.23570807371E+03  0.12508788681E+03 0.  0.
         24    2    1    2    0    0  0.50836214825E+02 -0.36498151612E+02 -0.22930898045E+01  0.10223498179E+03  0.80810255735E+02 0.  0.
        -11    1    5    5    0    0  0.31936033883E+02 -0.14040873104E+02  0.38515817109E+02  0.51966571421E+02  0.00000000000E+00 0.  1.
         12    1    5    5    0    0  0.18900180942E+02 -0.22457278509E+02 -0.40808906913E+02  0.50268410370E+02  0.00000000000E+00 0. -1.
         13    1    3    3    0    0  0.49998047362E+02  0.28774957598E+02 -0.71285844192E+03  0.71518875910E+03  0.00000000000E+00 0. -1.
        -14    1    3    3    0    0 -0.18008722065E+02 -0.78568296849E-01 -0.51463783128E+02  0.54523767453E+02  0.00000000000E+00 0.  1.
          5    1    4    4  501    0 -0.64886048830E+02  0.21673829758E+01 -0.19925137212E+03  0.20960314543E+03  0.41800000000E+01 0. -1.
         -5    1    4    4    0  501 -0.17939491293E+02  0.56343793348E+01  0.17618833746E+02  0.26104928287E+02  0.41800000000E+01 0. -1.
</event>
<event>
11    1  0.6930157E-009  0.1360611E+03  0.7561462E-02  0.1112038E+00
         22   -1    0    0    0    0  0.00000000000E+00  0.00000000000E+00  0.53539515319E+03  0.53539515319E+03  0.00000000000E+00 0.  1.
         22   -1    0    0    0    0 -0.00000000000E+00 -0.00000000000E+00 -0.13233375715E+04  0.13233375715E+04  0.00000000000E+00 0.  1.
        -24    2    1    2    0    0  0.27096546599E+02  0.46198155966E+02 -0.12842085945E+04  0.12877956115E+04  0.79732869126E+02 0.  0.
         25    2    1    2    0    0 -0.48084990599E+02 -0.31072358118E+02  0.11112905608E+03  0.17684610427E+03  0.12508884735E+03 0.  0.
         24    2    1    2    0    0  0.20988444000E+02 -0.15125797848E+02  0.38513712017E+03  0.39409100883E+03  0.79421768853E+02 0.  0.
        -11    1    5    5    0    0  0.31656193126E+02 -0.37667765069E+02  0.32906285521E+03  0.33272111110E+03  0.00000000000E+00 0.  1.
         12    1    5    5    0    0 -0.10667749126E+02  0.22541967222E+02  0.56074264958E+02  0.61369897737E+02  0.00000000000E+00 0. -1.
         11    1    3    3    0    0 -0.10127551146E+02  0.46826021591E+02 -0.40913831536E+03  0.41193373822E+03  0.00000000000E+00 0. -1.
        -12    1    3    3    0    0  0.37224097745E+02 -0.62786562493E+00 -0.87507027916E+03  0.87586187332E+03  0.00000000000E+00 0.  1.
          5    1    4    4  501    0 -0.87570281546E+02 -0.25267222178E+01  0.61127990099E+02  0.10690669815E+03  0.41800000000E+01 0. -1.
         -5    1    4    4    0  501  0.39485290947E+02 -0.28545635900E+02  0.50001065979E+02  0.69939406126E+02  0.41800000000E+01 0. -1.
</event>
<event>
11    1  0.6930157E-009  0.1345505E+03  0.7561462E-02  0.1113801E+00
         22   -1    0    0    0    0  0.00000000000E+00  0.00000000000E+00  0.57150198763E+03  0.57150198763E+03  0.00000000000E+00 0.  1.
         22   -1    0    0    0    0 -0.00000000000E+00 -0.00000000000E+00 -0.25574513521E+03  0.25574513521E+03  0.00000000000E+00 0.  1.
         24    2    1    2    0    0  0.22686779743E+02 -0.47011743981E+02 -0.19804132824E+03  0.22087505028E+03  0.82708077569E+02 0.  0.
         25    2    1    2    0    0 -0.40634953575E+02  0.80011349520E+01  0.61730995771E+02  0.14549924030E+03  0.12507635859E+03 0.  0.
        -24    2    1    2    0    0  0.17948173832E+02  0.39010609029E+02  0.45206718489E+03  0.46087283226E+03  0.78708724424E+02 0.  0.
        -13    1    3    3    0    0  0.32027700798E+02 -0.59124235241E+02 -0.19360373761E+03  0.20494842284E+03  0.00000000000E+00 0.  1.
         14    1    3    3    0    0 -0.93409210550E+01  0.12112491260E+02 -0.44375906358E+01  0.15926627431E+02  0.00000000000E+00 0. -1.
         11    1    5    5    0    0  0.59113923189E+01 -0.34746114058E+01  0.20688746196E+00  0.68600499992E+01  0.00000000000E+00 0. -1.
        -12    1    5    5    0    0  0.12036781513E+02  0.42485220435E+02  0.45186029743E+03  0.45401278226E+03  0.00000000000E+00 0.  1.
          5    1    4    4  501    0 -0.68346215285E+02  0.17445464048E+02  0.83049928553E+02  0.10904270903E+03  0.41800000000E+01 0.  1.
         -5    1    4    4    0  501  0.27711261710E+02 -0.94443290965E+01 -0.21318932783E+02  0.36456531275E+02  0.41800000000E+01 0.  1.
</event>
<event>
11    1  0.6930157E-009  0.2070411E+03  0.7561462E-02  0.1049653E+00
         22   -1    0    0    0    0  0.00000000000E+00  0.00000000000E+00  0.45006585032E+03  0.45006585032E+03  0.00000000000E+00 0.  1.
         22   -1    0    0    0    0 -0.00000000000E+00 -0.00000000000E+00 -0.40835143599E+03  0.40835143599E+03  0.00000000000E+00 0.  1.
         24    2    1    2    0    0  0.32156565151E+02  0.67961597692E+02 -0.29359794197E+03  0.31346174644E+03  0.80035564031E+02 0.  0.
         25    2    1    2    0    0  0.16235878962E+02 -0.20901367127E+03  0.12275142234E+03  0.27325093109E+03  0.12509133108E+03 0.  0.
        -24    2    1    2    0    0 -0.48392444114E+02  0.14105207357E+03  0.21256093396E+03  0.27170460878E+03  0.80023294607E+02 0.  0.
        -13    1    3    3    0    0  0.20284237295E+02  0.85885415744E+02 -0.23173698347E+03  0.24797133792E+03  0.00000000000E+00 0.  1.
         14    1    3    3    0    0  0.11872327856E+02 -0.17923818051E+02 -0.61860958498E+02  0.65490408524E+02  0.00000000000E+00 0. -1.
         13    1    5    5    0    0 -0.21439903358E+01  0.11716418976E+03  0.14731433427E+03  0.18823803319E+03  0.00000000000E+00 0. -1.
        -14    1    5    5    0    0 -0.46248453778E+02  0.23887883810E+02  0.65246599688E+02  0.83466575590E+02  0.00000000000E+00 0.  1.
          5    1    4    4  501    0 -0.21235799961E+02 -0.91318200984E+02 -0.69394648913E+01  0.94104206091E+02  0.41800000000E+01 0.  1.
         -5    1    4    4    0  501  0.37471678924E+02 -0.11769547028E+03  0.12969088723E+03  0.17914672500E+03  0.41800000000E+01 0.  1.
</event>
<event>
11    1  0.6930157E-009  0.1253726E+03  0.7561462E-02  0.1125089E+00
         22   -1    0    0    0    0  0.00000000000E+00  0.00000000000E+00  0.31744398546E+03  0.31744398546E+03  0.00000000000E+00 0. -1.
         22   -1    0    0    0    0 -0.00000000000E+00 -0.00000000000E+00 -0.24109357972E+03  0.24109357972E+03  0.00000000000E+00 0. -1.
         24    2    1    2    0    0  0.11363863365E+02 -0.96542459598E+01 -0.12828998379E+03  0.15252017788E+03  0.81127941333E+02 0.  0.
         25    2    1    2    0    0  0.68682695436E+01 -0.14018262000E+02 -0.52649267106E+02  0.13660880646E+03  0.12508531441E+03 0.  0.
        -24    2    1    2    0    0 -0.18232132909E+02  0.23672507960E+02  0.25728965663E+03  0.26940858083E+03  0.74096003371E+02 0.  0.
        -11    1    3    3    0    0 -0.22812786534E+01 -0.32815827068E+02 -0.15124152619E+02  0.36205285952E+02  0.00000000000E+00 0.  1.
         12    1    3    3    0    0  0.13645142019E+02  0.23161581108E+02 -0.11316583117E+03  0.11631489193E+03  0.00000000000E+00 0. -1.
         11    1    5    5    0    0 -0.21414192970E+02  0.17775176168E+02  0.26049707037E+03  0.26197948053E+03  0.00000000000E+00 0. -1.
        -12    1    5    5    0    0  0.31820600608E+01  0.58973317913E+01 -0.32074137372E+01  0.74291003068E+01  0.00000000000E+00 0.  1.
          5    1    4    4  501    0 -0.35767718287E+02 -0.43747812847E+02 -0.61603851151E+02  0.83700105597E+02  0.41800000000E+01 0. -1.
         -5    1    4    4    0  501  0.42635987831E+02  0.29729550848E+02  0.89545840448E+01  0.52908700866E+02  0.41800000000E+01 0. -1.
</event>
<event>
11    1  0.6930157E-009  0.1785511E+03  0.7561462E-02  0.1070821E+00
         22   -1    0    0    0    0  0.00000000000E+00  0.00000000000E+00  0.21111352726E+02  0.21111352726E+02  0.00000000000E+00 0. -1.
         22   -1    0    0    0    0 -0.00000000000E+00 -0.00000000000E+00 -0.20449645892E+04  0.20449645892E+04  0.00000000000E+00 0.  1.
         24    2    1    2    0    0  0.11386892140E+03 -0.67589142588E+02 -0.70645931049E+03  0.72210452850E+03  0.69395743706E+02 0.  0.
         25    2    1    2    0    0 -0.10307034766E+03  0.66745148532E+02 -0.10480218137E+04  0.10625797504E+04  0.12509033714E+03 0.  0.
        -24    2    1    2    0    0 -0.10798573743E+02  0.84399405573E+00 -0.26937211226E+03  0.28139166305E+03  0.80638772630E+02 0.  0.
        -11    1    3    3    0    0  0.93639099768E+02 -0.42923776233E+02 -0.64169394313E+03  0.64990910766E+03  0.00000000000E+00 0.  1.
         12    1    3    3    0    0  0.20229821634E+02 -0.24665366355E+02 -0.64765367363E+02  0.72195420841E+02  0.00000000000E+00 0. -1.
         13    1    5    5    0    0 -0.32070677644E+02  0.48535993001E+01 -0.42371686061E+02  0.53361461471E+02  0.00000000000E+00 0. -1.
        -14    1    5    5    0    0  0.21272103901E+02 -0.40096052444E+01 -0.22700042620E+03  0.22803020158E+03  0.00000000000E+00 0.  1.
          5    1    4    4  501    0 -0.44457008745E+01  0.43867685047E+02 -0.10270696373E+03  0.11184959028E+03  0.41800000000E+01 0.  1.
         -5    1    4    4    0  501 -0.98624646785E+02  0.22877463485E+02 -0.94531485001E+03  0.95073016010E+03  0.41800000000E+01 0.  1.
</event>
<event>
11    1  0.6930157E-009  0.1459571E+03  0.7561462E-02  0.1101083E+00
         22   -1    0    0    0    0  0.00000000000E+00  0.00000000000E+00  0.26854236156E+03  0.26854236156E+03  0.00000000000E+00 0.  1.
         22   -1    0    0    0    0 -0.00000000000E+00 -0.00000000000E+00 -0.13187827750E+04  0.13187827750E+04  0.00000000000E+00 0. -1.
        -24    2    1    2    0    0  0.33731572479E+02  0.66256309606E+02 -0.12288388217E+04  0.12337370033E+04  0.80835796229E+02 0.  0.
         25    2    1    2    0    0 -0.78440825394E+02 -0.79872108276E+02  0.19136010539E+02  0.16896956585E+03  0.12510799541E+03 0.  0.
         24    2    1    2    0    0  0.44709252915E+02  0.13615798670E+02  0.15946239770E+03  0.18461856748E+03  0.80445334926E+02 0.  0.
        -11    1    5    5    0    0  0.21135678722E+02 -0.23549309771E+01  0.15420326436E+03  0.15566280659E+03  0.00000000000E+00 0.  1.
         12    1    5    5    0    0  0.23573574192E+02  0.15970729647E+02  0.52591333340E+01  0.28955760896E+02  0.00000000000E+00 0. -1.
         13    1    3    3    0    0  0.58560453841E+02  0.59580094875E+02 -0.98988272600E+03  0.99340169402E+03  0.00000000000E+00 0. -1.
        -14    1    3    3    0    0 -0.24828881362E+02  0.66762147311E+01 -0.23895609570E+03  0.24033530924E+03  0.00000000000E+00 0.  1.
          5    1    4    4  501    0 -0.21823700668E+02 -0.10216176887E+03  0.25596838816E+02  0.10763815071E+03  0.41800000000E+01 0.  1.
         -5    1    4    4    0  501 -0.56617124726E+02  0.22289660596E+02 -0.64608282769E+01  0.61331415146E+02  0.41800000000E+01 0.  1.
</event>
<event>
11    1  0.6930157E-009  0.1303366E+03  0.7561462E-02  0.1118856E+00
         22   -1    0    0    0    0  0.00000000000E+00  0.00000000000E+00  0.13141201590E+04  0.13141201590E+04  0.00000000000E+00 0. -1.
         22   -1    0    0    0    0 -0.00000000000E+00 -0.00000000000E+00 -0.57060911393E+03  0.57060911393E+03  0.00000000000E+00 0. -1.
        -24    2    1    2    0    0 -0.37537123658E+00 -0.37303356416E+02 -0.53363637306E+03  0.54103424930E+03  0.80985177393E+02 0.  0.
         25    2    1    2    0    0  0.66701815224E+01  0.12842088525E+02  0.93349223919E+02  0.15675201354E+03  0.12509078936E+03 0.  0.
         24    2    1    2    0    0 -0.62948102859E+01  0.24461267890E+02  0.11837981942E+04  0.11869430101E+04  0.82568555260E+02 0.  0.
        -13    1    5    5    0    0  0.16302282511E+02  0.10300118842E+01  0.48474485349E+02  0.51152722991E+02  0.00000000000E+00 0.  1.
         14    1    5    5    0    0 -0.22597092797E+02  0.23431256006E+02  0.11353237089E+04  0.11357902871E+04  0.00000000000E+00 0. -1.
         13    1    3    3    0    0  0.81293385719E+01 -0.49026097671E+02 -0.51519208028E+03  0.51758334979E+03  0.00000000000E+00 0. -1.
        -14    1    3    3    0    0 -0.85047098085E+01  0.11722741256E+02 -0.18444292779E+02  0.23450899505E+02  0.00000000000E+00 0.  1.
          5    1    4    4  501    0 -0.33757484113E+02 -0.38882868728E+02  0.69891314378E+02  0.86912101802E+02  0.41800000000E+01 0. -1.
         -5    1    4    4    0  501  0.40427665636E+02  0.51724957253E+02  0.23457909541E+02  0.69839911738E+02  0.41800000000E+01 0. -1.
</event>
<event>
11    1  0.6930157E-009  0.2184529E+03  0.7561462E-02  0.1042191E+00
         22   -1    0    0    0    0  0.00000000000E+00  0.00000000000E+00  0.31788389552E+03  0.31788389552E+03  0.00000000000E+00 0. -1.
         22   -1    0    0    0    0 -0.00000000000E+00 -0.00000000000E+00 -0.82114061281E+03  0.82114061281E+03  0.00000000000E+00 0.  1.
         24    2    1    2    0    0  0.51023477630E+02 -0.13351076128E+03 -0.50352311543E+03  0.52952991261E+03  0.80236412770E+02 0.  0.
         25    2    1    2    0    0 -0.16451184487E+03  0.24905745413E+03 -0.16637060997E+03  0.36389690714E+03  0.12509203253E+03 0.  0.
        -24    2    1    2    0    0  0.11348836725E+03 -0.11554669284E+03  0.16663700810E+03  0.24559768858E+03  0.79496442946E+02 0.  0.
        -11    1    3    3    0    0 -0.39339498937E+01 -0.10931822518E+02 -0.16379642482E+03  0.16420794587E+03  0.00000000000E+00 0.  1.
         12    1    3    3    0    0  0.54957427523E+02 -0.12257893877E+03 -0.33972669061E+03  0.36532196674E+03  0.00000000000E+00 0. -1.
         11    1    5    5    0    0  0.82904336796E+02 -0.11565747944E+03  0.10518878069E+03  0.17695892516E+03  0.00000000000E+00 0. -1.
        -12    1    5    5    0    0  0.30584030449E+02  0.11078659935E+00  0.61448227413E+02  0.68638763424E+02  0.00000000000E+00 0.  1.
          5    1    4    4  501    0 -0.91173240011E+02  0.21569558969E+03 -0.84589989445E+02  0.24901824395E+03  0.41800000000E+01 0.  1.
         -5    1    4    4    0  501 -0.73338604864E+02  0.33361864433E+02 -0.81780620525E+02  0.11487866319E+03  0.41800000000E+01 0.  1.
</event>
<event>
11    1  0.6930157E-009  0.1481198E+03  0.7561462E-02  0.1098816E+00
         22   -1    0    0    0    0  0.00000000000E+00  0.00000000000E+00  0.54363278619E+03  0.54363278619E+03  0.00000000000E+00 0.  1.
         22   -1    0    0    0    0 -0.00000000000E+00 -0.00000000000E+00 -0.27115868189E+03  0.27115868189E+03  0.00000000000E+00 0.  1.
        -24    2    1    2    0    0  0.19238596312E+02  0.14894122860E+02 -0.22864731257E+03  0.24334476015E+03  0.79656263181E+02 0.  0.
         25    2    1    2    0    0 -0.86758857739E+02 -0.41277067163E+02  0.22484871402E+03  0.27465331858E+03  0.12508639231E+03 0.  0.
         24    2    1    2    0    0  0.67520261427E+02  0.26382944303E+02  0.27627270284E+03  0.29679338934E+03  0.80651498239E+02 0.  0.
        -11    1    5    5    0    0  0.84146404935E+02  0.33095143730E+02  0.22586476571E+03  0.24329159129E+03  0.00000000000E+00 0.  1.
         12    1    5    5    0    0 -0.16626143509E+02 -0.67121994273E+01  0.50407937132E+02  0.53501798054E+02  0.00000000000E+00 0. -1.
         11    1    3    3    0    0 -0.25098455089E+02 -0.14379538362E+02 -0.61627524107E+02  0.68078302703E+02  0.00000000000E+00 0. -1.
        -12    1    3    3    0    0  0.44337051401E+02  0.29273661222E+02 -0.16701978846E+03  0.17526645745E+03  0.00000000000E+00 0.  1.
          5    1    4    4  501    0 -0.33853734015E+02 -0.83248540534E+02  0.12349750266E+03  0.15279234396E+03  0.41800000000E+01 0.  1.
         -5    1    4    4    0  501 -0.52905123723E+02  0.41971473371E+02  0.10135121136E+03  0.12186097463E+03  0.41800000000E+01 0.  1.
</event>
<event>
11    1  0.6930157E-009  0.1381947E+03  0.7561462E-02  0.1109591E+00
         22   -1    0    0    0    0  0.00000000000E+00  0.00000000000E+00  0.26180239571E+03  0.26180239571E+03  0.00000000000E+00 0. -1.
         22   -1    0    0    0    0 -0.00000000000E+00 -0.00000000000E+00 -0.14798713736E+03  0.14798713736E+03  0.00000000000E+00 0. -1.
         24    2    1    2    0    0  0.19778945560E+02  0.64539464819E+02 -0.55547840453E+02  0.11799870796E+03  0.79256440079E+02 0.  0.
         25    2    1    2    0    0 -0.11929492361E+02 -0.32137071572E+02  0.39123857574E+02  0.13547526526E+03  0.12509103528E+03 0.  0.
        -24    2    1    2    0    0 -0.78494531986E+01 -0.32402393247E+02  0.13023924123E+03  0.15631555985E+03  0.79754406101E+02 0.  0.
        -11    1    3    3    0    0  0.15290340657E+02  0.48312040543E+02  0.88458980654E+01  0.51440234169E+02  0.00000000000E+00 0.  1.
         12    1    3    3    0    0  0.44886049025E+01  0.16227424277E+02 -0.64393738519E+02  0.66558473788E+02  0.00000000000E+00 0. -1.
         11    1    5    5    0    0 -0.11232170595E+02 -0.25074899255E+01  0.12529965891E+03  0.12582707850E+03  0.00000000000E+00 0. -1.
        -12    1    5    5    0    0  0.33827173960E+01 -0.29894903321E+02  0.49395823217E+01  0.30488481351E+02  0.00000000000E+00 0.  1.
          5    1    4    4  501    0 -0.56541902745E+02  0.19825427734E+02  0.26770367671E+02  0.65758340430E+02  0.41800000000E+01 0. -1.
         -5    1    4    4    0  501  0.44612410384E+02 -0.51962499306E+02  0.12353489903E+02  0.69716924826E+02  0.41800000000E+01 0. -1.
</event>
<event>
11    1  0.6930157E-009  0.2110644E+03  0.7561462E-02  0.1046964E+00
         22   -1    0    0    0    0  0.00000000000E+00  0.00000000000E+00  0.30292346494E+03  0.30292346494E+03  0.00000000000E+00 0.  1.
         22   -1    0    0    0    0 -0.00000000000E+00 -0.00000000000E+00 -0.11374879882E+04  0.11374879882E+04  0.00000000000E+00 0. -1.
         24    2    1    2    0    0  0.35981114312E+02 -0.14662151731E+02 -0.51785084247E+03  0.52172989834E+03  0.50229199599E+02 0.  0.
         25    2    1    2    0    0  0.21381520661E+01  0.18000180566E+03 -0.56610124393E+03  0.60706164977E+03  0.12509199220E+03 0.  0.
        -24    2    1    2    0    0 -0.38119266379E+02 -0.16533965393E+03  0.24938756310E+03  0.31161990507E+03  0.78246590818E+02 0.  0.
        -13    1    3    3    0    0 -0.59821595209E+00  0.14515935198E+02 -0.73488859503E+02  0.74911165443E+02  0.00000000000E+00 0.  1.
         14    1    3    3    0    0  0.36579330265E+02 -0.29178086929E+02 -0.44436198297E+03  0.44681873290E+03  0.00000000000E+00 0. -1.
         13    1    5    5    0    0 -0.13196844820E+02 -0.25562352057E+01  0.84242311541E+00  0.13468508764E+02  0.00000000000E+00 0. -1.
        -14    1    5    5    0    0 -0.24922421559E+02 -0.16278341872E+03  0.24854513999E+03  0.29815139630E+03  0.00000000000E+00 0.  1.
          5    1    4    4  501    0  0.41218504813E+02  0.23164588831E+02 -0.64760101770E+02  0.80292630396E+02  0.41800000000E+01 0. -1.
         -5    1    4    4    0  501 -0.39080352747E+02  0.15683721683E+03 -0.50134114216E+03  0.52676901937E+03  0.41800000000E+01 0. -1.
</event>
<event>
11    1  0.6930157E-009  0.1302784E+03  0.7561462E-02  0.1118927E+00
         22   -1    0    0    0    0  0.00000000000E+00  0.00000000000E+00  0.58362765142E+02  0.58362765142E+02  0.00000000000E+00 0.  1.
         22   -1    0    0    0    0 -0.00000000000E+00 -0.00000000000E+00 -0.34386559761E+04  0.34386559761E+04  0.00000000000E+00 0. -1.
         24    2    1    2    0    0 -0.35185823943E+02 -0.58707865158E+01 -0.30599137319E+04  0.30611551955E+04  0.79539774825E+02 0.  0.
         25    2    1    2    0    0  0.56713256715E+02 -0.22780863436E+02 -0.32433138960E+03  0.35295175141E+03  0.12509487327E+03 0.  0.
        -24    2    1    2    0    0 -0.21527432772E+02  0.28651649952E+02  0.39519105294E+01  0.82911794366E+02  0.74661908905E+02 0.  0.
        -11    1    3    3    0    0  0.24646640310E+02 -0.11149790387E+02 -0.10019075915E+04  0.10022727157E+04  0.00000000000E+00 0.  1.
         12    1    3    3    0    0 -0.59832464253E+02  0.52790038714E+01 -0.20580061404E+04  0.20588824798E+04  0.00000000000E+00 0. -1.
         11    1    5    5    0    0 -0.36304181914E+02 -0.43546912361E+01 -0.17846106611E+02  0.40687104608E+02  0.00000000000E+00 0. -1.
        -12    1    5    5    0    0  0.14776749142E+02  0.33006341188E+02  0.21798017141E+02  0.42224689757E+02  0.00000000000E+00 0.  1.
          5    1    4    4  501    0  0.64055828981E+02 -0.25378179361E+02 -0.33329213482E+03  0.34036498167E+03  0.41800000000E+01 0. -1.
         -5    1    4    4    0  501 -0.73425722662E+01  0.25973159243E+01  0.89607452242E+01  0.12586769739E+02  0.41800000000E+01 0. -1.
</event>
<event>
11    1  0.6930157E-009  0.2181633E+03  0.7561462E-02  0.1042374E+00
         22   -1    0    0    0    0  0.00000000000E+00  0.00000000000E+00  0.10851920786E+04  0.10851920786E+04  0.00000000000E+00 0.  1.
         22   -1    0    0    0    0 -0.00000000000E+00 -0.00000000000E+00 -0.68610883093E+02  0.68610883093E+02  0.00000000000E+00 0.  1.
         24    2    1    2    0    0  0.20425066673E+03 -0.74366404693E+02  0.40966201974E+03  0.47022823890E+03  0.77736280013E+02 0.  0.
         25    2    1    2    0    0 -0.12237566895E+03  0.86738751882E+02  0.33398017761E+03  0.38689769619E+03  0.12509057858E+03 0.  0.
        -24    2    1    2    0    0 -0.81874997783E+02 -0.12372347189E+02  0.27293899819E+03  0.29667702664E+03  0.81639274679E+02 0.  0.
        -11    1    3    3    0    0  0.20445891799E+03 -0.56692367446E+02  0.36487601756E+03  0.42208053955E+03  0.00000000000E+00 0.  1.
         12    1    3    3    0    0 -0.20825126446E+00 -0.17674037246E+02  0.44786002185E+02  0.48147699352E+02  0.00000000000E+00 0. -1.
         13    1    5    5    0    0 -0.27768256249E+01  0.14126373422E+02  0.13288228716E+03  0.13365989461E+03  0.00000000000E+00 0. -1.
        -14    1    5    5    0    0 -0.79098172158E+02 -0.26498720610E+02  0.14005671103E+03  0.16301713204E+03  0.00000000000E+00 0.  1.
          5    1    4    4  501    0 -0.10943176148E+03  0.25574958680E+02  0.12232805248E+03  0.16616562147E+03  0.41800000000E+01 0. -1.
         -5    1    4    4    0  501 -0.12943907461E+02  0.61163793202E+02  0.21165212513E+03  0.22073207472E+03  0.41800000000E+01 0. -1.
</event>
<event>
11    1  0.6930157E-009  0.1810674E+03  0.7561462E-02  0.1068783E+00
         22   -1    0    0    0    0  0.00000000000E+00  0.00000000000E+00  0.17047821517E+04  0.17047821517E+04  0.00000000000E+00 0. -1.
         22   -1    0    0    0    0 -0.00000000000E+00 -0.00000000000E+00 -0.78929414710E+02  0.78929414710E+02  0.00000000000E+00 0. -1.
        -24    2    1    2    0    0  0.67958245680E+02  0.87394205647E+01 -0.99945408076E+01  0.10642969682E+03  0.80825051132E+02 0.  0.
         25    2    1    2    0    0 -0.16823978755E+03 -0.61248193728E+02  0.77694146772E+03  0.80705731987E+03  0.12508999134E+03 0.  0.
         24    2    1    2    0    0  0.10028154187E+03  0.52508773163E+02  0.85890581004E+03  0.87022454969E+03  0.82207161913E+02 0.  0.
        -11    1    5    5    0    0  0.73809004558E+02 -0.72737911853E+01  0.48706558341E+03  0.49267997700E+03  0.00000000000E+00 0.  1.
         12    1    5    5    0    0  0.26472537315E+02  0.59782564348E+02  0.37184022663E+03  0.37754457269E+03  0.00000000000E+00 0. -1.
         13    1    3    3    0    0  0.73458389232E+02  0.10235259781E+02 -0.34120118271E+02  0.81639928724E+02  0.00000000000E+00 0. -1.
        -14    1    3    3    0    0 -0.55001435521E+01 -0.14958392163E+01  0.24125577463E+02  0.24789768091E+02  0.00000000000E+00 0.  1.
          5    1    4    4  501    0 -0.63851365868E+02 -0.88852415779E+02  0.35527521865E+03  0.37176565482E+03  0.41800000000E+01 0. -1.
         -5    1    4    4    0  501 -0.10438842168E+03  0.27604222051E+02  0.42166624907E+03  0.43529166505E+03  0.41800000000E+01 0. -1.
</event>
<event>
11    1  0.6930157E-009  0.1582281E+03  0.7561462E-02  0.1088756E+00
         22   -1    0    0    0    0  0.00000000000E+00  0.00000000000E+00  0.11247322076E+04  0.11247322076E+04  0.00000000000E+00 0.  1.
         22   -1    0    0    0    0 -0.00000000000E+00 -0.00000000000E+00 -0.51466445276E+03  0.51466445276E+03  0.00000000000E+00 0. -1.
        -24    2    1    2    0    0  0.21671785245E+02 -0.30353769674E+02 -0.31901415266E+03  0.33260262380E+03  0.86391308348E+02 0.  0.
         25    2    1    2    0    0 -0.88455775610E+02  0.99554867935E+02 -0.14007545137E+03  0.23022648878E+03  0.12508999996E+03 0.  0.
         24    2    1    2    0    0  0.66783990365E+02 -0.69201098261E+02  0.10691573589E+04  0.10765675478E+04  0.81555708255E+02 0.  0.
        -13    1    5    5    0    0  0.74799981192E+02 -0.68037028517E+02  0.69445179383E+03  0.70177444267E+03  0.00000000000E+00 0.  1.
         14    1    5    5    0    0 -0.80159908268E+01 -0.11640697438E+01  0.37470556508E+03  0.37479310515E+03  0.00000000000E+00 0. -1.
         13    1    3    3    0    0 -0.50659993577E+01 -0.37418464871E+02 -0.29026637557E+03  0.29271210198E+03  0.00000000000E+00 0. -1.
        -14    1    3    3    0    0  0.26737784602E+02  0.70646951974E+01 -0.28747777091E+02  0.39890521823E+02  0.00000000000E+00 0.  1.
          5    1    4    4  501    0 -0.66134449929E+02  0.67344155750E+02 -0.16019180674E+03  0.18597819262E+03  0.41800000000E+01 0. -1.
         -5    1    4    4    0  501 -0.22321325681E+02  0.32210712185E+02  0.20116355373E+02  0.44248296161E+02  0.41800000000E+01 0. -1.
</event>
<event>
11    1  0.6930157E-009  0.1256646E+03  0.7561462E-02  0.1124714E+00
         22   -1    0    0    0    0  0.00000000000E+00  0.00000000000E+00  0.19632359534E+03  0.19632359534E+03  0.00000000000E+00 0.  1.
         22   -1    0    0    0    0 -0.00000000000E+00 -0.00000000000E+00 -0.53189404504E+03  0.53189404504E+03  0.00000000000E+00 0. -1.
         24    2    1    2    0    0  0.60283462106E+01 -0.25234582270E+02 -0.19461338190E+03  0.21202490503E+03  0.80044155542E+02 0.  0.
         25    2    1    2    0    0  0.10683714691E+02 -0.67248492866E+01 -0.30915674496E+03  0.33374301558E+03  0.12508853721E+03 0.  0.
        -24    2    1    2    0    0 -0.16712060901E+02  0.31959431557E+02  0.16819967715E+03  0.18244971977E+03  0.60795317309E+02 0.  0.
        -11    1    3    3    0    0  0.13833233910E+02 -0.19170748672E+02 -0.77182297573E+01  0.24868595369E+02  0.00000000000E+00 0.  1.
         12    1    3    3    0    0 -0.78048876993E+01 -0.60638335979E+01 -0.18689515214E+03  0.18715630966E+03  0.00000000000E+00 0. -1.
         13    1    5    5    0    0 -0.29973373914E+02  0.13790304285E+02  0.14979580040E+03  0.15338630139E+03  0.00000000000E+00 0. -1.
        -14    1    5    5    0    0  0.13261313013E+02  0.18169127271E+02  0.18403876743E+02  0.29063418378E+02  0.00000000000E+00 0.  1.
          5    1    4    4  501    0  0.50793427886E+02  0.38389105775E+02 -0.18347678538E+03  0.19425472693E+03  0.41800000000E+01 0. -1.
         -5    1    4    4    0  501 -0.40109713195E+02 -0.45113955061E+02 -0.12567995957E+03  0.13948828866E+03  0.41800000000E+01 0. -1.
</event>
<event>
11    1  0.6930157E-009  0.1274900E+03  0.7561462E-02  0.1122392E+00
         22   -1    0    0    0    0  0.00000000000E+00  0.00000000000E+00  0.39742656514E+03  0.39742656514E+03  0.00000000000E+00 0. -1.
         22   -1    0    0    0    0 -0.00000000000E+00 -0.00000000000E+00 -0.39245630881E+03  0.39245630881E+03  0.00000000000E+00 0. -1.
         24    2    1    2    0    0  0.94811456599E+01 -0.12128592633E+02 -0.33644800559E+03  0.34820989599E+03  0.88407444905E+02 0.  0.
         25    2    1    2    0    0 -0.25792502627E+02  0.26501588815E+02  0.64861719732E+02  0.14566787479E+03  0.12507797431E+03 0.  0.
        -24    2    1    2    0    0  0.16311356967E+02 -0.14372996182E+02  0.27655654218E+03  0.29600510317E+03  0.10326110930E+03 0.  0.
        -13    1    3    3    0    0  0.39388298492E+02 -0.15625114784E+02 -0.85115743353E+02  0.95080345165E+02  0.00000000000E+00 0.  1.
         14    1    3    3    0    0 -0.29907152832E+02  0.34965221507E+01 -0.25133226224E+03  0.25312955082E+03  0.00000000000E+00 0. -1.
         11    1    5    5    0    0  0.40531230438E+02 -0.34856859509E+02  0.24676168167E+03  0.25248585869E+03  0.00000000000E+00 0. -1.
        -12    1    5    5    0    0 -0.24219873471E+02  0.20483863327E+02  0.29794860515E+02  0.43519244488E+02  0.00000000000E+00 0.  1.
          5    1    4    4  501    0  0.17729309409E+02 -0.43812720196E+02  0.19944399404E+02  0.51469741895E+02  0.41800000000E+01 0.  1.
         -5    1    4    4    0  501 -0.43521812036E+02  0.70314309011E+02  0.44917320328E+02  0.94198132891E+02  0.41800000000E+01 0.  1.
</event>
<event>
11    1  0.6930157E-009  0.1423050E+03  0.7561462E-02  0.1105011E+00
         22   -1    0    0    0    0  0.00000000000E+00  0.00000000000E+00  0.23200194172E+03  0.23200194172E+03  0.00000000000E+00 0. -1.
         22   -1    0    0    0    0 -0.00000000000E+00 -0.00000000000E+00 -0.56917215521E+03  0.56917215521E+03  0.00000000000E+00 0. -1.
        -24    2    1    2    0    0  0.21269049655E+02  0.23222826367E+02 -0.43983184261E+03  0.44825864240E+03  0.80573497938E+02 0.  0.
         25    2    1    2    0    0 -0.54590334771E+02  0.37199772511E+02 -0.63882362896E+02  0.15521583091E+03  0.12508824945E+03 0.  0.
         24    2    1    2    0    0  0.33321285116E+02 -0.60422598878E+02  0.16654399202E+03  0.19769962362E+03  0.81160590221E+02 0.  0.
        -11    1    5    5    0    0  0.53691348303E+02 -0.21636467912E+02  0.64603550953E+02  0.86743970522E+02  0.00000000000E+00 0.  1.
         12    1    5    5    0    0 -0.20370063187E+02 -0.38786130966E+02  0.10194044107E+03  0.11095565310E+03  0.00000000000E+00 0. -1.
         13    1    3    3    0    0  0.19959496465E+02  0.30288602239E+02 -0.43957378850E+03  0.44106790459E+03  0.00000000000E+00 0. -1.
        -14    1    3    3    0    0  0.13095531901E+01 -0.70657758722E+01 -0.25805411076E+00  0.71907378034E+01  0.00000000000E+00 0.  1.
          5    1    4    4  501    0 -0.54215760835E+02  0.35198244155E+02  0.22603502088E+02  0.68605071396E+02  0.41800000000E+01 0.  1.
         -5    1    4    4    0  501 -0.37457393562E+00  0.20015283559E+01 -0.86485864983E+02  0.86610759512E+02  0.41800000000E+01 0.  1.
</event>
<event>
11    1  0.6930157E-009  0.1418145E+03  0.7561462E-02  0.1105549E+00
         22   -1    0    0    0    0  0.00000000000E+00  0.00000000000E+00  0.22337847015E+03  0.22337847015E+03  0.00000000000E+00 0. -1.
         22   -1    0    0    0    0 -0.00000000000E+00 -0.00000000000E+00 -0.65315225961E+03  0.65315225961E+03  0.00000000000E+00 0. -1.
        -24    2    1    2    0    0  0.33631572143E+02 -0.57260852193E+02 -0.54601145645E+03  0.55637903271E+03  0.83780842787E+02 0.  0.
         25    2    1    2    0    0 -0.38392114316E+02  0.60078668303E+02 -0.33477746050E+02  0.14782412266E+03  0.12509121046E+03 0.  0.
         24    2    1    2    0    0  0.47605421727E+01 -0.28178161108E+01  0.14971541305E+03  0.17232757439E+03  0.85155652431E+02 0.  0.
        -13    1    5    5    0    0  0.11359663407E+02 -0.15077856886E+02 -0.28815097509E+01  0.19096775106E+02  0.00000000000E+00 0.  1.
         14    1    5    5    0    0 -0.65991212338E+01  0.12260040775E+02  0.15259692280E+03  0.15323079929E+03  0.00000000000E+00 0. -1.
         11    1    3    3    0    0  0.28073694385E+02 -0.58637417562E+02 -0.54675379791E+03  0.55060529837E+03  0.00000000000E+00 0. -1.
        -12    1    3    3    0    0  0.55578777578E+01  0.13765653697E+01  0.74234146097E+00  0.57737343403E+01  0.00000000000E+00 0.  1.
          5    1    4    4  501    0 -0.60802890104E+02  0.75907535851E+02 -0.55801750175E+02  0.11220629736E+03  0.41800000000E+01 0.  1.
         -5    1    4    4    0  501  0.22410775788E+02 -0.15828867548E+02  0.22324004125E+02  0.35617825305E+02  0.41800000000E+01 0.  1.
</event>
<event>
11    1  0.6930157E-009  0.1317551E+03  0.7561462E-02  0.1117131E+00
         22   -1    0    0    0    0  0.00000000000E+00  0.00000000000E+00  0.32615447192E+03  0.32615447192E+03  0.00000000000E+00 0.  1.
         22   -1    0    0    0    0 -0.00000000000E+00 -0.00000000000E+00 -0.37929698552E+03  0.37929698552E+03  0.00000000000E+00 0.  1.
        -24    2    1    2    0    0 -0.41134583225E+02  0.32781806159E+01 -0.30991115878E+03  0.32292979369E+03  0.80845067328E+02 0.  0.
         25    2    1    2    0    0  0.45553188950E+02  0.16343387565E+02  0.24670317562E+02  0.13633631148E+03  0.12504705482E+03 0.  0.
         24    2    1    2    0    0 -0.44186057251E+01 -0.19621568181E+02  0.23209832761E+03  0.24618535228E+03  0.79580550265E+02 0.  0.
        -11    1    5    5    0    0  0.17379400485E+02 -0.42848490524E+02  0.17272501213E+03  0.17880706507E+03  0.00000000000E+00 0.  1.
         12    1    5    5    0    0 -0.21798006210E+02  0.23226922343E+02  0.59373315479E+02  0.67378287209E+02  0.00000000000E+00 0. -1.
         13    1    3    3    0    0  0.81077478468E+01 -0.94368741224E+01 -0.43725847139E+01  0.13187481391E+02  0.00000000000E+00 0. -1.
        -14    1    3    3    0    0 -0.49242331072E+02  0.12715054738E+02 -0.30553857406E+03  0.30974231230E+03  0.00000000000E+00 0.  1.
          5    1    4    4  501    0  0.44587138419E+02  0.63033561956E+02  0.39936599219E+02  0.87026703961E+02  0.41800000000E+01 0. -1.
         -5    1    4    4    0  501  0.96605053138E+00 -0.46690174391E+02 -0.15266281657E+02  0.49309607521E+02  0.41800000000E+01 0. -1.
</event>
<event>
11    1  0.6930157E-009  0.2062102E+03  0.7561462E-02  0.1050217E+00
         22   -1    0    0    0    0  0.00000000000E+00  0.00000000000E+00  0.37193963471E+03  0.37193963471E+03  0.00000000000E+00 0.  1.
         22   -1    0    0    0    0 -0.00000000000E+00 -0.00000000000E+00 -0.10274265659E+04  0.10274265659E+04  0.00000000000E+00 0. -1.
        -24    2    1    2    0    0 -0.26446139193E+02  0.56313705901E+02 -0.68506526520E+03  0.69203312101E+03  0.75662350226E+02 0.  0.
         25    2    1    2    0    0 -0.29340487188E+02 -0.20698141873E+03 -0.26641348141E+03  0.36100636256E+03  0.12508908362E+03 0.  0.
         24    2    1    2    0    0  0.55786626381E+02  0.15066771283E+03  0.29599181539E+03  0.34632671708E+03  0.80734954113E+02 0.  0.
        -13    1    5    5    0    0  0.62466152456E+02  0.15178466205E+03  0.29713832836E+03  0.33945808286E+03  0.00000000000E+00 0.  1.
         14    1    5    5    0    0 -0.66795260745E+01 -0.11169492198E+01 -0.11465129709E+01  0.68686342261E+01  0.00000000000E+00 0. -1.
         11    1    3    3    0    0 -0.34606062573E+01  0.45762825331E+02 -0.62726577536E+03  0.62894241780E+03  0.00000000000E+00 0. -1.
        -12    1    3    3    0    0 -0.22985532936E+02  0.10550880570E+02 -0.57799489849E+02  0.63090703213E+02  0.00000000000E+00 0.  1.
          5    1    4    4  501    0 -0.43632602827E+02 -0.21755856732E+03 -0.22646057272E+03  0.31707632779E+03  0.41800000000E+01 0. -1.
         -5    1    4    4    0  501  0.14292115639E+02  0.10577148596E+02 -0.39952908691E+02  0.43930034768E+02  0.41800000000E+01 0. -1.
</event>
<event>
11    1  0.6930157E-009  0.1514733E+03  0.7561462E-02  0.1095383E+00
         22   -1    0    0    0    0  0.00000000000E+00  0.00000000000E+00  0.51266172291E+03  0.51266172291E+03  0.00000000000E+00 0.  1.
         22   -1    0    0    0    0 -0.00000000000E+00 -0.00000000000E+00 -0.87318852983E+03  0.87318852983E+03  0.00000000000E+00 0. -1.
        -24    2    1    2    0    0 -0.31474682377E+02  0.73309275930E+02 -0.73390443008E+03  0.74253878878E+03  0.79895148689E+02 0.  0.
         25    2    1    2    0    0 -0.16093789359E+02 -0.14134855607E+03 -0.57177719205E+02  0.19787783845E+03  0.12509165847E+03 0.  0.
         24    2    1    2    0    0  0.47568471735E+02  0.68039280143E+02  0.43055534236E+03  0.44543362551E+03  0.78365226649E+02 0.  0.
        -11    1    5    5    0    0  0.14809196686E+02 -0.16675200903E+02  0.11113942399E+03  0.11335495665E+03  0.00000000000E+00 0.  1.
         12    1    5    5    0    0  0.32759275049E+02  0.84714481046E+02  0.31941591837E+03  0.33207866886E+03  0.00000000000E+00 0. -1.
         13    1    3    3    0    0 -0.75183473970E+01  0.59398912276E+02 -0.67267469177E+03  0.67533398942E+03  0.00000000000E+00 0. -1.
        -14    1    3    3    0    0 -0.23956334980E+02  0.13910363654E+02 -0.61229738311E+02  0.67204799354E+02  0.00000000000E+00 0.  1.
          5    1    4    4  501    0  0.40653229006E+02 -0.81414928737E+02 -0.69155224162E+02  0.11437216916E+03  0.41800000000E+01 0.  1.
         -5    1    4    4    0  501 -0.56747018365E+02 -0.59933627336E+02  0.11977504957E+02  0.83505669292E+02  0.41800000000E+01 0.  1.
</event>
<event>
11    1  0.6930157E-009  0.1342537E+03  0.7561462E-02  0.1114150E+00
         22   -1    0    0    0    0  0.00000000000E+00  0.00000000000E+00  0.11240732885E+03  0.11240732885E+03  0.00000000000E+00 0.  1.
         22   -1    0    0    0    0 -0.00000000000E+00 -0.00000000000E+00 -0.17812262223E+04  0.17812262223E+04  0.00000000000E+00 0.  1.
         24    2    1    2    0    0  0.62332567316E+02 -0.56305003274E+01 -0.15200147550E+04  0.15229071416E+04  0.69887445673E+02 0.  0.
         25    2    1    2    0    0 -0.76275070428E+01  0.11772576547E+02 -0.21597733157E+03  0.24998220546E+03  0.12509245730E+03 0.  0.
        -24    2    1    2    0    0 -0.54705060273E+02 -0.61420762198E+01  0.67173193127E+02  0.12074420407E+03  0.83884183388E+02 0.  0.
        -13    1    3    3    0    0  0.69860431317E+01  0.22782168008E+02 -0.75172263150E+03  0.75210022383E+03  0.00000000000E+00 0.  1.
         14    1    3    3    0    0  0.55346524184E+02 -0.28412668336E+02 -0.76829212350E+03  0.77080691778E+03  0.00000000000E+00 0. -1.
         11    1    5    5    0    0 -0.13081649399E+02 -0.42162137591E+02  0.20942034892E+02  0.48860456635E+02  0.00000000000E+00 0. -1.
        -12    1    5    5    0    0 -0.41623410874E+02  0.36020061371E+02  0.46231158236E+02  0.71883747438E+02  0.00000000000E+00 0.  1.
          5    1    4    4  501    0  0.42877168245E+02 -0.35680725641E+02 -0.85262511451E+02  0.10197418300E+03  0.41800000000E+01 0.  1.
         -5    1    4    4    0  501 -0.50504675288E+02  0.47453302188E+02 -0.13071482012E+03  0.14800802246E+03  0.41800000000E+01 0.  1.
</event>
<event>
11    1  0.6930157E-009  0.1895635E+03  0.7561462E-02  0.1062159E+00
         22   -1    0    0    0    0  0.00000000000E+00  0.00000000000E+00  0.15279500903E+03  0.15279500903E+03  0.00000000000E+00 0. -1.
         22   -1    0    0    0    0 -0.00000000000E+00 -0.00000000000E+00 -0.66053563738E+03  0.66053563738E+03  0.00000000000E+00 0.  1.
         24    2    1    2    0    0  0.13436088387E+03  0.81567828818E+02 -0.34013064530E+03  0.38118533745E+03  0.70051750914E+02 0.  0.
         25    2    1    2    0    0  0.41078033490E+02 -0.11208335629E+03 -0.16099932500E+03  0.23625337648E+03  0.12507914157E+03 0.  0.
        -24    2    1    2    0    0 -0.17543891736E+03  0.30515527474E+02 -0.66106580544E+01  0.19589193248E+03  0.81362996917E+02 0.  0.
        -11    1    3    3    0    0  0.18327957803E+02  0.47511272535E+02 -0.91900222238E+02  0.10506610254E+03  0.00000000000E+00 0.  1.
         12    1    3    3    0    0  0.11603292607E+03  0.34056556283E+02 -0.24823042306E+03  0.27611923492E+03  0.00000000000E+00 0. -1.
         13    1    5    5    0    0 -0.53532759571E+02  0.44566157744E+02 -0.19949048095E+02  0.72455940289E+02  0.00000000000E+00 0. -1.
        -14    1    5    5    0    0 -0.12190615779E+03 -0.14050630270E+02  0.13338390041E+02  0.12343599219E+03  0.00000000000E+00 0.  1.
          5    1    4    4  501    0  0.33365616954E+02 -0.13061664954E+03 -0.16721177787E+03  0.21482836077E+03  0.41800000000E+01 0. -1.
         -5    1    4    4    0  501  0.77124165354E+01  0.18533293250E+02  0.62124528729E+01  0.21425015711E+02  0.41800000000E+01 0. -1.
</event>
<event>
11    1  0.6930157E-009  0.1581782E+03  0.7561462E-02  0.1088803E+00
         22   -1    0    0    0    0  0.00000000000E+00  0.00000000000E+00  0.19387666224E+03  0.19387666224E+03  0.00000000000E+00 0.  1.
         22   -1    0    0    0    0 -0.00000000000E+00 -0.00000000000E+00 -0.64398510021E+03  0.64398510021E+03  0.00000000000E+00 0.  1.
         24    2    1    2    0    0 -0.25647987937E+02  0.32193666342E+02 -0.20825169092E+03  0.22788412276E+03  0.82874333765E+02 0.  0.
         25    2    1    2    0    0  0.12102077468E+03 -0.31845146770E+02 -0.38268077902E+03  0.42160630802E+03  0.12508860484E+03 0.  0.
        -24    2    1    2    0    0 -0.95372786740E+02 -0.34851957179E+00  0.14082403198E+03  0.18837133166E+03  0.80970739736E+02 0.  0.
        -13    1    3    3    0    0 -0.39113327250E+02 -0.72176891182E+01 -0.15639508889E+03  0.16137339072E+03  0.00000000000E+00 0.  1.
         14    1    3    3    0    0  0.13465339312E+02  0.39411355460E+02 -0.51856602039E+02  0.66510732044E+02  0.00000000000E+00 0. -1.
         13    1    5    5    0    0  0.12955905836E+02  0.62613845082E+01  0.29911634920E+02  0.33192865733E+02  0.00000000000E+00 0. -1.
        -14    1    5    5    0    0 -0.10832869258E+03 -0.66099040800E+01  0.11091239706E+03  0.15517846593E+03  0.00000000000E+00 0.  1.
          5    1    4    4  501    0  0.27726872664E+02  0.36289940057E+02 -0.20176096425E+03  0.20690746316E+03  0.41800000000E+01 0. -1.
         -5    1    4    4    0  501  0.93293902013E+02 -0.68135086827E+02 -0.18091981477E+03  0.21469884486E+03  0.41800000000E+01 0. -1.
</event>
<event>
11    1  0.6930157E-009  0.1454621E+03  0.7561462E-02  0.1101608E+00
         22   -1    0    0    0    0  0.00000000000E+00  0.00000000000E+00  0.96553130809E+03  0.96553130809E+03  0.00000000000E+00 0. -1.
         22   -1    0    0    0    0 -0.00000000000E+00 -0.00000000000E+00 -0.68237692000E+02  0.68237692000E+02  0.00000000000E+00 0.  1.
        -24    2    1    2    0    0 -0.60515183696E+02 -0.44134150743E+02  0.38599179885E+01  0.11226054196E+03  0.83532147068E+02 0.  0.
         25    2    1    2    0    0  0.62502880403E+02  0.29845757535E+02  0.51897421837E+03  0.53831206915E+03  0.12509302603E+03 0.  0.
         24    2    1    2    0    0 -0.19876967063E+01  0.14288393208E+02  0.37445947973E+03  0.38319638898E+03  0.80071602018E+02 0.  0.
        -11    1    5    5    0    0  0.33397654594E+02  0.15058120884E+01  0.85596984541E+02  0.91894039877E+02  0.00000000000E+00 0.  1.
         12    1    5    5    0    0 -0.35385351300E+02  0.12782581120E+02  0.28886249519E+03  0.29130234910E+03  0.00000000000E+00 0. -1.
         13    1    3    3    0    0 -0.13149307659E+02 -0.38225584984E+02 -0.32813872400E+02  0.52065822391E+02  0.00000000000E+00 0. -1.
        -14    1    3    3    0    0 -0.47365876037E+02 -0.59085657590E+01  0.36673790389E+02  0.60194719566E+02  0.00000000000E+00 0.  1.
          5    1    4    4  501    0  0.22243024808E+02  0.24431800156E+02  0.22570338027E+02  0.40231300875E+02  0.41800000000E+01 0.  1.
         -5    1    4    4    0  501  0.40259855595E+02  0.54139573792E+01  0.49640388034E+03  0.49808076828E+03  0.41800000000E+01 0.  1.
</event>
<event>
11    1  0.6930157E-009  0.1339283E+03  0.7561462E-02  0.1114534E+00
         22   -1    0    0    0    0  0.00000000000E+00  0.00000000000E+00  0.98607531585E+03  0.98607531585E+03  0.00000000000E+00 0.  1.
         22   -1    0    0    0    0 -0.00000000000E+00 -0.00000000000E+00 -0.11444166684E+03  0.11444166684E+03  0.00000000000E+00 0.  1.
        -24    2    1    2    0    0  0.38753107557E+02  0.40446820980E+02 -0.85666549198E+01  0.97647480314E+02  0.79522915958E+02 0.  0.
         25    2    1    2    0    0  0.49276787812E+01 -0.45195868467E+02  0.16250100982E+02  0.13408772422E+03  0.12509397851E+03 0.  0.
         24    2    1    2    0    0 -0.43680786338E+02  0.47490474867E+01  0.86395020295E+03  0.86878177816E+03  0.80257462909E+02 0.  0.
        -13    1    5    5    0    0 -0.56651396392E+02 -0.41161851757E+00  0.83185832473E+03  0.83378523767E+03  0.00000000000E+00 0.  1.
         14    1    5    5    0    0  0.12970610054E+02  0.51606660042E+01  0.32091878221E+02  0.34996540494E+02  0.00000000000E+00 0. -1.
         11    1    3    3    0    0  0.35408498053E+01  0.51557005594E+02  0.15040186584E+02  0.53822575706E+02  0.00000000000E+00 0. -1.
        -12    1    3    3    0    0  0.35212257752E+02 -0.11110184613E+02 -0.23606841504E+02  0.43824904608E+02  0.00000000000E+00 0.  1.
          5    1    4    4  501    0  0.64105635183E+02 -0.26051371419E+02  0.18363529427E+02  0.71714001618E+02  0.41800000000E+01 0. -1.
         -5    1    4    4    0  501 -0.59177956402E+02 -0.19144497048E+02 -0.21134284451E+01  0.62373722599E+02  0.41800000000E+01 0. -1.
</event>
<event>
11    1  0.6930157E-009  0.1355368E+03  0.7561462E-02  0.1112647E+00
         22   -1    0    0    0    0  0.00000000000E+00  0.00000000000E+00  0.27520523771E+03  0.27520523771E+03  0.00000000000E+00 0.  1.
         22   -1    0    0    0    0 -0.00000000000E+00 -0.00000000000E+00 -0.35874263183E+03  0.35874263183E+03  0.00000000000E+00 0.  1.
        -24    2    1    2    0    0 -0.30396951509E+02 -0.48803422347E+02 -0.11812006480E+03  0.15462023533E+03  0.81543355153E+02 0.  0.
         25    2    1    2    0    0  0.41058469502E+02  0.26303378285E+02 -0.19394542368E+03  0.23588779644E+03  0.12510219629E+03 0.  0.
         24    2    1    2    0    0 -0.10661517993E+02  0.22500044062E+02  0.22852809436E+03  0.24343983777E+03  0.80112076183E+02 0.  0.
        -11    1    5    5    0    0 -0.31824504673E+02  0.12485129190E+02  0.21210209221E+03  0.21483941693E+03  0.00000000000E+00 0.  1.
         12    1    5    5    0    0  0.21162986680E+02  0.10014914872E+02  0.16426002153E+02  0.28600420833E+02  0.00000000000E+00 0. -1.
         11    1    3    3    0    0 -0.24555497562E+02 -0.84877070650E+01  0.36322410933E+01  0.26233696024E+02  0.00000000000E+00 0. -1.
        -12    1    3    3    0    0 -0.58414539466E+01 -0.40315715282E+02 -0.12175230590E+03  0.12838653930E+03  0.00000000000E+00 0.  1.
          5    1    4    4  501    0  0.46570152728E+02  0.83518934517E+01 -0.70652782541E+01  0.48020035465E+02  0.41800000000E+01 0. -1.
         -5    1    4    4    0  501 -0.55116832257E+01  0.17951484834E+02 -0.18688014543E+03  0.18786776098E+03  0.41800000000E+01 0. -1.
</event>
<event>
11    1  0.6930157E-009  0.1329706E+03  0.7561462E-02  0.1115672E+00
         22   -1    0    0    0    0  0.00000000000E+00  0.00000000000E+00  0.43882883968E+03  0.43882883968E+03  0.00000000000E+00 0.  1.
         22   -1    0    0    0    0 -0.00000000000E+00 -0.00000000000E+00 -0.45857868874E+03  0.45857868874E+03  0.00000000000E+00 0.  1.
        -24    2    1    2    0    0  0.57803431570E+01  0.23942832803E+02 -0.38990906215E+03  0.39878110143E+03  0.79941344148E+02 0.  0.
         25    2    1    2    0    0 -0.38495410751E+02 -0.52072219379E+02  0.27448830744E+02  0.14350676959E+03  0.12508933579E+03 0.  0.
         24    2    1    2    0    0  0.32715067594E+02  0.28129386577E+02  0.34271038235E+03  0.35511965740E+03  0.82450147740E+02 0.  0.
        -13    1    5    5    0    0  0.57374049816E+02  0.35251986257E+02  0.25331123976E+03  0.26210888637E+03  0.00000000000E+00 0.  1.
         14    1    5    5    0    0 -0.24658982222E+02 -0.71225996803E+01  0.89399142596E+02  0.93010771028E+02  0.00000000000E+00 0. -1.
         13    1    3    3    0    0 -0.18207143418E+02 -0.18077016538E+02 -0.23736194243E+03  0.23874457128E+03  0.00000000000E+00 0. -1.
        -14    1    3    3    0    0  0.23987486575E+02  0.42019849340E+02 -0.15254711972E+03  0.16003653016E+03  0.00000000000E+00 0.  1.
          5    1    4    4  501    0 -0.66977923139E+02 -0.19772237584E+02 -0.26093275010E+02  0.74668031767E+02  0.41800000000E+01 0. -1.
         -5    1    4    4    0  501  0.28482512388E+02 -0.32299981795E+02  0.53542105754E+02  0.68838737819E+02  0.41800000000E+01 0. -1.
</event>
<event>
11    1  0.6930157E-009  0.1400544E+03  0.7561462E-02  0.1107498E+00
         22   -1    0    0    0    0  0.00000000000E+00  0.00000000000E+00  0.38842394869E+03  0.38842394869E+03  0.00000000000E+00 0.  1.
         22   -1    0    0    0    0 -0.00000000000E+00 -0.00000000000E+00 -0.64249015310E+03  0.64249015310E+03  0.00000000000E+00 0.  1.
        -24    2    1    2    0    0 -0.25239951801E+02  0.18790633470E+02 -0.47735348093E+03  0.48520867338E+03  0.81061506848E+02 0.  0.
         25    2    1    2    0    0 -0.32822728066E+02 -0.44882445443E+02 -0.12351661805E+03  0.18438309670E+03  0.12509598726E+03 0.  0.
         24    2    1    2    0    0  0.58062679867E+02  0.26091811973E+02  0.34680389457E+03  0.36132233171E+03  0.78922928597E+02 0.  0.
        -13    1    5    5    0    0  0.14552026748E+02  0.47422104774E+02  0.22123102722E+03  0.22672402808E+03  0.00000000000E+00 0.  1.
         14    1    5    5    0    0  0.43510653120E+02 -0.21330292801E+02  0.12557286735E+03  0.13459830363E+03  0.00000000000E+00 0. -1.
         11    1    3    3    0    0  0.18341884203E+02 -0.38400180840E+01 -0.31453575266E+02  0.36612809944E+02  0.00000000000E+00 0. -1.
        -12    1    3    3    0    0 -0.43581836004E+02  0.22630651554E+02 -0.44589990567E+03  0.44859586344E+03  0.00000000000E+00 0.  1.
          5    1    4    4  501    0  0.65771810335E+01 -0.56630872361E+02 -0.13049989292E+03  0.14247108291E+03  0.41800000000E+01 0.  1.
         -5    1    4    4    0  501 -0.39399909099E+02  0.11748426918E+02  0.69832748673E+01  0.41912013790E+02  0.41800000000E+01 0.  1.
</event>
<event>
11    1  0.6930157E-009  0.1477488E+03  0.7561462E-02  0.1099202E+00
         22   -1    0    0    0    0  0.00000000000E+00  0.00000000000E+00  0.12284037673E+04  0.12284037673E+04  0.00000000000E+00 0. -1.
         22   -1    0    0    0    0 -0.00000000000E+00 -0.00000000000E+00 -0.16234732125E+04  0.16234732125E+04  0.00000000000E+00 0.  1.
        -24    2    1    2    0    0 -0.14622215913E+01 -0.20002254657E+02 -0.15563784037E+04  0.15586531396E+04  0.81753566609E+02 0.  0.
         25    2    1    2    0    0  0.70643614473E+02 -0.18212821703E+02  0.20705610258E+02  0.14627727779E+03  0.12508434179E+03 0.  0.
         24    2    1    2    0    0 -0.69181392881E+02  0.38215076360E+02  0.11406033482E+04  0.11469465625E+04  0.90906336337E+02 0.  0.
        -11    1    5    5    0    0 -0.20962357910E+02  0.24398792551E+02  0.98140692828E+02  0.10327786363E+03  0.00000000000E+00 0.  1.
         12    1    5    5    0    0 -0.48219034971E+02  0.13816283809E+02  0.10424626554E+04  0.10436686988E+04  0.00000000000E+00 0. -1.
         13    1    3    3    0    0  0.28293300623E+01 -0.47166028821E+01 -0.57991141338E+01  0.79925700551E+01  0.00000000000E+00 0. -1.
        -14    1    3    3    0    0 -0.42915516535E+01 -0.15285651775E+02 -0.15505792896E+04  0.15506605695E+04  0.00000000000E+00 0.  1.
          5    1    4    4  501    0  0.81570698148E+02 -0.53632305331E+02  0.38406035271E+02  0.10498904189E+03  0.41800000000E+01 0.  1.
         -5    1    4    4    0  501 -0.10927083675E+02  0.35419483628E+02 -0.17700425013E+02  0.41288235900E+02  0.41800000000E+01 0.  1.
</event>
<event>
11    1  0.6930157E-009  0.1592998E+03  0.7561462E-02  0.1087738E+00
         22   -1    0    0    0    0  0.00000000000E+00  0.00000000000E+00  0.13833576987E+04  0.13833576987E+04  0.00000000000E+00 0. -1.
         22   -1    0    0    0    0 -0.00000000000E+00 -0.00000000000E+00 -0.25840860361E+03  0.25840860361E+03  0.00000000000E+00 0.  1.
         24    2    1    2    0    0  0.14051132588E+02  0.10088696826E+03 -0.19139841478E+03  0.23131441666E+03  0.80606398512E+02 0.  0.
         25    2    1    2    0    0 -0.17056606017E+02 -0.77722310772E+02  0.74821191315E+02  0.16604855412E+03  0.12506888604E+03 0.  0.
        -24    2    1    2    0    0  0.30054734287E+01 -0.23164657489E+02  0.12415263186E+04  0.12444033316E+04  0.81279872465E+02 0.  0.
        -11    1    3    3    0    0 -0.22670643788E+02  0.73689335766E+02 -0.15416776757E+03  0.17237104413E+03  0.00000000000E+00 0.  1.
         12    1    3    3    0    0  0.36721776376E+02  0.27197632495E+02 -0.37230647204E+02  0.58943372527E+02  0.00000000000E+00 0. -1.
         13    1    5    5    0    0  0.18177210905E+02 -0.32641606869E+02  0.11725524805E+04  0.11731475632E+04  0.00000000000E+00 0. -1.
        -14    1    5    5    0    0 -0.15171737476E+02  0.94769493805E+01  0.68973838060E+02  0.71255768358E+02  0.00000000000E+00 0.  1.
          5    1    4    4  501    0  0.15789794507E+02  0.28162736583E+02  0.58712273496E+00  0.32561855836E+02  0.41800000000E+01 0. -1.
         -5    1    4    4    0  501 -0.32846400524E+02 -0.10588504736E+03  0.74234068580E+02  0.13348669828E+03  0.41800000000E+01 0. -1.
</event>
<event>
11    1  0.6930157E-009  0.1313328E+03  0.7561462E-02  0.1117642E+00
         22   -1    0    0    0    0  0.00000000000E+00  0.00000000000E+00  0.15313338505E+03  0.15313338505E+03  0.00000000000E+00 0. -1.
         22   -1    0    0    0    0 -0.00000000000E+00 -0.00000000000E+00 -0.13935006526E+04  0.13935006526E+04  0.00000000000E+00 0. -1.
        -24    2    1    2    0    0 -0.30220893530E+02  0.27511351717E+02 -0.12981639282E+04  0.13013102873E+04  0.80676531370E+02 0.  0.
         25    2    1    2    0    0 -0.16846406497E+02 -0.27140991471E+02 -0.11247383355E+02  0.12957535539E+03  0.12507131671E+03 0.  0.
         24    2    1    2    0    0  0.47067300027E+02 -0.37036024532E+00  0.69044044007E+02  0.11574839485E+03  0.80094587827E+02 0.  0.
        -11    1    5    5    0    0 -0.80134113932E+01  0.39222605190E+01  0.58906473989E+02  0.59578281005E+02  0.00000000000E+00 0.  1.
         12    1    5    5    0    0  0.55080711421E+02 -0.42926207643E+01  0.10137570019E+02  0.56170113846E+02  0.00000000000E+00 0. -1.
         11    1    3    3    0    0 -0.38120639704E+01  0.12679130327E+02 -0.11502900238E+04  0.11503662161E+04  0.00000000000E+00 0. -1.
        -12    1    3    3    0    0 -0.26408829560E+02  0.14832221389E+02 -0.14787390432E+03  0.15094407126E+03  0.00000000000E+00 0.  1.
          5    1    4    4  501    0 -0.11337502731E+02  0.48936483697E+02  0.73860522819E+01  0.50944524467E+02  0.41800000000E+01 0. -1.
         -5    1    4    4    0  501 -0.55089037661E+01 -0.76077475169E+02 -0.18633435637E+02  0.78630830928E+02  0.41800000000E+01 0. -1.
</event>
<event>
11    1  0.6930157E-009  0.5982323E+03  0.7561462E-02  0.9197376E-01
         22   -1    0    0    0    0  0.00000000000E+00  0.00000000000E+00  0.36763303317E+03  0.36763303317E+03  0.00000000000E+00 0.  1.
         22   -1    0    0    0    0 -0.00000000000E+00 -0.00000000000E+00 -0.93859661255E+03  0.93859661255E+03  0.00000000000E+00 0. -1.
         24    2    1    2    0    0 -0.24107330699E+03  0.32412681493E+03 -0.54447113361E+03  0.68244461354E+03  0.78149240065E+02 0.  0.
         25    2    1    2    0    0  0.13295868077E+03 -0.18105646971E+02 -0.17883776511E+03  0.25620212659E+03  0.12510299037E+03 0.  0.
        -24    2    1    2    0    0  0.10811462622E+03 -0.30602116796E+03  0.15234531933E+03  0.36758290558E+03  0.81057809667E+02 0.  0.
        -13    1    3    3    0    0 -0.12270687879E+03  0.19044158442E+03 -0.36273082984E+03  0.42766649401E+03  0.00000000000E+00 0.  1.
         14    1    3    3    0    0 -0.11836642820E+03  0.13368523051E+03 -0.18174030376E+03  0.25477811953E+03  0.00000000000E+00 0. -1.
         13    1    5    5    0    0  0.20156194108E+02 -0.48409657278E+01  0.81563790014E+01  0.22276301948E+02  0.00000000000E+00 0. -1.
        -14    1    5    5    0    0  0.87958432115E+02 -0.30118020223E+03  0.14418894033E+03  0.34530660363E+03  0.00000000000E+00 0.  1.
          5    1    4    4  501    0  0.88253185679E+02 -0.31754155123E+02 -0.27610919008E+02  0.97861056598E+02  0.41800000000E+01 0. -1.
         -5    1    4    4    0  501  0.44705495090E+02  0.13648508152E+02 -0.15122684610E+03  0.15834107000E+03  0.41800000000E+01 0. -1.
</event>
<event>
11    1  0.9351331E-009  0.1786568E+03  0.7561462E-02  0.1070734E+00
         22   -1    0    0    0    0  0.00000000000E+00  0.00000000000E+00  0.23940011373E+04  0.23940011373E+04  0.00000000000E+00 0.  1.
         22   -1    0    0    0    0 -0.00000000000E+00 -0.00000000000E+00 -0.29486901430E+03  0.29486901430E+03  0.00000000000E+00 0.  1.
        -24    2    1    2    0    0 -0.39565127503E+02  0.36470606259E+02 -0.19843317121E+03  0.22102198549E+03  0.81114056734E+02 0.  0.
         25    2    1    2    0    0  0.93744113113E+02  0.79529037369E+02  0.10403534152E+02  0.17569280815E+03  0.12508758046E+03 0.  0.
         24    2    1    2    0    0 -0.54178985611E+02 -0.11599964363E+03  0.22871617600E+04  0.22921553579E+04  0.80473527291E+02 0.  0.
        -13    1    5    5    0    0 -0.61838567914E+01 -0.85253430567E+02  0.17236735779E+04  0.17257916997E+04  0.00000000000E+00 0.  1.
         14    1    5    5    0    0 -0.47995128819E+02 -0.30746213061E+02  0.56348818212E+03  0.56636365826E+03  0.00000000000E+00 0. -1.
         11    1    3    3    0    0  0.12769561776E+02  0.30582505700E+02 -0.30556269603E+02  0.45078120800E+02  0.00000000000E+00 0. -1.
        -12    1    3    3    0    0 -0.52334689279E+02  0.58881005591E+01 -0.16787690160E+03  0.17594386469E+03  0.00000000000E+00 0.  1.
          5    1    4    4  501    0  0.95207239563E+02  0.10922005829E+03  0.40480564586E+01  0.14500792654E+03  0.41800000000E+01 0. -1.
         -5    1    4    4    0  501 -0.14631264494E+01 -0.29691020925E+02  0.63554776932E+01  0.30684881608E+02  0.41800000000E+01 0. -1.
</event>
<event>
11    1  0.6930157E-009  0.1306520E+03  0.7561462E-02  0.1118470E+00
         22   -1    0    0    0    0  0.00000000000E+00  0.00000000000E+00  0.15233146525E+04  0.15233146525E+04  0.00000000000E+00 0.  1.
         22   -1    0    0    0    0 -0.00000000000E+00 -0.00000000000E+00 -0.57869812671E+03  0.57869812671E+03  0.00000000000E+00 0.  1.
         24    2    1    2    0    0 -0.33399843837E+02 -0.13471535071E+02 -0.54178707417E+03  0.54883240133E+03  0.79917076964E+02 0.  0.
         25    2    1    2    0    0  0.68350967195E+02  0.51966263412E+01  0.13033259680E+03  0.19323123878E+03  0.12511141518E+03 0.  0.
        -24    2    1    2    0    0 -0.34951123358E+02  0.82749087295E+01  0.13560710031E+04  0.13599491391E+04  0.96140731128E+02 0.  0.
        -13    1    3    3    0    0 -0.32776393333E+02 -0.40422153305E+02 -0.45469978430E+03  0.45766815083E+03  0.00000000000E+00 0.  1.
         14    1    3    3    0    0 -0.62345050307E+00  0.26950618234E+02 -0.87087289864E+02  0.91164250502E+02  0.00000000000E+00 0. -1.
         11    1    5    5    0    0  0.27191670945E+02 -0.74912157422E+01  0.18633522540E+03  0.18845774461E+03  0.00000000000E+00 0. -1.
        -12    1    5    5    0    0 -0.62142794303E+02  0.15766124472E+02  0.11697357778E+04  0.11714913945E+04  0.00000000000E+00 0.  1.
          5    1    4    4  501    0  0.28089013301E+02  0.32646505056E+02 -0.10179356225E+02  0.44450856615E+02  0.41800000000E+01 0. -1.
         -5    1    4    4    0  501  0.40261953894E+02 -0.27449878715E+02  0.14051195303E+03  0.14878038216E+03  0.41800000000E+01 0. -1.
</event>
<event>
11    1  0.6930157E-009  0.2262982E+03  0.7561462E-02  0.1037342E+00
         22   -1    0    0    0    0  0.00000000000E+00  0.00000000000E+00  0.21434771419E+04  0.21434771419E+04  0.00000000000E+00 0.  1.
         22   -1    0    0    0    0 -0.00000000000E+00 -0.00000000000E+00 -0.10029639287E+03  0.10029639287E+03  0.00000000000E+00 0. -1.
        -24    2    1    2    0    0  0.13303070290E+03  0.11422672729E+03  0.69550039526E+02  0.20533024592E+03  0.81107266942E+02 0.  0.
         25    2    1    2    0    0 -0.16608168612E+03 -0.19712578273E+03  0.66178424783E+03  0.72114412687E+03  0.12509500531E+03 0.  0.
         24    2    1    2    0    0  0.33050983221E+02  0.82899055439E+02  0.13118464617E+04  0.13172991620E+04  0.79820562937E+02 0.  0.
        -13    1    5    5    0    0  0.52490468947E+02  0.75935063742E+02  0.12012404195E+04  0.12047821084E+04  0.00000000000E+00 0.  1.
         14    1    5    5    0    0 -0.19439485727E+02  0.69639916970E+01  0.11060604222E+03  0.11251705365E+03  0.00000000000E+00 0. -1.
         11    1    3    3    0    0  0.82265615341E+02  0.10626480360E+03  0.23695600770E+02  0.13645996280E+03  0.00000000000E+00 0. -1.
        -12    1    3    3    0    0  0.50765087560E+02  0.79619236916E+01  0.45854438756E+02  0.68870283123E+02  0.00000000000E+00 0.  1.
          5    1    4    4  501    0 -0.11444830276E+03 -0.19538860937E+03  0.45890177671E+03  0.51174547946E+03  0.41800000000E+01 0. -1.
         -5    1    4    4    0  501 -0.51633383365E+02 -0.17371733589E+01  0.20288247112E+03  0.20939864741E+03  0.41800000000E+01 0. -1.
</event>
<event>
11    1  0.6930157E-009  0.1443573E+03  0.7561462E-02  0.1102788E+00
         22   -1    0    0    0    0  0.00000000000E+00  0.00000000000E+00  0.19806471983E+04  0.19806471983E+04  0.00000000000E+00 0.  1.
         22   -1    0    0    0    0 -0.00000000000E+00 -0.00000000000E+00 -0.53750007812E+03  0.53750007812E+03  0.00000000000E+00 0.  1.
         24    2    1    2    0    0  0.56856561054E+02 -0.43436990468E+02 -0.44995976691E+03  0.46270658132E+03  0.80710271205E+02 0.  0.
         25    2    1    2    0    0 -0.95309246752E+02  0.13350598142E+01 -0.24782624656E+01  0.15728365982E+03  0.12508546263E+03 0.  0.
        -24    2    1    2    0    0  0.38452685699E+02  0.42101930654E+02  0.18955851495E+04  0.18981570353E+04  0.80659095843E+02 0.  0.
        -13    1    3    3    0    0  0.41778316733E+02 -0.87209046848E+01 -0.38625902105E+03  0.38860971845E+03  0.00000000000E+00 0.  1.
         14    1    3    3    0    0  0.15078244321E+02 -0.34716085783E+02 -0.63700745860E+02  0.74096862869E+02  0.00000000000E+00 0. -1.
         11    1    5    5    0    0  0.13410133387E+02 -0.12779377888E+02  0.10967681877E+03  0.11123016116E+03  0.00000000000E+00 0. -1.
        -12    1    5    5    0    0  0.25042552311E+02  0.54881308541E+02  0.17859083308E+04  0.17869268741E+04  0.00000000000E+00 0.  1.
          5    1    4    4  501    0 -0.76460311039E+02 -0.50230834556E+02 -0.29143745411E+02  0.96104870849E+02  0.41800000000E+01 0.  1.
         -5    1    4    4    0  501 -0.18848935713E+02  0.51565894370E+02  0.26665482946E+02  0.61178788975E+02  0.41800000000E+01 0.  1.
</event>
<event>
11    1  0.6930157E-009  0.3859826E+03  0.7561462E-02  0.9692047E-01
         22   -1    0    0    0    0  0.00000000000E+00  0.00000000000E+00  0.16435634530E+04  0.16435634530E+04  0.00000000000E+00 0. -1.
         22   -1    0    0    0    0 -0.00000000000E+00 -0.00000000000E+00 -0.29201450914E+03  0.29201450914E+03  0.00000000000E+00 0. -1.
         24    2    1    2    0    0  0.70137183780E+02  0.51907844322E+02 -0.18111813154E+03  0.21619818698E+03  0.79525025180E+02 0.  0.
         25    2    1    2    0    0 -0.10313521964E+03  0.32806130507E+03  0.52049120681E+03  0.63625504836E+03  0.12509315247E+03 0.  0.
        -24    2    1    2    0    0  0.32998035864E+02 -0.37996914939E+03  0.10121758686E+04  0.10831247268E+04  0.56513360777E+02 0.  0.
        -11    1    3    3    0    0  0.40418991144E+02  0.25440703649E+02 -0.22739137006E+02  0.52896054665E+02  0.00000000000E+00 0.  1.
         12    1    3    3    0    0  0.29718192636E+02  0.26467140673E+02 -0.15837899454E+03  0.16330213232E+03  0.00000000000E+00 0. -1.
         11    1    5    5    0    0  0.35367302038E+02 -0.34781589927E+03  0.87607235331E+03  0.94325474506E+03  0.00000000000E+00 0. -1.
        -12    1    5    5    0    0 -0.23692661742E+01 -0.32153250114E+02  0.13610351526E+03  0.13986998170E+03  0.00000000000E+00 0.  1.
          5    1    4    4  501    0 -0.95997824320E+02  0.19545068100E+03  0.22965181993E+03  0.31650273581E+03  0.41800000000E+01 0. -1.
         -5    1    4    4    0  501 -0.71373953248E+01  0.13261062407E+03  0.29083938687E+03  0.31975231256E+03  0.41800000000E+01 0. -1.
</event>
<event>
11    1  0.6930157E-009  0.1336310E+03  0.7561462E-02  0.1114886E+00
         22   -1    0    0    0    0  0.00000000000E+00  0.00000000000E+00  0.29409839693E+03  0.29409839693E+03  0.00000000000E+00 0. -1.
         22   -1    0    0    0    0 -0.00000000000E+00 -0.00000000000E+00 -0.54457668721E+03  0.54457668721E+03  0.00000000000E+00 0.  1.
        -24    2    1    2    0    0 -0.45171996386E+02 -0.78907622203E+01 -0.44829189202E+03  0.45811883980E+03  0.82489257115E+02 0.  0.
         25    2    1    2    0    0  0.56654158209E+02  0.26724307863E+02 -0.25460633819E+02  0.14219723336E+03  0.12509167450E+03 0.  0.
         24    2    1    2    0    0 -0.11482161823E+02 -0.18833545643E+02  0.22327423557E+03  0.23835901098E+03  0.80480378752E+02 0.  0.
        -11    1    5    5    0    0 -0.24896844600E+02 -0.27703159311E+02  0.41061338410E+02  0.55437815783E+02  0.00000000000E+00 0.  1.
         12    1    5    5    0    0  0.13414682776E+02  0.88696136678E+01  0.18221289716E+03  0.18292119519E+03  0.00000000000E+00 0. -1.
         11    1    3    3    0    0 -0.62265419966E+02 -0.20527388988E+02 -0.24162969852E+03  0.25036626655E+03  0.00000000000E+00 0. -1.
        -12    1    3    3    0    0  0.17093423580E+02  0.12636626767E+02 -0.20666219351E+03  0.20775257325E+03  0.00000000000E+00 0.  1.
          5    1    4    4  501    0 -0.17939154881E+02  0.37290409586E+02 -0.47938755909E+02  0.63466405626E+02  0.41800000000E+01 0. -1.
         -5    1    4    4    0  501  0.74593313090E+02 -0.10566101723E+02  0.22478122091E+02  0.78730827736E+02  0.41800000000E+01 0. -1.
</event>
<event>
11    1  0.6930157E-009  0.1495112E+03  0.7561462E-02  0.1097379E+00
         22   -1    0    0    0    0  0.00000000000E+00  0.00000000000E+00  0.55993699737E+03  0.55993699737E+03  0.00000000000E+00 0.  1.
         22   -1    0    0    0    0 -0.00000000000E+00 -0.00000000000E+00 -0.58047148925E+03  0.58047148925E+03  0.00000000000E+00 0. -1.
        -24    2    1    2    0    0  0.14894912045E+02 -0.38445302972E+02 -0.44727974222E+03  0.45680803381E+03  0.83153546111E+02 0.  0.
         25    2    1    2    0    0  0.67611220239E+02  0.31921602554E+02 -0.78485327668E+02  0.16552272148E+03  0.12509020287E+03 0.  0.
         24    2    1    2    0    0 -0.82506132283E+02  0.65237004185E+01  0.50523057801E+03  0.51807773133E+03  0.79352241357E+02 0.  0.
        -11    1    5    5    0    0 -0.34235346434E+01 -0.81489109868E+01  0.25678074604E+03  0.25693282561E+03  0.00000000000E+00 0.  1.
         12    1    5    5    0    0 -0.79082597640E+02  0.14672611405E+02  0.24844983197E+03  0.26114490572E+03  0.00000000000E+00 0. -1.
         13    1    3    3    0    0  0.26915973426E+02 -0.37965322228E+02 -0.44059289519E+03  0.44304394207E+03  0.00000000000E+00 0. -1.
        -14    1    3    3    0    0 -0.12021061381E+02 -0.47998074413E+00 -0.66868470342E+01  0.13764091743E+02  0.00000000000E+00 0.  1.
          5    1    4    4  501    0  0.71569053812E+02 -0.61488968695E+01 -0.98614933850E+02  0.12207504239E+03  0.41800000000E+01 0.  1.
         -5    1    4    4    0  501 -0.39578335733E+01  0.38070499423E+02  0.20129606182E+02  0.43447679086E+02  0.41800000000E+01 0.  1.
</event>
<event>
11    1  0.6930157E-009  0.1763258E+03  0.7561462E-02  0.1072654E+00
         22   -1    0    0    0    0  0.00000000000E+00  0.00000000000E+00  0.67389567763E+03  0.67389567763E+03  0.00000000000E+00 0. -1.
         22   -1    0    0    0    0 -0.00000000000E+00 -0.00000000000E+00 -0.39508824770E+03  0.39508824770E+03  0.00000000000E+00 0.  1.
        -24    2    1    2    0    0 -0.41997165923E+01  0.13655997060E+03 -0.32161898823E+03  0.35962003583E+03  0.84979605728E+02 0.  0.
         25    2    1    2    0    0  0.33668470610E+02 -0.55706696939E+02  0.54844405047E+02  0.15128964400E+03  0.12507535976E+03 0.  0.
         24    2    1    2    0    0 -0.29468754017E+02 -0.80853273658E+02  0.54558201311E+03  0.55807424550E+03  0.79884110701E+02 0.  0.
        -11    1    5    5    0    0 -0.40846594365E+02 -0.21016386979E+02  0.12636165857E+03  0.13445222776E+03  0.00000000000E+00 0.  1.
         12    1    5    5    0    0  0.11377840348E+02 -0.59836886679E+02  0.41922035454E+03  0.42362201775E+03  0.00000000000E+00 0. -1.
         11    1    3    3    0    0  0.19484965118E+02  0.23547965745E+02 -0.19670752990E+02  0.36347064250E+02  0.00000000000E+00 0. -1.
        -12    1    3    3    0    0 -0.23684681710E+02  0.11301200485E+03 -0.30194823524E+03  0.32327297158E+03  0.00000000000E+00 0.  1.
          5    1    4    4  501    0  0.38072033617E+02 -0.58486245957E+02  0.90869429010E+02  0.11465097574E+03  0.41800000000E+01 0. -1.
         -5    1    4    4    0  501 -0.44035630079E+01  0.27795490185E+01 -0.36025023962E+02  0.36638668254E+02  0.41800000000E+01 0. -1.
</event>
<event>
11    1  0.6930157E-009  0.1552500E+03  0.7561462E-02  0.1091632E+00
         22   -1    0    0    0    0  0.00000000000E+00  0.00000000000E+00  0.13486700071E+04  0.13486700071E+04  0.00000000000E+00 0.  1.
         22   -1    0    0    0    0 -0.00000000000E+00 -0.00000000000E+00 -0.50909457752E+03  0.50909457752E+03  0.00000000000E+00 0.  1.
         24    2    1    2    0    0 -0.17501485439E+02  0.33794925522E+02 -0.33314722792E+03  0.34463096264E+03  0.79592876302E+02 0.  0.
         25    2    1    2    0    0 -0.84689020005E+01 -0.12155510522E+03 -0.12185548331E+03  0.21292948065E+03  0.12507133569E+03 0.  0.
        -24    2    1    2    0    0  0.25970387439E+02  0.87760179695E+02  0.12945781408E+04  0.13002041413E+04  0.78879251283E+02 0.  0.
        -13    1    3    3    0    0 -0.17994342906E+02 -0.23998743565E+01 -0.27844681676E+03  0.27903796433E+03  0.00000000000E+00 0.  1.
         14    1    3    3    0    0  0.49285746714E+00  0.36194799878E+02 -0.54700411163E+02  0.65592998316E+02  0.00000000000E+00 0. -1.
         13    1    5    5    0    0 -0.16176144171E+02  0.18398808505E+00  0.73252800433E+02  0.75017826302E+02  0.00000000000E+00 0. -1.
        -14    1    5    5    0    0  0.42146531610E+02  0.87576191610E+02  0.12213253403E+04  0.12251863150E+04  0.00000000000E+00 0.  1.
          5    1    4    4  501    0 -0.77258912727E+01 -0.13944310582E+03 -0.66764325322E+02  0.15485159571E+03  0.41800000000E+01 0.  1.
         -5    1    4    4    0  501 -0.74301072775E+00  0.17888000607E+02 -0.55091157992E+02  0.58077884944E+02  0.41800000000E+01 0.  1.
</event>
<event>
11    1  0.6930157E-009  0.1374504E+03  0.7561462E-02  0.1110439E+00
         22   -1    0    0    0    0  0.00000000000E+00  0.00000000000E+00  0.13030294707E+04  0.13030294707E+04  0.00000000000E+00 0.  1.
         22   -1    0    0    0    0 -0.00000000000E+00 -0.00000000000E+00 -0.45970424455E+02  0.45970424455E+02  0.00000000000E+00 0.  1.
         24    2    1    2    0    0 -0.55083136696E+01  0.31172685069E+02  0.48279442989E+02  0.10771317845E+03  0.90934846914E+02 0.  0.
         25    2    1    2    0    0 -0.28740292603E+02  0.20448251896E+02  0.30082643157E+03  0.32770176548E+03  0.12509104579E+03 0.  0.
        -24    2    1    2    0    0  0.34248606272E+02 -0.51620936966E+02  0.90795317171E+03  0.91358495125E+03  0.80129975509E+02 0.  0.
        -11    1    3    3    0    0 -0.26894666688E+02 -0.23159457676E+02  0.69227518055E+01  0.36160863771E+02  0.00000000000E+00 0.  1.
         12    1    3    3    0    0  0.21386353019E+02  0.54332142745E+02  0.41356691184E+02  0.71552314682E+02  0.00000000000E+00 0. -1.
         11    1    5    5    0    0  0.25535881331E+02 -0.72034608732E+02  0.60279428542E+03  0.60761996068E+03  0.00000000000E+00 0. -1.
        -12    1    5    5    0    0  0.87127249413E+01  0.20413671767E+02  0.30515888629E+03  0.30596499057E+03  0.00000000000E+00 0.  1.
          5    1    4    4  501    0 -0.11284106238E+02 -0.12680152019E+02 -0.60669936383E+01  0.18504002827E+02  0.41800000000E+01 0. -1.
         -5    1    4    4    0  501 -0.17456186365E+02  0.33128403915E+02  0.30689342521E+03  0.30919776265E+03  0.41800000000E+01 0. -1.
</event>
<event>
11    1  0.6930157E-009  0.1394383E+03  0.7561462E-02  0.1108187E+00
         22   -1    0    0    0    0  0.00000000000E+00  0.00000000000E+00  0.75117006837E+02  0.75117006837E+02  0.00000000000E+00 0. -1.
         22   -1    0    0    0    0 -0.00000000000E+00 -0.00000000000E+00 -0.12572089940E+04  0.12572089940E+04  0.00000000000E+00 0.  1.
        -24    2    1    2    0    0 -0.11056749181E+02  0.55518297541E+02 -0.83915255236E+03  0.84485257205E+03  0.79964550236E+02 0.  0.
         25    2    1    2    0    0  0.52163308788E+02 -0.48869598829E+01 -0.35927952570E+03  0.38402543431E+03  0.12509541739E+03 0.  0.
         24    2    1    2    0    0 -0.41106559607E+02 -0.50631337658E+02  0.16340090892E+02  0.10344799449E+03  0.78620655027E+02 0.  0.
        -13    1    5    5    0    0 -0.71383225985E+01 -0.50055437148E+02 -0.19382980213E+02  0.54149814031E+02  0.00000000000E+00 0.  1.
         14    1    5    5    0    0 -0.33968237009E+02 -0.57590050986E+00  0.35723071106E+02  0.49298180454E+02  0.00000000000E+00 0. -1.
         11    1    3    3    0    0 -0.11848563975E+02  0.48406090367E+02 -0.21660736604E+03  0.22226625717E+03  0.00000000000E+00 0. -1.
        -12    1    3    3    0    0  0.79181479362E+00  0.71122071744E+01 -0.62254518632E+03  0.62258631488E+03  0.00000000000E+00 0.  1.
          5    1    4    4  501    0  0.32894753517E+02  0.14368887480E+02 -0.35415412714E+03  0.35599318520E+03  0.41800000000E+01 0. -1.
         -5    1    4    4    0  501  0.19268555271E+02 -0.19255847363E+02 -0.51253985572E+01  0.28032249112E+02  0.41800000000E+01 0. -1.
</event>
<event>
11    1  0.6930157E-009  0.2270502E+03  0.7561462E-02  0.1036889E+00
         22   -1    0    0    0    0  0.00000000000E+00  0.00000000000E+00  0.67249128034E+03  0.67249128034E+03  0.00000000000E+00 0. -1.
         22   -1    0    0    0    0 -0.00000000000E+00 -0.00000000000E+00 -0.32847380827E+03  0.32847380827E+03  0.00000000000E+00 0. -1.
        -24    2    1    2    0    0 -0.39126315021E+02 -0.13206601593E+03 -0.83237943371E+02  0.17944602189E+03  0.79372655652E+02 0.  0.
         25    2    1    2    0    0  0.84899111986E+02  0.30144412320E+03 -0.16465526468E+02  0.33763255902E+03  0.12509281642E+03 0.  0.
         24    2    1    2    0    0 -0.45772796964E+02 -0.16937810727E+03  0.44372094191E+03  0.48388650770E+03  0.80459840162E+02 0.  0.
        -13    1    5    5    0    0  0.20627444066E+01 -0.11647792977E+02  0.14708097316E+01  0.11920120678E+02  0.00000000000E+00 0.  1.
         14    1    5    5    0    0 -0.47835541371E+02 -0.15773031430E+03  0.44225013217E+03  0.47196638702E+03  0.00000000000E+00 0. -1.
         13    1    3    3    0    0 -0.63552338823E+02 -0.96402023446E+02 -0.55750991078E+02  0.12822021253E+03  0.00000000000E+00 0. -1.
        -14    1    3    3    0    0  0.24426023802E+02 -0.35663992482E+02 -0.27486952292E+02  0.51225809362E+02  0.00000000000E+00 0.  1.
          5    1    4    4  501    0  0.42612256438E+02  0.21365649894E+02 -0.25466115213E+02  0.54206003525E+02  0.41800000000E+01 0.  1.
         -5    1    4    4    0  501  0.42286855548E+02  0.28007847331E+03  0.90005887449E+01  0.28342655549E+03  0.41800000000E+01 0.  1.
</event>
<event>
11    1  0.1126321E-008  0.1574079E+03  0.7561462E-02  0.1089541E+00
         22   -1    0    0    0    0  0.00000000000E+00  0.00000000000E+00  0.90550090266E+03  0.90550090266E+03  0.00000000000E+00 0.  1.
         22   -1    0    0    0    0 -0.00000000000E+00 -0.00000000000E+00 -0.11372426959E+04  0.11372426959E+04  0.00000000000E+00 0. -1.
        -24    2    1    2    0    0  0.56319923922E+02  0.73705604960E+02 -0.10426173535E+04  0.10524190309E+04  0.10922646567E+03 0.  0.
         25    2    1    2    0    0 -0.73432194780E+02 -0.16718606758E+03  0.59746722696E+02  0.22926179693E+03  0.12509129561E+03 0.  0.
         24    2    1    2    0    0  0.17112270859E+02  0.93480462616E+02  0.75112883762E+03  0.76106277066E+03  0.77398859660E+02 0.  0.
        -11    1    5    5    0    0 -0.10336024567E+02  0.26942503529E+02  0.46935166366E+03  0.47023793560E+03  0.00000000000E+00 0.  1.
         12    1    5    5    0    0  0.27448295426E+02  0.66537959087E+02  0.28177717396E+03  0.29082483506E+03  0.00000000000E+00 0. -1.
         13    1    3    3    0    0  0.46934281893E+02  0.94145533153E+02 -0.98445085919E+03  0.99005540370E+03  0.00000000000E+00 0. -1.
        -14    1    3    3    0    0  0.93856420280E+01 -0.20439928193E+02 -0.58166494312E+02  0.62363627231E+02  0.00000000000E+00 0.  1.
          5    1    4    4  501    0 -0.10373942606E+03 -0.15302753366E+03  0.36986201567E+02  0.18858617681E+03  0.41800000000E+01 0.  1.
         -5    1    4    4    0  501  0.30307231278E+02 -0.14158533917E+02  0.22760521129E+02  0.40675620124E+02  0.41800000000E+01 0.  1.
</event>
<event>
11    1  0.6930157E-009  0.1438257E+03  0.7561462E-02  0.1103360E+00
         22   -1    0    0    0    0  0.00000000000E+00  0.00000000000E+00  0.15509489460E+03  0.15509489460E+03  0.00000000000E+00 0.  1.
         22   -1    0    0    0    0 -0.00000000000E+00 -0.00000000000E+00 -0.53129752752E+03  0.53129752752E+03  0.00000000000E+00 0.  1.
         24    2    1    2    0    0 -0.25001085385E+02  0.24911863706E+02 -0.37058944003E+03  0.38019373732E+03  0.77233992626E+02 0.  0.
         25    2    1    2    0    0 -0.43126698337E+02 -0.51392191561E+02 -0.92329278492E+02  0.16932949369E+03  0.12508681907E+03 0.  0.
        -24    2    1    2    0    0  0.68127783723E+02  0.26480327855E+02  0.86716085601E+02  0.13686919109E+03  0.76621754679E+02 0.  0.
        -11    1    3    3    0    0 -0.79452031012E+01 -0.23545355257E+02 -0.21295183027E+03  0.21439680973E+03  0.00000000000E+00 0.  1.
         12    1    3    3    0    0 -0.17055882284E+02  0.48457218963E+02 -0.15763760976E+03  0.16579692760E+03  0.00000000000E+00 0. -1.
         13    1    5    5    0    0 -0.75050874439E+01  0.15617731941E+02 -0.44770156278E+01  0.17896467737E+02  0.00000000000E+00 0. -1.
        -14    1    5    5    0    0  0.75632871166E+02  0.10862595914E+02  0.91193101229E+02  0.11897272336E+03  0.00000000000E+00 0.  1.
          5    1    4    4  501    0 -0.75606082712E+02 -0.30078575880E+02 -0.10053431025E+03  0.12940487010E+03  0.41800000000E+01 0.  1.
         -5    1    4    4    0  501  0.32479384374E+02 -0.21313615681E+02  0.82050317547E+01  0.39924623591E+02  0.41800000000E+01 0.  1.
</event>
<event>
11    1  0.6930157E-009  0.2049176E+03  0.7561462E-02  0.1051100E+00
         22   -1    0    0    0    0  0.00000000000E+00  0.00000000000E+00  0.71852319859E+03  0.71852319859E+03  0.00000000000E+00 0.  1.
         22   -1    0    0    0    0 -0.00000000000E+00 -0.00000000000E+00 -0.15355429343E+04  0.15355429343E+04  0.00000000000E+00 0. -1.
        -24    2    1    2    0    0  0.18593221040E+02 -0.66467374077E+01 -0.13204076612E+04  0.13230408542E+04  0.81060614219E+02 0.  0.
         25    2    1    2    0    0  0.21382266767E+02  0.16384315819E+03 -0.14855114661E+03  0.25498325488E+03  0.12508890956E+03 0.  0.
         24    2    1    2    0    0 -0.39975487807E+02 -0.15719642078E+03  0.65193907211E+03  0.67604202378E+03  0.75495098153E+02 0.  0.
        -11    1    5    5    0    0 -0.43900736900E+02 -0.15436963850E+03  0.65173050688E+03  0.67120035279E+03  0.00000000000E+00 0.  1.
         12    1    5    5    0    0  0.39252490929E+01 -0.28267822834E+01  0.20856522906E+00  0.48416709899E+01  0.00000000000E+00 0. -1.
         13    1    3    3    0    0  0.27151270287E+02 -0.38089397698E+02 -0.96809332958E+03  0.96922272387E+03  0.00000000000E+00 0. -1.
        -14    1    3    3    0    0 -0.85580492473E+01  0.31442660291E+02 -0.35231433160E+03  0.35381813032E+03  0.00000000000E+00 0.  1.
          5    1    4    4  501    0  0.58589837372E+02  0.39306591860E+02 -0.84069007519E+02  0.10983099577E+03  0.41800000000E+01 0. -1.
         -5    1    4    4    0  501 -0.37207570605E+02  0.12453656633E+03 -0.64482139091E+02  0.14515225911E+03  0.41800000000E+01 0. -1.
</event>
<event>
11    1  0.6930157E-009  0.1410360E+03  0.7561462E-02  0.1106407E+00
         22   -1    0    0    0    0  0.00000000000E+00  0.00000000000E+00  0.48160118797E+03  0.48160118797E+03  0.00000000000E+00 0. -1.
         22   -1    0    0    0    0 -0.00000000000E+00 -0.00000000000E+00 -0.96792861110E+03  0.96792861110E+03  0.00000000000E+00 0.  1.
        -24    2    1    2    0    0 -0.39913282299E+02 -0.35088341992E+02 -0.41647435414E+03  0.42766767116E+03  0.81390954367E+02 0.  0.
         25    2    1    2    0    0  0.90250214053E+01 -0.22928575024E+02 -0.53189328746E+03  0.54696011377E+03  0.12509087194E+03 0.  0.
         24    2    1    2    0    0  0.30888260894E+02  0.58016917016E+02  0.46204021847E+03  0.47490201413E+03  0.87924468822E+02 0.  0.
        -13    1    5    5    0    0 -0.18163026774E+01 -0.20376894103E+02  0.15444038426E+03  0.15578943822E+03  0.00000000000E+00 0.  1.
         14    1    5    5    0    0  0.32704563572E+02  0.78393811119E+02  0.30759983421E+03  0.31911257592E+03  0.00000000000E+00 0. -1.
         13    1    3    3    0    0  0.97794662805E+01  0.27359003469E+01 -0.47092934697E+01  0.11193773109E+02  0.00000000000E+00 0. -1.
        -14    1    3    3    0    0 -0.49692748580E+02 -0.37824242339E+02 -0.41176506067E+03  0.41647389805E+03  0.00000000000E+00 0.  1.
          5    1    4    4  501    0 -0.22500203387E+02  0.70130372419E+01 -0.15048896688E+02  0.28273371489E+02  0.41800000000E+01 0.  1.
         -5    1    4    4    0  501  0.31525224792E+02 -0.29941612266E+02 -0.51684439078E+03  0.51868674228E+03  0.41800000000E+01 0.  1.
</event>
<event>
11    1  0.6930157E-009  0.1464791E+03  0.7561462E-02  0.1100532E+00
         22   -1    0    0    0    0  0.00000000000E+00  0.00000000000E+00  0.33793496077E+03  0.33793496077E+03  0.00000000000E+00 0. -1.
         22   -1    0    0    0    0 -0.00000000000E+00 -0.00000000000E+00 -0.24639202620E+03  0.24639202620E+03  0.00000000000E+00 0. -1.
        -24    2    1    2    0    0  0.66504108217E+02  0.43736018929E+02 -0.17015668973E+03  0.20445514003E+03  0.80702970585E+02 0.  0.
         25    2    1    2    0    0 -0.65778402566E+02  0.16005243665E+01  0.59125783003E+02  0.15320209775E+03  0.12508263116E+03 0.  0.
         24    2    1    2    0    0 -0.72570565127E+00 -0.45336543295E+02  0.20257384129E+03  0.22666974919E+03  0.91033429096E+02 0.  0.
        -11    1    5    5    0    0 -0.34355824381E+01 -0.93878818411E+01 -0.81415831257E+01  0.12892669543E+02  0.00000000000E+00 0.  1.
         12    1    5    5    0    0  0.27098767868E+01 -0.35948661454E+02  0.21071542442E+03  0.21377707964E+03  0.00000000000E+00 0. -1.
         13    1    3    3    0    0  0.73817646200E+02  0.51180815220E+01 -0.11406461046E+03  0.13596313841E+03  0.00000000000E+00 0. -1.
        -14    1    3    3    0    0 -0.73135379827E+01  0.38617937407E+02 -0.56092079277E+02  0.68492001613E+02  0.00000000000E+00 0.  1.
          5    1    4    4  501    0 -0.38426699245E+02 -0.49313618906E+01 -0.36529326187E+02  0.53411549469E+02  0.41800000000E+01 0.  1.
         -5    1    4    4    0  501 -0.27351703320E+02  0.65318862571E+01  0.95655109190E+02  0.99790548284E+02  0.41800000000E+01 0.  1.
</event>
<event>
11    1  0.6930157E-009  0.2269595E+03  0.7561462E-02  0.1036943E+00
         22   -1    0    0    0    0  0.00000000000E+00  0.00000000000E+00  0.83663756166E+03  0.83663756166E+03  0.00000000000E+00 0. -1.
         22   -1    0    0    0    0 -0.00000000000E+00 -0.00000000000E+00 -0.13501917889E+03  0.13501917889E+03  0.00000000000E+00 0.  1.
         24    2    1    2    0    0  0.66589241607E+02 -0.26212328830E+02 -0.10325003188E+02  0.11332011323E+03  0.87256112054E+02 0.  0.
         25    2    1    2    0    0  0.12882866801E+03 -0.47854117711E+02  0.10933361305E+03  0.21561156830E+03  0.12509063577E+03 0.  0.
        -24    2    1    2    0    0 -0.19541790962E+03  0.74066446540E+02  0.60260977290E+03  0.64272505901E+03  0.79265157414E+02 0.  0.
        -11    1    3    3    0    0  0.29760369793E+01 -0.32920992102E+01 -0.39449271505E+02  0.39698107456E+02  0.00000000000E+00 0.  1.
         12    1    3    3    0    0  0.63613204628E+02 -0.22920229619E+02  0.29124268317E+02  0.73622005772E+02  0.00000000000E+00 0. -1.
         11    1    5    5    0    0 -0.14535483611E+03  0.43191719324E+02  0.32066673080E+03  0.35471214419E+03  0.00000000000E+00 0. -1.
        -12    1    5    5    0    0 -0.50063073513E+02  0.30874727216E+02  0.28194304211E+03  0.28801291482E+03  0.00000000000E+00 0.  1.
          5    1    4    4  501    0  0.95674644666E+02  0.12708291066E+02  0.13680538580E+02  0.97569297577E+02  0.41800000000E+01 0. -1.
         -5    1    4    4    0  501  0.33154023349E+02 -0.60562408777E+02  0.95653074475E+02  0.11804227072E+03  0.41800000000E+01 0. -1.
</event>
<event>
11    1  0.6930157E-009  0.1262806E+03  0.7561462E-02  0.1123925E+00
         22   -1    0    0    0    0  0.00000000000E+00  0.00000000000E+00  0.83023111204E+02  0.83023111204E+02  0.00000000000E+00 0. -1.
         22   -1    0    0    0    0 -0.00000000000E+00 -0.00000000000E+00 -0.20578237581E+04  0.20578237581E+04  0.00000000000E+00 0. -1.
         24    2    1    2    0    0 -0.28865249013E+02 -0.19594245508E+02 -0.18991729393E+04  0.19010680271E+04  0.77360540615E+02 0.  0.
         25    2    1    2    0    0  0.24698240044E+02 -0.21329156166E+01 -0.86389241131E+02  0.15403190145E+03  0.12509265882E+03 0.  0.
        -24    2    1    2    0    0  0.41670089683E+01  0.21727161124E+02  0.10761533560E+02  0.85746940723E+02  0.82141912228E+02 0.  0.
        -11    1    3    3    0    0  0.96304843357E+01 -0.15417763229E+02 -0.11121640364E+03  0.11269224503E+03  0.00000000000E+00 0.  1.
         12    1    3    3    0    0 -0.38495733349E+02 -0.41764822786E+01 -0.17879565357E+04  0.17883757821E+04  0.00000000000E+00 0. -1.
         13    1    5    5    0    0  0.92093525809E+01  0.52795476395E+02  0.65384030811E+01  0.53990047394E+02  0.00000000000E+00 0. -1.
        -14    1    5    5    0    0 -0.50423436125E+01 -0.31068315271E+02  0.42231304788E+01  0.31756893329E+02  0.00000000000E+00 0.  1.
          5    1    4    4  501    0 -0.16888179359E+02 -0.29851073382E+02  0.17456179674E+02  0.38710306030E+02  0.41800000000E+01 0.  1.
         -5    1    4    4    0  501  0.41586419404E+02  0.27718157766E+02 -0.10384542080E+03  0.11532159542E+03  0.41800000000E+01 0.  1.
</event>
<event>
11    1  0.6930157E-009  0.1756825E+03  0.7561462E-02  0.1073190E+00
         22   -1    0    0    0    0  0.00000000000E+00  0.00000000000E+00  0.93866017873E+03  0.93866017873E+03  0.00000000000E+00 0.  1.
         22   -1    0    0    0    0 -0.00000000000E+00 -0.00000000000E+00 -0.31030389074E+03  0.31030389074E+03  0.00000000000E+00 0. -1.
        -24    2    1    2    0    0  0.11954443880E+03 -0.39982878741E+02 -0.27407010310E+03  0.31210284820E+03  0.80026639332E+02 0.  0.
         25    2    1    2    0    0 -0.62658494652E+02  0.17309923384E+02  0.39950436709E+03  0.42364807556E+03  0.12509289429E+03 0.  0.
         24    2    1    2    0    0 -0.56885944148E+02  0.22672955357E+02  0.50292202400E+03  0.51321314571E+03  0.81896869019E+02 0.  0.
        -11    1    5    5    0    0 -0.71945140862E+02  0.10122960681E+02  0.46378364655E+03  0.46943993060E+03  0.00000000000E+00 0.  1.
         12    1    5    5    0    0  0.15059196714E+02  0.12549994675E+02  0.39138377448E+02  0.43773215113E+02  0.00000000000E+00 0. -1.
         13    1    3    3    0    0  0.13083488982E+03 -0.35544201670E+02 -0.26194132018E+03  0.29494815457E+03  0.00000000000E+00 0. -1.
        -14    1    3    3    0    0 -0.11290451024E+02 -0.44386770704E+01 -0.12128782922E+02  0.17154693633E+02  0.00000000000E+00 0.  1.
          5    1    4    4  501    0  0.12326189772E+02  0.33038477542E+02  0.30683056298E+02  0.46929716560E+02  0.41800000000E+01 0.  1.
         -5    1    4    4    0  501 -0.74984684424E+02 -0.15728554158E+02  0.36882131079E+03  0.37671835900E+03  0.41800000000E+01 0.  1.
</event>
<event>
11    1  0.6930157E-009  0.2001095E+03  0.7561462E-02  0.1054446E+00
         22   -1    0    0    0    0  0.00000000000E+00  0.00000000000E+00  0.11899096067E+04  0.11899096067E+04  0.00000000000E+00 0.  1.
         22   -1    0    0    0    0 -0.00000000000E+00 -0.00000000000E+00 -0.80902024122E+03  0.80902024122E+03  0.00000000000E+00 0. -1.
         24    2    1    2    0    0 -0.12155162972E+02  0.11984693783E+03 -0.74648008272E+03  0.76047419103E+03  0.81101447801E+02 0.  0.
         25    2    1    2    0    0 -0.39264902709E+01 -0.25714900331E+03  0.38713706403E+03  0.48131406099E+03  0.12508833574E+03 0.  0.
        -24    2    1    2    0    0  0.16081653243E+02  0.13730206548E+03  0.74023238421E+03  0.75714159592E+03  0.78796807647E+02 0.  0.
        -13    1    3    3    0    0  0.15418823088E+02  0.72404949102E+02 -0.24335601569E+03  0.25436659987E+03  0.00000000000E+00 0.  1.
         14    1    3    3    0    0 -0.27573986060E+02  0.47441988725E+02 -0.50312406703E+03  0.50610759116E+03  0.00000000000E+00 0. -1.
         11    1    5    5    0    0 -0.63673423471E+01 -0.83865642448E+01  0.30608526694E+02  0.32369112048E+02  0.00000000000E+00 0. -1.
        -12    1    5    5    0    0  0.22448995590E+02  0.14568862972E+03  0.70962385751E+03  0.72477248388E+03  0.00000000000E+00 0.  1.
          5    1    4    4  501    0  0.11328109097E+02  0.79251136248E+01  0.37099319078E+01  0.14912058088E+02  0.41800000000E+01 0.  1.
         -5    1    4    4    0  501 -0.15254599368E+02 -0.26507411693E+03  0.38342713212E+03  0.46640200291E+03  0.41800000000E+01 0.  1.
</event>
<event>
11    1  0.6930157E-009  0.1437066E+03  0.7561462E-02  0.1103489E+00
         22   -1    0    0    0    0  0.00000000000E+00  0.00000000000E+00  0.26943672150E+03  0.26943672150E+03  0.00000000000E+00 0.  1.
         22   -1    0    0    0    0 -0.00000000000E+00 -0.00000000000E+00 -0.49424773174E+03  0.49424773174E+03  0.00000000000E+00 0. -1.
        -24    2    1    2    0    0 -0.35965458801E+02 -0.27393524853E+02 -0.22314433838E+03  0.24426762280E+03  0.88483650300E+02 0.  0.
         25    2    1    2    0    0  0.10282411205E+03  0.43471815308E+02 -0.21980010360E+03  0.27644493226E+03  0.12508844185E+03 0.  0.
         24    2    1    2    0    0 -0.66858653253E+02 -0.16078290455E+02  0.21813343174E+03  0.24297189817E+03  0.82003404295E+02 0.  0.
        -13    1    5    5    0    0 -0.31491105252E+02  0.22117239430E+02  0.16161709938E+03  0.16613533279E+03  0.00000000000E+00 0.  1.
         14    1    5    5    0    0 -0.35367548001E+02 -0.38195529885E+02  0.56516332364E+02  0.76836565375E+02  0.00000000000E+00 0. -1.
         13    1    3    3    0    0 -0.24859620964E+02 -0.15408147138E+02 -0.22582352835E+03  0.22770963464E+03  0.00000000000E+00 0. -1.
        -14    1    3    3    0    0 -0.11105837837E+02 -0.11985377716E+02  0.26791899734E+01  0.16557988162E+02  0.00000000000E+00 0.  1.
          5    1    4    4  501    0  0.21467339372E+02  0.76625632113E+02 -0.10225877150E+03  0.12964051413E+03  0.41800000000E+01 0.  1.
         -5    1    4    4    0  501  0.81356772682E+02 -0.33153816805E+02 -0.11754133211E+03  0.14680441813E+03  0.41800000000E+01 0.  1.
</event>
<event>
11    1  0.6930157E-009  0.2237052E+03  0.7561462E-02  0.1038921E+00
         22   -1    0    0    0    0  0.00000000000E+00  0.00000000000E+00  0.15086769981E+04  0.15086769981E+04  0.00000000000E+00 0.  1.
         22   -1    0    0    0    0 -0.00000000000E+00 -0.00000000000E+00 -0.17663860420E+03  0.17663860420E+03  0.00000000000E+00 0. -1.
         24    2    1    2    0    0  0.57202430304E+02  0.15561396981E+02 -0.10495428138E+03  0.14345403842E+03  0.77777791501E+02 0.  0.
         25    2    1    2    0    0  0.13132462804E+03  0.34647731902E+02  0.15019022556E+03  0.23801471653E+03  0.12508908096E+03 0.  0.
        -24    2    1    2    0    0 -0.18852705835E+03 -0.50209128883E+02  0.12868024498E+04  0.13038468474E+04  0.78055418612E+02 0.  0.
        -13    1    3    3    0    0 -0.27036164229E+01 -0.14051891039E+02  0.46827814768E+01  0.15056348359E+02  0.00000000000E+00 0.  1.
         14    1    3    3    0    0  0.59906046727E+02  0.29613288020E+02 -0.10963706285E+03  0.12839769006E+03  0.00000000000E+00 0. -1.
         11    1    5    5    0    0 -0.55558692029E+02 -0.20087081365E+02  0.64630841184E+03  0.64900294477E+03  0.00000000000E+00 0. -1.
        -12    1    5    5    0    0 -0.13296836632E+03 -0.30122047518E+02  0.64049403791E+03  0.65484390261E+03  0.00000000000E+00 0.  1.
          5    1    4    4  501    0  0.67695192273E+02  0.33965239053E+02  0.15651933728E+03  0.17393116990E+03  0.41800000000E+01 0. -1.
         -5    1    4    4    0  501  0.63629435769E+02  0.68249284934E+00 -0.63291117258E+01  0.64083546624E+02  0.41800000000E+01 0. -1.
</event>
<event>
11    1  0.6930157E-009  0.1486433E+03  0.7561462E-02  0.1098273E+00
         22   -1    0    0    0    0  0.00000000000E+00  0.00000000000E+00  0.10051617886E+03  0.10051617886E+03  0.00000000000E+00 0. -1.
         22   -1    0    0    0    0 -0.00000000000E+00 -0.00000000000E+00 -0.11346847314E+04  0.11346847314E+04  0.00000000000E+00 0. -1.
         24    2    1    2    0    0 -0.18725798270E+02 -0.74488156116E+02 -0.89809827356E+03  0.90484932666E+03  0.79200088766E+02 0.  0.
         25    2    1    2    0    0  0.54581914148E+02 -0.10874134457E+02 -0.15890512465E+03  0.20975136741E+03  0.12508942936E+03 0.  0.
        -24    2    1    2    0    0 -0.35856115878E+02  0.85362290573E+02  0.22834845694E+02  0.12060021617E+03  0.73828180688E+02 0.  0.
        -11    1    3    3    0    0  0.16631999946E+02 -0.10166933137E+02 -0.51345692777E+02  0.54921490497E+02  0.00000000000E+00 0.  1.
         12    1    3    3    0    0 -0.35357798216E+02 -0.64321222979E+02 -0.84675258078E+03  0.84992783616E+03  0.00000000000E+00 0. -1.
         13    1    5    5    0    0 -0.29888881606E+02  0.66173600479E+02  0.49008537679E+02  0.87602097061E+02  0.00000000000E+00 0. -1.
        -14    1    5    5    0    0 -0.59672342722E+01  0.19188690095E+02 -0.26173691985E+02  0.32998119106E+02  0.00000000000E+00 0.  1.
          5    1    4    4  501    0  0.77752741665E+02 -0.23990690623E+02 -0.16324864886E+03  0.18245173561E+03  0.41800000000E+01 0.  1.
         -5    1    4    4    0  501 -0.23170827517E+02  0.13116556166E+02  0.43435242156E+01  0.27299631794E+02  0.41800000000E+01 0.  1.
</event>
<event>
11    1  0.6930157E-009  0.1364089E+03  0.7561462E-02  0.1111636E+00
         22   -1    0    0    0    0  0.00000000000E+00  0.00000000000E+00  0.33719601288E+04  0.33719601288E+04  0.00000000000E+00 0.  1.
         22   -1    0    0    0    0 -0.00000000000E+00 -0.00000000000E+00 -0.29768147669E+03  0.29768147669E+03  0.00000000000E+00 0.  1.
         24    2    1    2    0    0 -0.34036054312E+02 -0.12095966723E+02 -0.28679400592E+03  0.30010805934E+03  0.80680109372E+02 0.  0.
         25    2    1    2    0    0 -0.78575323124E+01  0.53084719222E+02  0.16397919974E+04  0.16454315437E+04  0.12508973624E+03 0.  0.
        -24    2    1    2    0    0  0.41893586624E+02 -0.40988752498E+02  0.17212806606E+04  0.17241020024E+04  0.79280840438E+02 0.  0.
        -11    1    3    3    0    0  0.14983562457E+01 -0.41950442819E+02 -0.13408306874E+03  0.14050037028E+03  0.00000000000E+00 0.  1.
         12    1    3    3    0    0 -0.35534410557E+02  0.29854476095E+02 -0.15271093717E+03  0.15960768907E+03  0.00000000000E+00 0. -1.
         13    1    5    5    0    0 -0.19827612798E+01 -0.28730707842E+02  0.19246283277E+03  0.19460556753E+03  0.00000000000E+00 0. -1.
        -14    1    5    5    0    0  0.43876347904E+02 -0.12258044656E+02  0.15288178278E+04  0.15294964349E+04  0.00000000000E+00 0.  1.
          5    1    4    4  501    0  0.37410999046E+01 -0.40911477350E+02  0.51026922964E+03  0.51193740235E+03  0.41800000000E+01 0. -1.
         -5    1    4    4    0  501 -0.11598632217E+02  0.93996196572E+02  0.11295227677E+04  0.11334941414E+04  0.41800000000E+01 0. -1.
</event>
<event>
11    1  0.6930157E-009  0.1773251E+03  0.7561462E-02  0.1071827E+00
         22   -1    0    0    0    0  0.00000000000E+00  0.00000000000E+00  0.89546214768E+03  0.89546214768E+03  0.00000000000E+00 0.  1.
         22   -1    0    0    0    0 -0.00000000000E+00 -0.00000000000E+00 -0.44819978599E+03  0.44819978599E+03  0.00000000000E+00 0.  1.
        -24    2    1    2    0    0 -0.87120948012E+02 -0.74736881182E+01 -0.25961509276E+03  0.28511261415E+03  0.79014497158E+02 0.  0.
         25    2    1    2    0    0 -0.31134177062E+02 -0.43687926033E+02 -0.14173762137E+03  0.19650637404E+03  0.12508888786E+03 0.  0.
         24    2    1    2    0    0  0.11825512507E+03  0.51161614151E+02  0.84861507581E+03  0.86204294547E+03  0.79804182685E+02 0.  0.
        -11    1    5    5    0    0  0.28021373322E+02  0.52582375739E+02  0.40308849890E+03  0.40746833196E+03  0.00000000000E+00 0.  1.
         12    1    5    5    0    0  0.90233751752E+02 -0.14207615882E+01  0.44552657691E+03  0.45457461351E+03  0.00000000000E+00 0. -1.
         13    1    3    3    0    0 -0.32365183505E+02 -0.33973583330E+02 -0.58466330731E+02  0.74966801297E+02  0.00000000000E+00 0. -1.
        -14    1    3    3    0    0 -0.54755764507E+02  0.26499895212E+02 -0.20114876203E+03  0.21014581285E+03  0.00000000000E+00 0.  1.
          5    1    4    4  501    0  0.46392364073E+02 -0.86960601626E+00 -0.38640051485E+02  0.60527131418E+02  0.41800000000E+01 0. -1.
         -5    1    4    4    0  501 -0.77526541135E+02 -0.42818320017E+02 -0.10309756988E+03  0.13597924262E+03  0.41800000000E+01 0. -1.
</event>
<event>
11    1  0.6930157E-009  0.1254745E+03  0.7561462E-02  0.1124958E+00
         22   -1    0    0    0    0  0.00000000000E+00  0.00000000000E+00  0.93926789067E+03  0.93926789067E+03  0.00000000000E+00 0. -1.
         22   -1    0    0    0    0 -0.00000000000E+00 -0.00000000000E+00 -0.43215311446E+03  0.43215311446E+03  0.00000000000E+00 0.  1.
        -24    2    1    2    0    0  0.14046055052E+02 -0.10434649215E+02 -0.41351313084E+03  0.42145564763E+03  0.79533514823E+02 0.  0.
         25    2    1    2    0    0 -0.12900006156E+02  0.18116203145E+02  0.32957959904E+03  0.35322006444E+03  0.12508834816E+03 0.  0.
         24    2    1    2    0    0 -0.11460488963E+01 -0.76815539304E+01  0.59104830801E+03  0.59674529307E+03  0.81893361766E+02 0.  0.
        -11    1    5    5    0    0 -0.36504653552E+02 -0.16938160866E+02  0.20105131814E+03  0.20503932196E+03  0.00000000000E+00 0.  1.
         12    1    5    5    0    0  0.35358604655E+02  0.92566069352E+01  0.38999698987E+03  0.39170597111E+03  0.00000000000E+00 0. -1.
         11    1    3    3    0    0 -0.29811292827E+02  0.42920939615E+01 -0.23993255514E+03  0.24181556249E+03  0.00000000000E+00 0. -1.
        -12    1    3    3    0    0  0.43857347879E+02 -0.14726743177E+02 -0.17358057570E+03  0.17964008514E+03  0.00000000000E+00 0.  1.
          5    1    4    4  501    0 -0.45383995095E+02 -0.56910695759E+01  0.40249136641E+02  0.61070129229E+02  0.41800000000E+01 0. -1.
         -5    1    4    4    0  501  0.32483988940E+02  0.23807272721E+02  0.28933046239E+03  0.29214993521E+03  0.41800000000E+01 0. -1.
</event>
<event>
11    1  0.6930157E-009  0.1940415E+03  0.7561462E-02  0.1058819E+00
         22   -1    0    0    0    0  0.00000000000E+00  0.00000000000E+00  0.26673438381E+04  0.26673438381E+04  0.00000000000E+00 0. -1.
         22   -1    0    0    0    0 -0.00000000000E+00 -0.00000000000E+00 -0.49653375159E+03  0.49653375159E+03  0.00000000000E+00 0.  1.
         24    2    1    2    0    0 -0.59658276175E+02 -0.12655787370E+03 -0.34489004872E+03  0.38061411853E+03  0.79636400027E+02 0.  0.
         25    2    1    2    0    0  0.77700537087E+02  0.18065149433E+03 -0.30653666007E+02  0.23507243244E+03  0.12508823041E+03 0.  0.
        -24    2    1    2    0    0 -0.18042260911E+02 -0.54093620634E+02  0.25463538012E+04  0.25481910387E+04  0.78155266686E+02 0.  0.
        -11    1    3    3    0    0 -0.36299138600E+02 -0.41184338982E+02 -0.22494279661E+03  0.23154489627E+03  0.00000000000E+00 0.  1.
         12    1    3    3    0    0 -0.23359137575E+02 -0.85373534716E+02 -0.11994725211E+03  0.14906922226E+03  0.00000000000E+00 0. -1.
         11    1    5    5    0    0 -0.67131706797E+01 -0.62943769632E+02  0.11348665296E+04  0.11366305577E+04  0.00000000000E+00 0. -1.
        -12    1    5    5    0    0 -0.11329090232E+02  0.88501489982E+01  0.14114872716E+04  0.14115604810E+04  0.00000000000E+00 0.  1.
          5    1    4    4  501    0 -0.10377027100E+02  0.13168425787E+03 -0.19691601758E+02  0.13361758134E+03  0.41800000000E+01 0.  1.
         -5    1    4    4    0  501  0.88077564187E+02  0.48967236458E+02 -0.10962064248E+02  0.10145485110E+03  0.41800000000E+01 0.  1.
</event>
<event>
11    1  0.6930157E-009  0.1364683E+03  0.7561462E-02  0.1111567E+00
         22   -1    0    0    0    0  0.00000000000E+00  0.00000000000E+00  0.24251063466E+03  0.24251063466E+03  0.00000000000E+00 0.  1.
         22   -1    0    0    0    0 -0.00000000000E+00 -0.00000000000E+00 -0.24246458506E+03  0.24246458506E+03  0.00000000000E+00 0. -1.
         24    2    1    2    0    0  0.54417909225E+02 -0.23625300217E+02 -0.11134237775E+03  0.14895181666E+03  0.79183678540E+02 0.  0.
         25    2    1    2    0    0 -0.47344438874E+02 -0.29402901951E+01 -0.58667681560E+02  0.14607192295E+03  0.12507984896E+03 0.  0.
        -24    2    1    2    0    0 -0.70734703513E+01  0.26565590412E+02  0.17005610891E+03  0.18995148011E+03  0.80041989256E+02 0.  0.
        -11    1    3    3    0    0  0.83157912201E+01 -0.33734650733E+02 -0.84594430054E+01  0.35759491323E+02  0.00000000000E+00 0.  1.
         12    1    3    3    0    0  0.46102118005E+02  0.10109350516E+02 -0.10288293475E+03  0.11319232534E+03  0.00000000000E+00 0. -1.
         13    1    5    5    0    0 -0.11121581492E+02 -0.20303094550E+02  0.14216974608E+02  0.27166663214E+02  0.00000000000E+00 0. -1.
        -14    1    5    5    0    0  0.40481111407E+01  0.46868684962E+02  0.15583913430E+03  0.16278481690E+03  0.00000000000E+00 0.  1.
          5    1    4    4  501    0 -0.33682311135E+02 -0.46622967371E+02 -0.77331785487E+02  0.96466971635E+02  0.41800000000E+01 0.  1.
         -5    1    4    4    0  501 -0.13662127739E+02  0.43682677176E+02  0.18664103927E+02  0.49604951316E+02  0.41800000000E+01 0.  1.
</event>
<event>
11    1  0.6930157E-009  0.1458007E+03  0.7561462E-02  0.1101249E+00
         22   -1    0    0    0    0  0.00000000000E+00  0.00000000000E+00  0.22550711057E+03  0.22550711057E+03  0.00000000000E+00 0.  1.
         22   -1    0    0    0    0 -0.00000000000E+00 -0.00000000000E+00 -0.11668822150E+04  0.11668822150E+04  0.00000000000E+00 0.  1.
         24    2    1    2    0    0  0.25122702287E+02  0.41798856393E+02 -0.65294909273E+03  0.65981005319E+03  0.81415563728E+02 0.  0.
         25    2    1    2    0    0 -0.62564486870E+02 -0.10506526727E+03 -0.48055398464E+03  0.51140253245E+03  0.12508953850E+03 0.  0.
        -24    2    1    2    0    0  0.37441784583E+02  0.63266410876E+02  0.19212797293E+03  0.22117673995E+03  0.81249408212E+02 0.  0.
        -11    1    3    3    0    0  0.33228204275E+02  0.39631189391E+02 -0.64801687373E+03  0.65007739029E+03  0.00000000000E+00 0.  1.
         12    1    3    3    0    0 -0.81055019880E+01  0.21676670024E+01 -0.49322190075E+01  0.97326628961E+01  0.00000000000E+00 0. -1.
         13    1    5    5    0    0  0.55636747032E+00 -0.11803872482E+02  0.20431813838E+00  0.11818743428E+02  0.00000000000E+00 0. -1.
        -14    1    5    5    0    0  0.36885417113E+02  0.75070283357E+02  0.19192365479E+03  0.20935799652E+03  0.00000000000E+00 0.  1.
          5    1    4    4  501    0 -0.31179202214E+02 -0.10308338490E+03 -0.46251896992E+03  0.47491009342E+03  0.41800000000E+01 0. -1.
         -5    1    4    4    0  501 -0.31385284656E+02 -0.19818823708E+01 -0.18035014715E+02  0.36492439031E+02  0.41800000000E+01 0. -1.
</event>
<event>
11    1  0.6930157E-009  0.2572884E+03  0.7561462E-02  0.1020087E+00
         22   -1    0    0    0    0  0.00000000000E+00  0.00000000000E+00  0.48673386030E+03  0.48673386030E+03  0.00000000000E+00 0. -1.
         22   -1    0    0    0    0 -0.00000000000E+00 -0.00000000000E+00 -0.87035629461E+03  0.87035629461E+03  0.00000000000E+00 0. -1.
         24    2    1    2    0    0  0.43597994026E+02  0.17507554805E+02 -0.68976272823E+03  0.69594019915E+03  0.79704704872E+02 0.  0.
         25    2    1    2    0    0  0.15473869043E+03 -0.13593561064E+03 -0.32914912264E+02  0.24321375018E+03  0.12508790619E+03 0.  0.
        -24    2    1    2    0    0 -0.19833668445E+03  0.11842805583E+03  0.33905520619E+03  0.41793620556E+03  0.79684341452E+02 0.  0.
        -13    1    3    3    0    0  0.17161879041E+02  0.77397801329E+01 -0.28989648609E+02  0.34566371160E+02  0.00000000000E+00 0.  1.
         14    1    3    3    0    0  0.26436114985E+02  0.97677746725E+01 -0.66077307962E+03  0.66137382799E+03  0.00000000000E+00 0. -1.
         13    1    5    5    0    0 -0.20217843535E+03  0.12021322131E+03  0.34015354833E+03  0.41355988048E+03  0.00000000000E+00 0. -1.
        -14    1    5    5    0    0  0.38417509018E+01 -0.17851654763E+01 -0.10983421475E+01  0.43763250842E+01  0.00000000000E+00 0.  1.
          5    1    4    4  501    0  0.10452184818E+03 -0.98429185066E+01 -0.10553598397E+02  0.10559616769E+03  0.41800000000E+01 0.  1.
         -5    1    4    4    0  501  0.50216842244E+02 -0.12609269213E+03 -0.22361313867E+02  0.13761758249E+03  0.41800000000E+01 0.  1.
</event>
<event>
11    1  0.6930157E-009  0.1409264E+03  0.7561462E-02  0.1106528E+00
         22   -1    0    0    0    0  0.00000000000E+00  0.00000000000E+00  0.40177423142E+03  0.40177423142E+03  0.00000000000E+00 0.  1.
         22   -1    0    0    0    0 -0.00000000000E+00 -0.00000000000E+00 -0.28003613707E+03  0.28003613707E+03  0.00000000000E+00 0.  1.
         24    2    1    2    0    0  0.49059746407E+02  0.21507817644E+02 -0.22789701584E+03  0.24776674943E+03  0.81128708589E+02 0.  0.
         25    2    1    2    0    0  0.36289460241E+02 -0.37425477455E+02  0.21829069022E+03  0.25693660891E+03  0.12509198325E+03 0.  0.
        -24    2    1    2    0    0 -0.85349206648E+02  0.15917659811E+02  0.13134441997E+03  0.17710701015E+03  0.81102881677E+02 0.  0.
        -13    1    3    3    0    0  0.49136984288E+02  0.25532668562E+02 -0.23399605633E+03  0.24045896691E+03  0.00000000000E+00 0.  1.
         14    1    3    3    0    0 -0.77237881237E-01 -0.40248509190E+01  0.60990404852E+01  0.73077825262E+01  0.00000000000E+00 0. -1.
         11    1    5    5    0    0 -0.56336079953E+02  0.30892346517E+02  0.30525109573E+02  0.71132786338E+02  0.00000000000E+00 0. -1.
        -12    1    5    5    0    0 -0.29013126695E+02 -0.14974686706E+02  0.10081931040E+03  0.10597422381E+03  0.00000000000E+00 0.  1.
          5    1    4    4  501    0  0.48922172416E+02 -0.71517457221E+02  0.19534574165E+03  0.21374179943E+03  0.41800000000E+01 0. -1.
         -5    1    4    4    0  501 -0.12632712174E+02  0.34091979766E+02  0.22944948564E+02  0.43194809478E+02  0.41800000000E+01 0. -1.
</event>
<event>
11    1  0.6930157E-009  0.1807294E+03  0.7561462E-02  0.1069054E+00
         22   -1    0    0    0    0  0.00000000000E+00  0.00000000000E+00  0.12819038539E+03  0.12819038539E+03  0.00000000000E+00 0. -1.
         22   -1    0    0    0    0 -0.00000000000E+00 -0.00000000000E+00 -0.11569616065E+04  0.11569616065E+04  0.00000000000E+00 0.  1.
         24    2    1    2    0    0  0.55394066285E+02 -0.11471983587E+03 -0.88996850825E+03  0.90264513010E+03  0.80592443124E+02 0.  0.
         25    2    1    2    0    0  0.14299401601E+02  0.18110345489E+03 -0.13701916257E+03  0.25966586627E+03  0.12509667036E+03 0.  0.
        -24    2    1    2    0    0 -0.69693467886E+02 -0.66383619019E+02 -0.17835502447E+01  0.12284099549E+03  0.76307042803E+02 0.  0.
        -11    1    3    3    0    0  0.27966535649E+02 -0.10117866354E+03 -0.81414183404E+03  0.82088134040E+03  0.00000000000E+00 0.  1.
         12    1    3    3    0    0  0.27427530636E+02 -0.13541172330E+02 -0.75826674208E+02  0.81763789701E+02  0.00000000000E+00 0. -1.
         13    1    5    5    0    0 -0.10680899585E+02 -0.58901028765E+02  0.13625127652E+02  0.61392645399E+02  0.00000000000E+00 0. -1.
        -14    1    5    5    0    0 -0.59012568301E+02 -0.74825902541E+01 -0.15408677897E+02  0.61448350091E+02  0.00000000000E+00 0.  1.
          5    1    4    4  501    0  0.35854375334E+02  0.18276582508E+03 -0.14517725180E+03  0.23618380530E+03  0.41800000000E+01 0. -1.
         -5    1    4    4    0  501 -0.21554973733E+02 -0.16623701940E+01  0.81580892281E+01  0.23482060965E+02  0.41800000000E+01 0. -1.
</event>
<event>
11    1  0.6930157E-009  0.1820102E+03  0.7561462E-02  0.1068028E+00
         22   -1    0    0    0    0  0.00000000000E+00  0.00000000000E+00  0.13713239985E+04  0.13713239985E+04  0.00000000000E+00 0.  1.
         22   -1    0    0    0    0 -0.00000000000E+00 -0.00000000000E+00 -0.35575941768E+03  0.35575941768E+03  0.00000000000E+00 0.  1.
        -24    2    1    2    0    0  0.61192262200E+02 -0.12363974104E+03 -0.24738146196E+03  0.29542300132E+03  0.83939760972E+02 0.  0.
         25    2    1    2    0    0 -0.20138683329E+02  0.11334393128E+03  0.43413933528E+01  0.17005621805E+03  0.12509139169E+03 0.  0.
         24    2    1    2    0    0 -0.41053578870E+02  0.10295809757E+02  0.12586046495E+04  0.12616041968E+04  0.75947915080E+02 0.  0.
        -13    1    5    5    0    0 -0.36779065178E+02 -0.46272991888E+01  0.12102789163E+04  0.12108464670E+04  0.00000000000E+00 0.  1.
         14    1    5    5    0    0 -0.42745136919E+01  0.14923108946E+02  0.48325733201E+02  0.50757729828E+02  0.00000000000E+00 0. -1.
         13    1    3    3    0    0  0.34531156841E+02 -0.18574456424E+02 -0.21117895850E+02  0.44535118158E+02  0.00000000000E+00 0. -1.
        -14    1    3    3    0    0  0.26661105359E+02 -0.10506528461E+03 -0.22626356611E+03  0.25088788317E+03  0.00000000000E+00 0.  1.
          5    1    4    4  501    0 -0.13752745766E+02  0.67509271249E+02 -0.59477585463E+02  0.91113639447E+02  0.41800000000E+01 0.  1.
         -5    1    4    4    0  501 -0.63859375630E+01  0.45834660031E+02  0.63818978816E+02  0.78942578599E+02  0.41800000000E+01 0.  1.
</event>
<event>
11    1  0.6930157E-009  0.2256594E+03  0.7561462E-02  0.1037729E+00
         22   -1    0    0    0    0  0.00000000000E+00  0.00000000000E+00  0.10690336677E+04  0.10690336677E+04  0.00000000000E+00 0.  1.
         22   -1    0    0    0    0 -0.00000000000E+00 -0.00000000000E+00 -0.41846220281E+03  0.41846220281E+03  0.00000000000E+00 0. -1.
         24    2    1    2    0    0  0.26642923167E+02  0.10321984178E+03 -0.29006650620E+03  0.31930616792E+03  0.80334735696E+02 0.  0.
         25    2    1    2    0    0 -0.65197062403E+02 -0.27595525353E+03  0.13271682380E+03  0.33713981796E+03  0.12509013805E+03 0.  0.
        -24    2    1    2    0    0  0.38554139236E+02  0.17273541176E+03  0.80792114732E+03  0.83104988467E+03  0.81138069871E+02 0.  0.
        -11    1    3    3    0    0 -0.20977674906E+02  0.45935209995E+01 -0.28092564818E+02  0.35360365916E+02  0.00000000000E+00 0.  1.
         12    1    3    3    0    0  0.47620598073E+02  0.98626320777E+02 -0.26197394138E+03  0.28394580200E+03  0.00000000000E+00 0. -1.
         11    1    5    5    0    0  0.62350527929E+02  0.13005697947E+03  0.55380081870E+03  0.57227419393E+03  0.00000000000E+00 0. -1.
        -12    1    5    5    0    0 -0.23796388693E+02  0.42678432285E+02  0.25412032862E+03  0.25877569074E+03  0.00000000000E+00 0.  1.
          5    1    4    4  501    0 -0.15895453884E+02 -0.39719628499E+02  0.78902090451E+02  0.89851692359E+02  0.41800000000E+01 0.  1.
         -5    1    4    4    0  501 -0.49301608519E+02 -0.23623562503E+03  0.53814733345E+02  0.24728812560E+03  0.41800000000E+01 0.  1.
</event>
<event>
11    1  0.6930157E-009  0.1819147E+03  0.7561462E-02  0.1068104E+00
         22   -1    0    0    0    0  0.00000000000E+00  0.00000000000E+00  0.13741112097E+04  0.13741112097E+04  0.00000000000E+00 0.  1.
         22   -1    0    0    0    0 -0.00000000000E+00 -0.00000000000E+00 -0.19446115107E+03  0.19446115107E+03  0.00000000000E+00 0. -1.
         24    2    1    2    0    0  0.51737162419E+02 -0.10343687094E+03 -0.12701088760E+03  0.18858831496E+03  0.77832298737E+02 0.  0.
         25    2    1    2    0    0 -0.86196994306E+02 -0.38727973953E+02  0.17078123146E+03  0.23182608952E+03  0.12508928400E+03 0.  0.
        -24    2    1    2    0    0  0.34459831888E+02  0.14216484489E+03  0.11358797147E+04  0.11481579563E+04  0.81520813243E+02 0.  0.
        -11    1    3    3    0    0  0.12389685860E+02 -0.56394698575E+02 -0.13084596467E+02  0.59203657048E+02  0.00000000000E+00 0.  1.
         12    1    3    3    0    0  0.39347476559E+02 -0.47042172361E+02 -0.11392629114E+03  0.12938465792E+03  0.00000000000E+00 0. -1.
         13    1    5    5    0    0 -0.11061420156E+02  0.57196677923E+02  0.66294163766E+03  0.66549637860E+03  0.00000000000E+00 0. -1.
        -14    1    5    5    0    0  0.45521252043E+02  0.84968166965E+02  0.47293807709E+03  0.48266157765E+03  0.00000000000E+00 0.  1.
          5    1    4    4  501    0 -0.92984351638E+02 -0.50081770312E+02  0.62775219399E+02  0.12293280253E+03  0.41800000000E+01 0. -1.
         -5    1    4    4    0  501  0.67873573314E+01  0.11353796359E+02  0.10800601206E+03  0.10889328700E+03  0.41800000000E+01 0. -1.
</event>
<event>
11    1  0.6930157E-009  0.1415237E+03  0.7561462E-02  0.1105869E+00
         22   -1    0    0    0    0  0.00000000000E+00  0.00000000000E+00  0.32511039287E+03  0.32511039287E+03  0.00000000000E+00 0. -1.
         22   -1    0    0    0    0 -0.00000000000E+00 -0.00000000000E+00 -0.14452876869E+04  0.14452876869E+04  0.00000000000E+00 0.  1.
        -24    2    1    2    0    0  0.48747376559E+01  0.66414998470E+02 -0.13757844652E+04  0.13797053212E+04  0.79807039471E+02 0.  0.
         25    2    1    2    0    0  0.20860816058E+02 -0.52427685215E+02  0.18338682739E+02  0.13843889046E+03  0.12508070708E+03 0.  0.
         24    2    1    2    0    0 -0.25735553714E+02 -0.13987313255E+02  0.23726848842E+03  0.25225386814E+03  0.80484251490E+02 0.  0.
        -11    1    5    5    0    0 -0.27857710907E+02  0.30141617118E+02  0.10176850747E+03  0.10973330512E+03  0.00000000000E+00 0.  1.
         12    1    5    5    0    0  0.21221571924E+01 -0.44128930373E+02  0.13549998094E+03  0.14252056302E+03  0.00000000000E+00 0. -1.
         11    1    3    3    0    0 -0.24480303488E+02  0.35858100031E+01 -0.15587976333E+03  0.15783106129E+03  0.00000000000E+00 0. -1.
        -12    1    3    3    0    0  0.29355041144E+02  0.62829188467E+02 -0.12199047019E+04  0.12218742599E+04  0.00000000000E+00 0.  1.
          5    1    4    4  501    0 -0.37216879840E+02  0.19835698693E+02 -0.51983753819E+01  0.42697149721E+02  0.41800000000E+01 0.  1.
         -5    1    4    4    0  501  0.58077695898E+02 -0.72263383908E+02  0.23537058121E+02  0.95741740739E+02  0.41800000000E+01 0.  1.
</event>
<event>
11    1  0.6930157E-009  0.1591389E+03  0.7561462E-02  0.1087890E+00
         22   -1    0    0    0    0  0.00000000000E+00  0.00000000000E+00  0.88243202104E+03  0.88243202104E+03  0.00000000000E+00 0. -1.
         22   -1    0    0    0    0 -0.00000000000E+00 -0.00000000000E+00 -0.43773175460E+03  0.43773175460E+03  0.00000000000E+00 0. -1.
        -24    2    1    2    0    0 -0.97306999705E+02  0.83059263984E+01 -0.38961587086E+03  0.40948743905E+03  0.79635389842E+02 0.  0.
         25    2    1    2    0    0  0.11353386837E+03  0.48471129881E+01  0.16510719720E+03  0.23626623082E+03  0.12509161238E+03 0.  0.
         24    2    1    2    0    0 -0.16226868661E+02 -0.13153039387E+02  0.66920894009E+03  0.67441010577E+03  0.80944867368E+02 0.  0.
        -11    1    5    5    0    0 -0.81013640152E+01 -0.37301382243E+02  0.15721181651E+03  0.16177941916E+03  0.00000000000E+00 0.  1.
         12    1    5    5    0    0 -0.81255046454E+01  0.24148342857E+02  0.51199712358E+03  0.51263068660E+03  0.00000000000E+00 0. -1.
         11    1    3    3    0    0 -0.77793940267E+02 -0.84640197255E+01 -0.36694186264E+03  0.37519310672E+03  0.00000000000E+00 0. -1.
        -12    1    3    3    0    0 -0.19513059438E+02  0.16769946124E+02 -0.22674008213E+02  0.34294332331E+02  0.00000000000E+00 0.  1.
          5    1    4    4  501    0  0.41058738513E+02  0.63321292474E+02  0.68225281006E+02  0.10182125248E+03  0.41800000000E+01 0. -1.
         -5    1    4    4    0  501  0.72475129852E+02 -0.58474179486E+02  0.96881916198E+02  0.13444497834E+03  0.41800000000E+01 0. -1.
</event>
<event>
11    1  0.6930157E-009  0.1567541E+03  0.7561462E-02  0.1090171E+00
         22   -1    0    0    0    0  0.00000000000E+00  0.00000000000E+00  0.55148387772E+03  0.55148387772E+03  0.00000000000E+00 0. -1.
         22   -1    0    0    0    0 -0.00000000000E+00 -0.00000000000E+00 -0.15263753888E+04  0.15263753888E+04  0.00000000000E+00 0.  1.
        -24    2    1    2    0    0  0.40786680123E+02  0.36743542675E+02 -0.13873228999E+04  0.13908044332E+04  0.81599641716E+02 0.  0.
         25    2    1    2    0    0 -0.12993370976E+03 -0.10948063139E+02 -0.66691522764E+02  0.19261460222E+03  0.12509994710E+03 0.  0.
         24    2    1    2    0    0  0.89147029632E+02 -0.25795479536E+02  0.47912291163E+03  0.49444023108E+03  0.79371140866E+02 0.  0.
        -11    1    5    5    0    0  0.74050504312E+02  0.15529470928E+02  0.25275830616E+03  0.26383972974E+03  0.00000000000E+00 0.  1.
         12    1    5    5    0    0  0.15096525320E+02 -0.41324950464E+02  0.22636460548E+03  0.23060050134E+03  0.00000000000E+00 0. -1.
         11    1    3    3    0    0 -0.19518129501E+02  0.32240712399E+02 -0.49168964318E+03  0.49313195610E+03  0.00000000000E+00 0. -1.
        -12    1    3    3    0    0  0.60304809625E+02  0.45028302757E+01 -0.89563325673E+03  0.89767247708E+03  0.00000000000E+00 0.  1.
          5    1    4    4  501    0 -0.14170485869E+03  0.14006405599E+02 -0.78106511281E+02  0.16246398332E+03  0.41800000000E+01 0.  1.
         -5    1    4    4    0  501  0.11771148931E+02 -0.24954468738E+02  0.11414988517E+02  0.30150618899E+02  0.41800000000E+01 0.  1.
</event>
<event>
11    1  0.6930157E-009  0.2065930E+03  0.7561462E-02  0.1049957E+00
         22   -1    0    0    0    0  0.00000000000E+00  0.00000000000E+00  0.56116379545E+02  0.56116379545E+02  0.00000000000E+00 0.  1.
         22   -1    0    0    0    0 -0.00000000000E+00 -0.00000000000E+00 -0.12805722145E+04  0.12805722145E+04  0.00000000000E+00 0. -1.
        -24    2    1    2    0    0  0.26978556879E+02 -0.51805599913E+02 -0.43958826397E+03  0.45084472686E+03  0.81310904575E+02 0.  0.
         25    2    1    2    0    0  0.94285750321E+02 -0.85308771512E+02 -0.54564928520E+03  0.57406269621E+03  0.12508975789E+03 0.  0.
         24    2    1    2    0    0 -0.12126430720E+03  0.13711437142E+03 -0.23921828582E+03  0.31178117101E+03  0.80478116746E+02 0.  0.
        -11    1    5    5    0    0 -0.10611647793E+03  0.90539882904E+02 -0.12420906238E+03  0.18677812630E+03  0.00000000000E+00 0.  1.
         12    1    5    5    0    0 -0.15147829269E+02  0.46574488521E+02 -0.11500922344E+03  0.12500304472E+03  0.00000000000E+00 0. -1.
         13    1    3    3    0    0  0.34519809363E+02 -0.48644948486E+02 -0.43856658617E+03  0.44260433658E+03  0.00000000000E+00 0. -1.
        -14    1    3    3    0    0 -0.75412524835E+01 -0.31606514273E+01 -0.10216777989E+01  0.82403902814E+01  0.00000000000E+00 0.  1.
          5    1    4    4  501    0  0.99075586507E+02 -0.12276569965E+02 -0.24472658654E+03  0.26433929063E+03  0.41800000000E+01 0. -1.
         -5    1    4    4    0  501 -0.47898361860E+01 -0.73032201547E+02 -0.30092269866E+03  0.30972340558E+03  0.41800000000E+01 0. -1.
</event>
<event>
11    1  0.6930157E-009  0.1488687E+03  0.7561462E-02  0.1098040E+00
         22   -1    0    0    0    0  0.00000000000E+00  0.00000000000E+00  0.84395217832E+03  0.84395217832E+03  0.00000000000E+00 0. -1.
         22   -1    0    0    0    0 -0.00000000000E+00 -0.00000000000E+00 -0.11494449273E+04  0.11494449273E+04  0.00000000000E+00 0.  1.
        -24    2    1    2    0    0  0.43509918864E+02 -0.67995931454E+02 -0.11239830929E+04  0.11300783932E+04  0.84986010758E+02 0.  0.
         25    2    1    2    0    0  0.57729049472E-01  0.98222171555E+02  0.34197635135E+03  0.37714435430E+03  0.12506974367E+03 0.  0.
         24    2    1    2    0    0 -0.43567647913E+02 -0.30226240102E+02  0.47651399261E+03  0.48617435803E+03  0.80549088896E+02 0.  0.
        -11    1    5    5    0    0 -0.52539093182E+02 -0.18748631742E+02  0.16223200374E+03  0.17155491991E+03  0.00000000000E+00 0.  1.
         12    1    5    5    0    0  0.89714452693E+01 -0.11477608360E+02  0.31428198886E+03  0.31461943813E+03  0.00000000000E+00 0. -1.
         13    1    3    3    0    0  0.28806859263E+02  0.13735047111E+02 -0.42088012853E+03  0.42208834294E+03  0.00000000000E+00 0. -1.
        -14    1    3    3    0    0  0.14703059601E+02 -0.81730978564E+02 -0.70310296437E+03  0.70799005030E+03  0.00000000000E+00 0.  1.
          5    1    4    4  501    0 -0.37555160984E+01  0.45600765264E+01 -0.10298481136E+02  0.12586870652E+02  0.41800000000E+01 0.  1.
         -5    1    4    4    0  501  0.38132451478E+01  0.93662095029E+02  0.35227483248E+03  0.36455748365E+03  0.41800000000E+01 0.  1.
</event>
<event>
11    1  0.6930157E-009  0.1503194E+03  0.7561462E-02  0.1096553E+00
         22   -1    0    0    0    0  0.00000000000E+00  0.00000000000E+00  0.62837256849E+03  0.62837256849E+03  0.00000000000E+00 0. -1.
         22   -1    0    0    0    0 -0.00000000000E+00 -0.00000000000E+00 -0.30849062856E+03  0.30849062856E+03  0.00000000000E+00 0.  1.
         24    2    1    2    0    0 -0.71244697292E+01 -0.11387437501E+01 -0.23935874989E+03  0.25264374883E+03  0.80524517182E+02 0.  0.
         25    2    1    2    0    0 -0.76362305951E+02  0.11094149693E+02  0.40384259832E+02  0.15242116460E+03  0.12508813312E+03 0.  0.
        -24    2    1    2    0    0  0.83486775680E+02 -0.99554059428E+01  0.51885642998E+03  0.53179828363E+03  0.80797696215E+02 0.  0.
        -11    1    3    3    0    0  0.26100396665E+02 -0.27738614237E+02 -0.10424098592E+03  0.11098128028E+03  0.00000000000E+00 0.  1.
         12    1    3    3    0    0 -0.33224866394E+02  0.26599870486E+02 -0.13511776396E+03  0.14166246855E+03  0.00000000000E+00 0. -1.
         11    1    5    5    0    0  0.88981532539E+02 -0.10077444055E+00  0.50929225958E+03  0.51700708792E+03  0.00000000000E+00 0. -1.
        -12    1    5    5    0    0 -0.54947568589E+01 -0.98546315023E+01  0.95641703963E+01  0.14791195704E+02  0.00000000000E+00 0.  1.
          5    1    4    4  501    0  0.23784295142E+02 -0.13002758170E+02  0.41002185486E+02  0.49329666835E+02  0.41800000000E+01 0.  1.
         -5    1    4    4    0  501 -0.10014660109E+03  0.24096907862E+02 -0.61792565453E+00  0.10309149776E+03  0.41800000000E+01 0.  1.
</event>
<event>
11    1  0.6930157E-009  0.1661108E+03  0.7561462E-02  0.1081467E+00
         22   -1    0    0    0    0  0.00000000000E+00  0.00000000000E+00  0.80517134922E+03  0.80517134922E+03  0.00000000000E+00 0.  1.
         22   -1    0    0    0    0 -0.00000000000E+00 -0.00000000000E+00 -0.62539095620E+03  0.62539095620E+03  0.00000000000E+00 0. -1.
         24    2    1    2    0    0  0.10196619647E+03 -0.40355925550E+02 -0.56162758766E+03  0.57792691628E+03  0.80921365483E+02 0.  0.
         25    2    1    2    0    0 -0.97693056913E+02  0.34673485771E+02  0.70946637201E+02  0.17728077138E+03  0.12509541393E+03 0.  0.
        -24    2    1    2    0    0 -0.42731395605E+01  0.56824397787E+01  0.67046134348E+03  0.67535461776E+03  0.80838708445E+02 0.  0.
        -11    1    3    3    0    0  0.38063740475E+02 -0.55673852547E+02 -0.22271053470E+03  0.23269810584E+03  0.00000000000E+00 0.  1.
         12    1    3    3    0    0  0.63902455998E+02  0.15317926996E+02 -0.33891705296E+03  0.34522881044E+03  0.00000000000E+00 0. -1.
         13    1    5    5    0    0  0.23931340433E+02  0.33236147432E+01  0.66886061984E+02  0.71116107582E+02  0.00000000000E+00 0. -1.
        -14    1    5    5    0    0 -0.28204479994E+02  0.23588250355E+01  0.60357528149E+03  0.60423851017E+03  0.00000000000E+00 0.  1.
          5    1    4    4  501    0 -0.49197980859E+02 -0.61510386679E+00 -0.31446482951E+02  0.58542064905E+02  0.41800000000E+01 0.  1.
         -5    1    4    4    0  501 -0.48495076053E+02  0.35288589638E+02  0.10239312015E+03  0.11873870647E+03  0.41800000000E+01 0.  1.
</event>
<event>
11    1  0.6930157E-009  0.1261380E+03  0.7561462E-02  0.1124107E+00
         22   -1    0    0    0    0  0.00000000000E+00  0.00000000000E+00  0.16157522795E+03  0.16157522795E+03  0.00000000000E+00 0. -1.
         22   -1    0    0    0    0 -0.00000000000E+00 -0.00000000000E+00 -0.19191612814E+03  0.19191612814E+03  0.00000000000E+00 0. -1.
         24    2    1    2    0    0 -0.20388586261E+02  0.22447818628E+02 -0.97617990126E+02  0.12952208447E+03  0.79543066064E+02 0.  0.
         25    2    1    2    0    0  0.39480450042E+00 -0.52979393004E+01  0.23631821575E+02  0.12741288181E+03  0.12508938975E+03 0.  0.
        -24    2    1    2    0    0  0.19993781761E+02 -0.17149879327E+02  0.43645268368E+02  0.96556389809E+02  0.82002178580E+02 0.  0.
        -13    1    3    3    0    0 -0.18959371348E+02  0.39831952539E+02 -0.17386797508E+02  0.47416694661E+02  0.00000000000E+00 0.  1.
         14    1    3    3    0    0 -0.14292149133E+01 -0.17384133912E+02 -0.80231192618E+02  0.82105389811E+02  0.00000000000E+00 0. -1.
         13    1    5    5    0    0 -0.17657000246E+02  0.17502465416E+02  0.37536216025E+02  0.45023032626E+02  0.00000000000E+00 0. -1.
        -14    1    5    5    0    0  0.37650782007E+02 -0.34652344744E+02  0.61090523432E+01  0.51533357183E+02  0.00000000000E+00 0.  1.
          5    1    4    4  501    0  0.24896890305E+02 -0.59999697904E+02  0.13522164278E+02  0.66484135116E+02  0.41800000000E+01 0. -1.
         -5    1    4    4    0  501 -0.24502085804E+02  0.54701758604E+02  0.10109657297E+02  0.60928746694E+02  0.41800000000E+01 0. -1.
</event>
<event>
11    1  0.6930157E-009  0.1474785E+03  0.7561462E-02  0.1099483E+00
         22   -1    0    0    0    0  0.00000000000E+00  0.00000000000E+00  0.16503731267E+03  0.16503731267E+03  0.00000000000E+00 0.  1.
         22   -1    0    0    0    0 -0.00000000000E+00 -0.00000000000E+00 -0.24628255333E+04  0.24628255333E+04  0.00000000000E+00 0.  1.
        -24    2    1    2    0    0  0.36166340208E+01 -0.21921454542E+02 -0.20995099545E+04  0.21012239195E+04  0.81891883869E+02 0.  0.
         25    2    1    2    0    0  0.74075646920E+02  0.10670370241E+02 -0.32537197973E+03  0.35653342291E+03  0.12509235865E+03 0.  0.
         24    2    1    2    0    0 -0.77692280941E+02  0.11251084301E+02  0.12709371365E+03  0.17010550350E+03  0.81365796611E+02 0.  0.
        -13    1    5    5    0    0 -0.80759627759E+02 -0.25039818266E+01  0.13235003973E+03  0.15506424609E+03  0.00000000000E+00 0.  1.
         14    1    5    5    0    0  0.30673468181E+01  0.13755066128E+02 -0.52563260790E+01  0.15041257412E+02  0.00000000000E+00 0. -1.
         11    1    3    3    0    0 -0.28913545169E+02  0.46058698688E+01 -0.35378861310E+03  0.35499801392E+03  0.00000000000E+00 0. -1.
        -12    1    3    3    0    0  0.32530179190E+02 -0.26527324411E+02 -0.17457213414E+04  0.17462259056E+04  0.00000000000E+00 0.  1.
          5    1    4    4  501    0 -0.58126929715E+01 -0.45669642484E+02 -0.13111774635E+03  0.13902819661E+03  0.41800000000E+01 0. -1.
         -5    1    4    4    0  501  0.79888339891E+02  0.56340012725E+02 -0.19425423338E+03  0.21750522631E+03  0.41800000000E+01 0. -1.
</event>
<event>
11    1  0.6930157E-009  0.2025628E+03  0.7561462E-02  0.1052726E+00
         22   -1    0    0    0    0  0.00000000000E+00  0.00000000000E+00  0.24561733632E+03  0.24561733632E+03  0.00000000000E+00 0.  1.
         22   -1    0    0    0    0 -0.00000000000E+00 -0.00000000000E+00 -0.11834625698E+04  0.11834625698E+04  0.00000000000E+00 0. -1.
         24    2    1    2    0    0 -0.11916549791E+03  0.98093324942E+02 -0.92432231272E+03  0.94055693678E+03  0.80329927399E+02 0.  0.
         25    2    1    2    0    0  0.12586997336E+03 -0.15240159543E+03 -0.18040391725E+03  0.29540222440E+03  0.12508958526E+03 0.  0.
        -24    2    1    2    0    0 -0.67044754498E+01  0.54308270489E+02  0.16688099652E+03  0.19312074490E+03  0.80324447572E+02 0.  0.
        -13    1    3    3    0    0 -0.10322425634E+03  0.37736145547E+02 -0.64952726232E+03  0.65876014472E+03  0.00000000000E+00 0.  1.
         14    1    3    3    0    0 -0.15941241562E+02  0.60357179394E+02 -0.27479505040E+03  0.28179679206E+03  0.00000000000E+00 0. -1.
         13    1    5    5    0    0 -0.10744029166E+02  0.69404206960E+01 -0.57789050807E+01  0.14035645553E+02  0.00000000000E+00 0. -1.
        -14    1    5    5    0    0  0.40395537167E+01  0.47367849793E+02  0.17265990160E+03  0.17908509935E+03  0.00000000000E+00 0.  1.
          5    1    4    4  501    0  0.18928131893E+02 -0.83369775402E+02 -0.15403404142E+02  0.86968562635E+02  0.41800000000E+01 0. -1.
         -5    1    4    4    0  501  0.10694184146E+03 -0.69031820029E+02 -0.16500051311E+03  0.20843366177E+03  0.41800000000E+01 0. -1.
</event>
<event>
11    1  0.6930157E-009  0.2040387E+03  0.7561462E-02  0.1051704E+00
         22   -1    0    0    0    0  0.00000000000E+00  0.00000000000E+00  0.35939635233E+03  0.35939635233E+03  0.00000000000E+00 0. -1.
         22   -1    0    0    0    0 -0.00000000000E+00 -0.00000000000E+00 -0.83402284603E+03  0.83402284603E+03  0.00000000000E+00 0. -1.
        -24    2    1    2    0    0  0.10522304098E+03  0.29856583427E+02 -0.61346008662E+03  0.62771190734E+03  0.75668069994E+02 0.  0.
         25    2    1    2    0    0 -0.24736155785E+03 -0.65105042264E+02 -0.74855995594E+02  0.29440971677E+03  0.12508898601E+03 0.  0.
         24    2    1    2    0    0  0.14213851687E+03  0.35248458837E+02  0.21368958851E+03  0.27129757425E+03  0.80581149950E+02 0.  0.
        -11    1    5    5    0    0  0.56906846436E+02 -0.22343532130E+02  0.10604843096E+03  0.12240871010E+03  0.00000000000E+00 0.  1.
         12    1    5    5    0    0  0.85231670435E+02  0.57591990967E+02  0.10764115755E+03  0.14888886415E+03  0.00000000000E+00 0. -1.
         13    1    3    3    0    0  0.71507689655E+02  0.55506955224E+02 -0.42979024918E+03  0.43921979697E+03  0.00000000000E+00 0. -1.
        -14    1    3    3    0    0  0.33715351326E+02 -0.25650371797E+02 -0.18366983744E+03  0.18849211038E+03  0.00000000000E+00 0.  1.
          5    1    4    4  501    0 -0.64878037971E+02 -0.74759203754E+02 -0.65938401219E+01  0.99292746384E+02  0.41800000000E+01 0.  1.
         -5    1    4    4    0  501 -0.18248351988E+03  0.96541614903E+01 -0.68262155472E+02  0.19511697038E+03  0.41800000000E+01 0.  1.
</event>
<event>
11    1  0.6930157E-009  0.1272472E+03  0.7561462E-02  0.1122698E+00
         22   -1    0    0    0    0  0.00000000000E+00  0.00000000000E+00  0.15056037689E+03  0.15056037689E+03  0.00000000000E+00 0.  1.
         22   -1    0    0    0    0 -0.00000000000E+00 -0.00000000000E+00 -0.44447038141E+03  0.44447038141E+03  0.00000000000E+00 0.  1.
        -24    2    1    2    0    0  0.20114877631E+02  0.12606169398E+02 -0.24966989836E+03  0.26346775583E+03  0.80725933922E+02 0.  0.
         25    2    1    2    0    0 -0.15565739638E+02 -0.16400531530E+02 -0.15047656936E+03  0.19697957863E+03  0.12508591761E+03 0.  0.
         24    2    1    2    0    0 -0.45491379926E+01  0.37943621324E+01  0.10623646320E+03  0.13458342384E+03  0.82410072303E+02 0.  0.
        -11    1    5    5    0    0 -0.22488353293E+02 -0.61328584536E+01  0.11109398839E+03  0.11351304878E+03  0.00000000000E+00 0.  1.
         12    1    5    5    0    0  0.17939215300E+02  0.99272205861E+01 -0.48575251855E+01  0.21070375058E+02  0.00000000000E+00 0. -1.
         13    1    3    3    0    0  0.45638955752E+02  0.19123322096E+02 -0.10086729332E+03  0.11235135332E+03  0.00000000000E+00 0. -1.
        -14    1    3    3    0    0 -0.25524078122E+02 -0.65171526986E+01 -0.14880260503E+03  0.15111640251E+03  0.00000000000E+00 0.  1.
          5    1    4    4  501    0 -0.11689512834E+02  0.44843813100E+02 -0.11923226795E+03  0.12798991525E+03  0.41800000000E+01 0.  1.
         -5    1    4    4    0  501 -0.38762268038E+01 -0.61244344630E+02 -0.31244301410E+02  0.68989663385E+02  0.41800000000E+01 0.  1.
</event>
<event>
11    1  0.6930157E-009  0.4968028E+03  0.7561462E-02  0.9400694E-01
         22   -1    0    0    0    0  0.00000000000E+00  0.00000000000E+00  0.16649072105E+04  0.16649072105E+04  0.00000000000E+00 0. -1.
         22   -1    0    0    0    0 -0.00000000000E+00 -0.00000000000E+00 -0.62545847683E+03  0.62545847683E+03  0.00000000000E+00 0.  1.
         24    2    1    2    0    0 -0.19682759488E+03 -0.47155101645E+03 -0.28468392658E+03  0.59068534559E+03  0.82236100492E+02 0.  0.
         25    2    1    2    0    0  0.19326732205E+03  0.38236783619E+03  0.84371377622E+02  0.45422741404E+03  0.12508634769E+03 0.  0.
        -24    2    1    2    0    0  0.35602728359E+01  0.89183180259E+02  0.12397612827E+04  0.12454529277E+04  0.78604338575E+02 0.  0.
        -13    1    3    3    0    0 -0.11067894671E+03 -0.22561808805E+03 -0.18339853288E+03  0.31110829748E+03  0.00000000000E+00 0.  1.
         14    1    3    3    0    0 -0.86148648175E+02 -0.24593292840E+03 -0.10128539370E+03  0.27957704811E+03  0.00000000000E+00 0. -1.
         13    1    5    5    0    0  0.38904743189E+02  0.66158493560E+02  0.79879144480E+03  0.80247012256E+03  0.00000000000E+00 0. -1.
        -14    1    5    5    0    0 -0.35344470353E+02  0.23024686699E+02  0.44096983785E+03  0.44298280517E+03  0.00000000000E+00 0.  1.
          5    1    4    4  501    0  0.17185680588E+03  0.33660270292E+03  0.28877164485E+02  0.37906134644E+03  0.41800000000E+01 0. -1.
         -5    1    4    4    0  501  0.21410516166E+02  0.45765133270E+02  0.55494213137E+02  0.75166067593E+02  0.41800000000E+01 0. -1.
</event>
<event>
11    1  0.6930157E-009  0.1388664E+03  0.7561462E-02  0.1108831E+00
         22   -1    0    0    0    0  0.00000000000E+00  0.00000000000E+00  0.12649518841E+03  0.12649518841E+03  0.00000000000E+00 0. -1.
         22   -1    0    0    0    0 -0.00000000000E+00 -0.00000000000E+00 -0.67208488973E+03  0.67208488973E+03  0.00000000000E+00 0.  1.
        -24    2    1    2    0    0 -0.62489174628E+02  0.16405199746E+02 -0.52955668776E+03  0.54011969925E+03  0.84409575570E+02 0.  0.
         25    2    1    2    0    0  0.34319093326E+02  0.27104699593E+02 -0.68868869459E+02  0.14934260320E+03  0.12509127484E+03 0.  0.
         24    2    1    2    0    0  0.28170081302E+02 -0.43509899339E+02  0.52835855892E+02  0.10911777570E+03  0.80177281595E+02 0.  0.
        -11    1    5    5    0    0  0.20016558814E+02 -0.12500239612E+02 -0.19099767434E+02  0.30359837502E+02  0.00000000000E+00 0.  1.
         12    1    5    5    0    0  0.81535224876E+01 -0.31009659726E+02  0.71935623326E+02  0.78757938194E+02  0.00000000000E+00 0. -1.
         11    1    3    3    0    0  0.20633497263E+02 -0.24690991134E+01 -0.89131041078E+02  0.91521473674E+02  0.00000000000E+00 0. -1.
        -12    1    3    3    0    0 -0.83122671891E+02  0.18874298859E+02 -0.44042564668E+03  0.44859822558E+03  0.00000000000E+00 0.  1.
          5    1    4    4  501    0 -0.31504667107E+02  0.31067874328E+02  0.10900942980E+02  0.45760898403E+02  0.41800000000E+01 0. -1.
         -5    1    4    4    0  501  0.65823760433E+02 -0.39631747347E+01 -0.79769812439E+02  0.10358170479E+03  0.41800000000E+01 0. -1.
</event>
<event>
11    1  0.6930157E-009  0.1529026E+03  0.7561462E-02  0.1093949E+00
         22   -1    0    0    0    0  0.00000000000E+00  0.00000000000E+00  0.10169845180E+04  0.10169845180E+04  0.00000000000E+00 0. -1.
         22   -1    0    0    0    0 -0.00000000000E+00 -0.00000000000E+00 -0.34225583630E+03  0.34225583630E+03  0.00000000000E+00 0.  1.
         24    2    1    2    0    0  0.68596477678E+02  0.56785781994E+02 -0.29580806855E+03  0.31899408922E+03  0.79528068983E+02 0.  0.
         25    2    1    2    0    0 -0.54589943034E+02 -0.47701259905E+02  0.12713640199E+03  0.19252714704E+03  0.12509022967E+03 0.  0.
        -24    2    1    2    0    0 -0.14006534644E+02 -0.90845220884E+01  0.84340034830E+03  0.84771911808E+03  0.83814342989E+02 0.  0.
        -11    1    3    3    0    0  0.90634809337E+01  0.30426224174E+02 -0.20392762436E+03  0.20638405409E+03  0.00000000000E+00 0.  1.
         12    1    3    3    0    0  0.59532996744E+02  0.26359557819E+02 -0.91880444188E+02  0.11261003514E+03  0.00000000000E+00 0. -1.
         13    1    5    5    0    0 -0.46158608605E+01 -0.18489839584E+02  0.82389907155E+03  0.82411944549E+03  0.00000000000E+00 0. -1.
        -14    1    5    5    0    0 -0.93906737833E+01  0.94053174955E+01  0.19501276750E+02  0.23599672586E+02  0.00000000000E+00 0.  1.
          5    1    4    4  501    0  0.25308384733E+02  0.20466591930E+02  0.82464402809E+01  0.33835955733E+02  0.41800000000E+01 0. -1.
         -5    1    4    4    0  501 -0.79898327767E+02 -0.68167851835E+02  0.11888996171E+03  0.15869119131E+03  0.41800000000E+01 0. -1.
</event>
<event>
11    1  0.6930157E-009  0.1579100E+03  0.7561462E-02  0.1089060E+00
         22   -1    0    0    0    0  0.00000000000E+00  0.00000000000E+00  0.53304481910E+03  0.53304481910E+03  0.00000000000E+00 0.  1.
         22   -1    0    0    0    0 -0.00000000000E+00 -0.00000000000E+00 -0.54106420383E+03  0.54106420383E+03  0.00000000000E+00 0. -1.
        -24    2    1    2    0    0  0.18060100404E+02 -0.32277910304E+02 -0.44332638242E+03  0.45348144165E+03  0.87972187924E+02 0.  0.
         25    2    1    2    0    0  0.19857153662E+02  0.11855818764E+03  0.56301337919E+01  0.17357960908E+03  0.12509129416E+03 0.  0.
         24    2    1    2    0    0 -0.37917254066E+02 -0.86280277339E+02  0.42967686390E+03  0.44704797219E+03  0.79672314243E+02 0.  0.
        -11    1    5    5    0    0 -0.57836096273E+02 -0.33420703378E+02  0.24269927485E+03  0.25172384761E+03  0.00000000000E+00 0.  1.
         12    1    5    5    0    0  0.19918842207E+02 -0.52859573961E+02  0.18697758905E+03  0.19532412458E+03  0.00000000000E+00 0. -1.
         13    1    3    3    0    0 -0.17704136046E+02 -0.50504232015E+02 -0.29523271610E+03  0.30004411432E+03  0.00000000000E+00 0. -1.
        -14    1    3    3    0    0  0.35764236450E+02  0.18226321711E+02 -0.14809366633E+03  0.15343732733E+03  0.00000000000E+00 0.  1.
          5    1    4    4  501    0  0.21795307864E+02  0.36607536976E+02 -0.56321479961E+02  0.70744107270E+02  0.41800000000E+01 0.  1.
         -5    1    4    4    0  501 -0.19381542028E+01  0.81950650667E+02  0.61951613753E+02  0.10283550181E+03  0.41800000000E+01 0.  1.
</event>
<event>
11    1  0.6930157E-009  0.1346715E+03  0.7561462E-02  0.1113659E+00
         22   -1    0    0    0    0  0.00000000000E+00  0.00000000000E+00  0.67544971143E+03  0.67544971143E+03  0.00000000000E+00 0.  1.
         22   -1    0    0    0    0 -0.00000000000E+00 -0.00000000000E+00 -0.60032165839E+03  0.60032165839E+03  0.00000000000E+00 0. -1.
        -24    2    1    2    0    0 -0.53023169237E+02  0.17871158717E+01 -0.49479075450E+03  0.50407441864E+03  0.80364659755E+02 0.  0.
         25    2    1    2    0    0  0.20947540975E+02 -0.12762035100E+02 -0.56370813644E+02  0.13938316801E+03  0.12509328471E+03 0.  0.
         24    2    1    2    0    0  0.32075628262E+02  0.10974919228E+02  0.62628962118E+03  0.63231378316E+03  0.80204339070E+02 0.  0.
        -13    1    5    5    0    0  0.46737550988E+02  0.16020826149E+02  0.59813142359E+03  0.60016853086E+03  0.00000000000E+00 0.  1.
         14    1    5    5    0    0 -0.14661922727E+02 -0.50459069215E+01  0.28158197586E+02  0.32145252309E+02  0.00000000000E+00 0. -1.
         13    1    3    3    0    0 -0.60799722363E+02  0.21268669148E+02 -0.45033658994E+03  0.45491978058E+03  0.00000000000E+00 0. -1.
        -14    1    3    3    0    0  0.77765531261E+01 -0.19481553276E+02 -0.44454164559E+02  0.49154638064E+02  0.00000000000E+00 0.  1.
          5    1    4    4  501    0  0.45585411926E+02 -0.83358451786E+01 -0.87570796168E+02  0.99164675348E+02  0.41800000000E+01 0. -1.
         -5    1    4    4    0  501 -0.24637870951E+02 -0.44261899210E+01  0.31199982524E+02  0.40218492658E+02  0.41800000000E+01 0. -1.
</event>
<event>
11    1  0.6930157E-009  0.1381929E+03  0.7561462E-02  0.1109593E+00
         22   -1    0    0    0    0  0.00000000000E+00  0.00000000000E+00  0.22361137636E+04  0.22361137636E+04  0.00000000000E+00 0.  1.
         22   -1    0    0    0    0 -0.00000000000E+00 -0.00000000000E+00 -0.10685806428E+04  0.10685806428E+04  0.00000000000E+00 0.  1.
         24    2    1    2    0    0  0.27775572260E+02 -0.23283848307E+02 -0.10118131464E+04  0.10156076073E+04  0.79870825138E+02 0.  0.
         25    2    1    2    0    0 -0.45346249167E+02 -0.33225401736E+02  0.35546987903E+02  0.14167603147E+03  0.12509316492E+03 0.  0.
        -24    2    1    2    0    0  0.17570676907E+02  0.56509250043E+02  0.21437992793E+04  0.21474107676E+04  0.10952456787E+03 0.  0.
        -13    1    3    3    0    0  0.27818665793E+02 -0.46018674864E+01 -0.96189330548E+03  0.96230649300E+03  0.00000000000E+00 0.  1.
         14    1    3    3    0    0 -0.43093533385E-01 -0.18681980821E+02 -0.49919840929E+02  0.53301114274E+02  0.00000000000E+00 0. -1.
         11    1    5    5    0    0 -0.38706898609E+02  0.49977063978E+02  0.83685540137E+03  0.83923947341E+03  0.00000000000E+00 0. -1.
        -12    1    5    5    0    0  0.56277575516E+02  0.65321860650E+01  0.13069438779E+04  0.13081712942E+04  0.00000000000E+00 0.  1.
          5    1    4    4  501    0 -0.60120317710E+02  0.33101687819E+02  0.13137855603E+02  0.70001785605E+02  0.41800000000E+01 0.  1.
         -5    1    4    4    0  501  0.14774068543E+02 -0.66327089555E+02  0.22409132300E+02  0.71674245867E+02  0.41800000000E+01 0.  1.
</event>
<event>
11    1  0.6930157E-009  0.1273176E+03  0.7561462E-02  0.1122609E+00
         22   -1    0    0    0    0  0.00000000000E+00  0.00000000000E+00  0.19424908727E+03  0.19424908727E+03  0.00000000000E+00 0. -1.
         22   -1    0    0    0    0 -0.00000000000E+00 -0.00000000000E+00 -0.10272924226E+04  0.10272924226E+04  0.00000000000E+00 0. -1.
        -24    2    1    2    0    0  0.30459336044E+01 -0.23356115930E+02 -0.91759502081E+03  0.92146033372E+03  0.80955163858E+02 0.  0.
         25    2    1    2    0    0 -0.20272032326E+02  0.24858683358E+02 -0.52348734669E+02  0.13934236898E+03  0.12508795441E+03 0.  0.
         24    2    1    2    0    0  0.17226098721E+02 -0.15025674278E+01  0.13690042010E+03  0.16073880721E+03  0.82439328795E+02 0.  0.
        -13    1    5    5    0    0 -0.22988468674E+02 -0.13088594710E+02  0.10454438342E+03  0.10783927442E+03  0.00000000000E+00 0.  1.
         14    1    5    5    0    0  0.40214567395E+02  0.11586027282E+02  0.32356036682E+02  0.52899532784E+02  0.00000000000E+00 0. -1.
         13    1    3    3    0    0  0.23775625123E+01 -0.48450616587E+02 -0.78580013349E+03  0.78729598300E+03  0.00000000000E+00 0. -1.
        -14    1    3    3    0    0  0.66837109213E+00  0.25094500657E+02 -0.13179488731E+03  0.13416435073E+03  0.00000000000E+00 0.  1.
          5    1    4    4  501    0 -0.76262727902E+01  0.42948629686E+02 -0.87365620967E+02  0.97739290746E+02  0.41800000000E+01 0. -1.
         -5    1    4    4    0  501 -0.12645759536E+02 -0.18089946328E+02  0.35016886298E+02  0.41603078232E+02  0.41800000000E+01 0. -1.
</event>
<event>
11    1  0.6930157E-009  0.1680417E+03  0.7561462E-02  0.1079749E+00
         22   -1    0    0    0    0  0.00000000000E+00  0.00000000000E+00  0.78511723464E+03  0.78511723464E+03  0.00000000000E+00 0. -1.
         22   -1    0    0    0    0 -0.00000000000E+00 -0.00000000000E+00 -0.71290272902E+03  0.71290272902E+03  0.00000000000E+00 0.  1.
         24    2    1    2    0    0 -0.23945147760E+00  0.11176785229E+03 -0.66541501200E+03  0.67897187912E+03  0.75720303049E+02 0.  0.
         25    2    1    2    0    0  0.51218813529E+02 -0.15502023484E+03  0.65062745519E+03  0.68236250039E+03  0.12509139229E+03 0.  0.
        -24    2    1    2    0    0 -0.50979362051E+02  0.43252382551E+02  0.87002062441E+02  0.13668558415E+03  0.81510282130E+02 0.  0.
        -13    1    3    3    0    0 -0.25325151784E+02  0.70791490663E+02 -0.52957693217E+03  0.53488739521E+03  0.00000000000E+00 0.  1.
         14    1    3    3    0    0  0.25085700306E+02  0.40976361627E+02 -0.13583807983E+03  0.14408448391E+03  0.00000000000E+00 0. -1.
         11    1    5    5    0    0 -0.61769280889E+01  0.53493652460E+02  0.68526766279E+02  0.87152986127E+02  0.00000000000E+00 0. -1.
        -12    1    5    5    0    0 -0.44802433962E+02 -0.10241269909E+02  0.18475296162E+02  0.49532598019E+02  0.00000000000E+00 0.  1.
          5    1    4    4  501    0  0.36209200887E+01 -0.10936257456E+03  0.55759499678E+03  0.56824548974E+03  0.41800000000E+01 0. -1.
         -5    1    4    4    0  501  0.47597893440E+02 -0.45657660281E+02  0.93032458408E+02  0.11411701065E+03  0.41800000000E+01 0. -1.
</event>
<event>
11    1  0.6930157E-009  0.1542283E+03  0.7561462E-02  0.1092635E+00
         22   -1    0    0    0    0  0.00000000000E+00  0.00000000000E+00  0.55872421369E+03  0.55872421369E+03  0.00000000000E+00 0. -1.
         22   -1    0    0    0    0 -0.00000000000E+00 -0.00000000000E+00 -0.71531577239E+03  0.71531577239E+03  0.00000000000E+00 0.  1.
        -24    2    1    2    0    0  0.10471970481E+03  0.47015293515E+02 -0.48252963944E+03  0.50332868807E+03  0.85605262116E+02 0.  0.
         25    2    1    2    0    0 -0.50243690225E+02  0.28086769215E+02 -0.19311498379E+03  0.23717984834E+03  0.12509032128E+03 0.  0.
         24    2    1    2    0    0 -0.54476014581E+02 -0.75102062731E+02  0.51905306453E+03  0.53353144968E+03  0.81435667920E+02 0.  0.
        -11    1    5    5    0    0  0.18819783272E+02 -0.34330631828E+02  0.18647548116E+03  0.19054102340E+03  0.00000000000E+00 0.  1.
         12    1    5    5    0    0 -0.73295797853E+02 -0.40771430903E+02  0.33257758337E+03  0.34299042628E+03  0.00000000000E+00 0. -1.
         13    1    3    3    0    0  0.26102894860E+02  0.24247103663E+02 -0.41173483071E+02  0.54447579050E+02  0.00000000000E+00 0. -1.
        -14    1    3    3    0    0  0.78616809946E+02  0.22768189852E+02 -0.44135615637E+03  0.44888110902E+03  0.00000000000E+00 0.  1.
          5    1    4    4  501    0 -0.85572314910E+02  0.38830095558E+02 -0.10185983613E+03  0.13864810138E+03  0.41800000000E+01 0. -1.
         -5    1    4    4    0  501  0.35328624685E+02 -0.10743326342E+02 -0.91255147664E+02  0.98531746956E+02  0.41800000000E+01 0. -1.
</event>
<event>
11    1  0.6930157E-009  0.1272795E+03  0.7561462E-02  0.1122658E+00
         22   -1    0    0    0    0  0.00000000000E+00  0.00000000000E+00  0.80460738897E+03  0.80460738897E+03  0.00000000000E+00 0. -1.
         22   -1    0    0    0    0 -0.00000000000E+00 -0.00000000000E+00 -0.34224378608E+03  0.34224378608E+03  0.00000000000E+00 0.  1.
        -24    2    1    2    0    0 -0.67260475475E+01 -0.22854967991E+02 -0.31125324734E+03  0.32224972974E+03  0.79991968704E+02 0.  0.
         25    2    1    2    0    0  0.17164506410E+01  0.14302521529E+02  0.14303951954E+03  0.19056446505E+03  0.12508798049E+03 0.  0.
         24    2    1    2    0    0  0.50095969065E+01  0.85524464627E+01  0.63057733070E+03  0.63403698026E+03  0.65397874210E+02 0.  0.
        -13    1    5    5    0    0 -0.76846766366E+01 -0.25179247635E+02  0.16716705305E+03  0.16922728028E+03  0.00000000000E+00 0.  1.
         14    1    5    5    0    0  0.12694273543E+02  0.33731694098E+02  0.46341027765E+03  0.46480969998E+03  0.00000000000E+00 0. -1.
         11    1    3    3    0    0 -0.40454138776E+01  0.19031342157E+02 -0.19691258524E+02  0.27682178743E+02  0.00000000000E+00 0. -1.
        -12    1    3    3    0    0 -0.26806336699E+01 -0.41886310148E+02 -0.29156198882E+03  0.29456755099E+03  0.00000000000E+00 0.  1.
          5    1    4    4  501    0  0.99292544199E+01  0.19822250434E+02  0.16477877944E+03  0.16631605533E+03  0.41800000000E+01 0. -1.
         -5    1    4    4    0  501 -0.82128037789E+01 -0.55197289053E+01 -0.21739259899E+02  0.24248409722E+02  0.41800000000E+01 0. -1.
</event>
<event>
11    1  0.7062824E-009  0.1483657E+03  0.7561462E-02  0.1098560E+00
         22   -1    0    0    0    0  0.00000000000E+00  0.00000000000E+00  0.49808513002E+03  0.49808513002E+03  0.00000000000E+00 0.  1.
         22   -1    0    0    0    0 -0.00000000000E+00 -0.00000000000E+00 -0.86289718137E+03  0.86289718137E+03  0.00000000000E+00 0.  1.
        -24    2    1    2    0    0  0.36769446067E+02  0.84363767508E+02 -0.72075459416E+03  0.73091445701E+03  0.79243428949E+02 0.  0.
         25    2    1    2    0    0 -0.56859197329E+00 -0.71330838094E+01 -0.99307213763E+02  0.15987619822E+03  0.12508905576E+03 0.  0.
         24    2    1    2    0    0 -0.36200854093E+02 -0.77230683698E+02  0.45524975658E+03  0.47019165616E+03  0.80949195916E+02 0.  0.
        -11    1    5    5    0    0 -0.43444090837E+02 -0.91653763763E+02  0.38945937499E+03  0.40245050156E+03  0.00000000000E+00 0.  1.
         12    1    5    5    0    0  0.72432367437E+01  0.14423080065E+02  0.65790381586E+02  0.67741154598E+02  0.00000000000E+00 0. -1.
         13    1    3    3    0    0 -0.18984727814E+02  0.47368521713E+01 -0.61655996382E+02  0.64686316548E+02  0.00000000000E+00 0. -1.
        -14    1    3    3    0    0  0.55754173881E+02  0.79626915336E+02 -0.65909859778E+03  0.66622814046E+03  0.00000000000E+00 0.  1.
          5    1    4    4  501    0 -0.45930663412E+01 -0.35332946889E+02  0.17256746353E+02  0.39809309074E+02  0.41800000000E+01 0. -1.
         -5    1    4    4    0  501  0.40244743680E+01  0.28199863079E+02 -0.11656396012E+03  0.12006688915E+03  0.41800000000E+01 0. -1.
</event>
<event>
11    1  0.6930157E-009  0.1434568E+03  0.7561462E-02  0.1103759E+00
         22   -1    0    0    0    0  0.00000000000E+00  0.00000000000E+00  0.38990940421E+03  0.38990940421E+03  0.00000000000E+00 0.  1.
         22   -1    0    0    0    0 -0.00000000000E+00 -0.00000000000E+00 -0.16513920567E+03  0.16513920567E+03  0.00000000000E+00 0. -1.
        -24    2    1    2    0    0 -0.59938010394E+01 -0.23609476623E+02 -0.65401724640E+02  0.10797631152E+03  0.82390322403E+02 0.  0.
         25    2    1    2    0    0 -0.38473927506E+02  0.75663417518E+02  0.14563622290E+02  0.15185633751E+03  0.12507218836E+03 0.  0.
         24    2    1    2    0    0  0.44467728546E+02 -0.52053940895E+02  0.27560830089E+03  0.29521596086E+03  0.80656905348E+02 0.  0.
        -11    1    5    5    0    0  0.62668716716E+02 -0.16334700656E+02  0.18877859614E+03  0.19957842785E+03  0.00000000000E+00 0.  1.
         12    1    5    5    0    0 -0.18200988170E+02 -0.35719240240E+02  0.86829704748E+02  0.95637533011E+02  0.00000000000E+00 0. -1.
         11    1    3    3    0    0 -0.37130541102E+01  0.15132670353E+02 -0.67339554466E+02  0.69118738983E+02  0.00000000000E+00 0. -1.
        -12    1    3    3    0    0 -0.22807469292E+01 -0.38742146976E+02  0.19378298257E+01  0.38857572535E+02  0.00000000000E+00 0.  1.
          5    1    4    4  501    0 -0.48553558004E+02  0.84629665309E+00  0.48698104564E+02  0.68899506536E+02  0.41800000000E+01 0.  1.
         -5    1    4    4    0  501  0.10079630497E+02  0.74817120865E+02 -0.34134482274E+02  0.82956830976E+02  0.41800000000E+01 0.  1.
</event>
<event>
11    1  0.6930157E-009  0.1875347E+03  0.7561462E-02  0.1063706E+00
         22   -1    0    0    0    0  0.00000000000E+00  0.00000000000E+00  0.29404979749E+04  0.29404979749E+04  0.00000000000E+00 0.  1.
         22   -1    0    0    0    0 -0.00000000000E+00 -0.00000000000E+00 -0.16979576651E+03  0.16979576651E+03  0.00000000000E+00 0.  1.
         24    2    1    2    0    0 -0.95779360923E+02 -0.10674344283E+03 -0.10286665731E+03  0.19415797610E+03  0.80919230906E+02 0.  0.
         25    2    1    2    0    0  0.10943295340E+03  0.47947534863E+02  0.35046261731E+03  0.39082700281E+03  0.12508861902E+03 0.  0.
        -24    2    1    2    0    0 -0.13653592474E+02  0.58795907966E+02  0.25231062484E+04  0.25253087625E+04  0.86462858841E+02 0.  0.
        -13    1    3    3    0    0 -0.88809904814E+02 -0.11993710874E+03 -0.97668730360E+02  0.17835719816E+03  0.00000000000E+00 0.  1.
         14    1    3    3    0    0 -0.69694561089E+01  0.13193665914E+02 -0.51979269461E+01  0.15800777932E+02  0.00000000000E+00 0. -1.
         11    1    5    5    0    0 -0.12963821967E+02 -0.12913701360E+02  0.14895665777E+03  0.15007634809E+03  0.00000000000E+00 0. -1.
        -12    1    5    5    0    0 -0.68977050770E+00  0.71709609326E+02  0.23741495907E+04  0.23752324145E+04  0.00000000000E+00 0.  1.
          5    1    4    4  501    0  0.15275865430E+02  0.62737717657E+02  0.73656720221E+02  0.98041614201E+02  0.41800000000E+01 0. -1.
         -5    1    4    4    0  501  0.94157087967E+02 -0.14790182794E+02  0.27680589708E+03  0.29278538861E+03  0.41800000000E+01 0. -1.
</event>
<event>
11    1  0.7721119E-009  0.1552157E+03  0.7561462E-02  0.1091665E+00
         22   -1    0    0    0    0  0.00000000000E+00  0.00000000000E+00  0.91897280316E+03  0.91897280316E+03  0.00000000000E+00 0. -1.
         22   -1    0    0    0    0 -0.00000000000E+00 -0.00000000000E+00 -0.63718892370E+03  0.63718892370E+03  0.00000000000E+00 0. -1.
         24    2    1    2    0    0  0.96926261731E+02 -0.11395179503E+02 -0.51516593046E+03  0.53019228545E+03  0.78634428328E+02 0.  0.
         25    2    1    2    0    0 -0.59261402052E+02  0.40440903353E+01 -0.69508527186E+02  0.15495536700E+03  0.12510580311E+03 0.  0.
        -24    2    1    2    0    0 -0.37664859678E+02  0.73510891680E+01  0.86645833710E+03  0.87101407440E+03  0.80266977682E+02 0.  0.
        -13    1    3    3    0    0  0.50212052998E-01 -0.19022192606E+01  0.26746421192E+01  0.32824792203E+01  0.00000000000E+00 0.  1.
         14    1    3    3    0    0  0.96876049678E+02 -0.94929602426E+01 -0.51784057258E+03  0.52690980623E+03  0.00000000000E+00 0. -1.
         11    1    5    5    0    0 -0.41639992726E+02 -0.64764830103E+01  0.83861506251E+03  0.83967318458E+03  0.00000000000E+00 0. -1.
        -12    1    5    5    0    0  0.39751330479E+01  0.13827572178E+02  0.27843274589E+02  0.31340889824E+02  0.00000000000E+00 0.  1.
          5    1    4    4  501    0 -0.16211690650E+02 -0.33331610395E+02  0.24716771715E+02  0.44746020709E+02  0.41800000000E+01 0. -1.
         -5    1    4    4    0  501 -0.43049711402E+02  0.37375700730E+02 -0.94225298901E+02  0.11020934629E+03  0.41800000000E+01 0. -1.
</event>
<event>
11    1  0.6930157E-009  0.2011888E+03  0.7561462E-02  0.1053686E+00
         22   -1    0    0    0    0  0.00000000000E+00  0.00000000000E+00  0.16378044358E+04  0.16378044358E+04  0.00000000000E+00 0.  1.
         22   -1    0    0    0    0 -0.00000000000E+00 -0.00000000000E+00 -0.98233836626E+03  0.98233836626E+03  0.00000000000E+00 0. -1.
         24    2    1    2    0    0  0.11929297974E+03  0.10421674255E+03 -0.95759035072E+03  0.97388686443E+03  0.79902443535E+02 0.  0.
         25    2    1    2    0    0 -0.94885249320E+02 -0.56747774595E+02  0.46359337905E+03  0.49273712664E+03  0.12509010518E+03 0.  0.
        -24    2    1    2    0    0 -0.24407730418E+02 -0.47468967957E+02  0.11494630412E+04  0.11535188109E+04  0.80568752981E+02 0.  0.
        -11    1    3    3    0    0  0.69313876820E+02  0.97493013848E+02 -0.52992436881E+03  0.54325789266E+03  0.00000000000E+00 0.  1.
         12    1    3    3    0    0  0.49979102919E+02  0.67237287040E+01 -0.42766598191E+03  0.43062897178E+03  0.00000000000E+00 0. -1.
         13    1    5    5    0    0  0.13351760818E+02 -0.54238036962E+02  0.54984600027E+03  0.55267590701E+03  0.00000000000E+00 0. -1.
        -14    1    5    5    0    0 -0.37759491236E+02  0.67690690050E+01  0.59961704089E+03  0.60084290393E+03  0.00000000000E+00 0.  1.
          5    1    4    4  501    0  0.41555203810E+01  0.24653578674E+02  0.24352901119E+02  0.35151151958E+02  0.41800000000E+01 0.  1.
         -5    1    4    4    0  501 -0.99040769702E+02 -0.81401353269E+02  0.43924047793E+03  0.45758597469E+03  0.41800000000E+01 0.  1.
</event>
<event>
11    1  0.1063853E-008  0.1664978E+03  0.7561462E-02  0.1081120E+00
         22   -1    0    0    0    0  0.00000000000E+00  0.00000000000E+00  0.15180131696E+04  0.15180131696E+04  0.00000000000E+00 0. -1.
         22   -1    0    0    0    0 -0.00000000000E+00 -0.00000000000E+00 -0.12994414391E+04  0.12994414391E+04  0.00000000000E+00 0.  1.
        -24    2    1    2    0    0 -0.17374245264E+02 -0.97782033823E+02 -0.59083516691E+03  0.60471260654E+03  0.82024091054E+02 0.  0.
         25    2    1    2    0    0  0.11755533647E+03  0.14231576081E+03 -0.68071499634E+03  0.71630503042E+03  0.12508779904E+03 0.  0.
         24    2    1    2    0    0 -0.10018109120E+03 -0.44533726987E+02  0.14901218937E+04  0.14964369717E+04  0.82709421490E+02 0.  0.
        -11    1    5    5    0    0 -0.40178141544E+02 -0.58138964763E+02  0.99507184561E+03  0.99757826771E+03  0.00000000000E+00 0.  1.
         12    1    5    5    0    0 -0.60002949661E+02  0.13605237776E+02  0.49505004809E+03  0.49885870402E+03  0.00000000000E+00 0. -1.
         13    1    3    3    0    0  0.19518058224E+02 -0.17314477980E+02 -0.28869958231E+03  0.28987617110E+03  0.00000000000E+00 0. -1.
        -14    1    3    3    0    0 -0.36892303488E+02 -0.80467555843E+02 -0.30213558461E+03  0.31483643545E+03  0.00000000000E+00 0.  1.
          5    1    4    4  501    0 -0.22356582522E+02  0.25844382999E+02 -0.18560486967E+03  0.18877073121E+03  0.41800000000E+01 0. -1.
         -5    1    4    4    0  501  0.13991191899E+03  0.11647137781E+03 -0.49511012666E+03  0.52753429921E+03  0.41800000000E+01 0. -1.
</event>
<event>
11    1  0.6930157E-009  0.1411498E+03  0.7561462E-02  0.1106281E+00
         22   -1    0    0    0    0  0.00000000000E+00  0.00000000000E+00  0.45900971271E+03  0.45900971271E+03  0.00000000000E+00 0. -1.
         22   -1    0    0    0    0 -0.00000000000E+00 -0.00000000000E+00 -0.33444382980E+03  0.33444382980E+03  0.00000000000E+00 0.  1.
         24    2    1    2    0    0 -0.39893318689E+01  0.62804446646E+02 -0.22697712237E+03  0.24881372426E+03  0.80183177847E+02 0.  0.
         25    2    1    2    0    0 -0.24067764182E+02 -0.80001626326E+02 -0.29790386165E+02  0.15334503149E+03  0.12509082336E+03 0.  0.
        -24    2    1    2    0    0  0.28057096051E+02  0.17197179680E+02  0.38133339145E+03  0.39129478676E+03  0.81323496540E+02 0.  0.
        -11    1    3    3    0    0  0.73699009485E+01  0.27174502673E+02 -0.20174591430E+03  0.20370121005E+03  0.00000000000E+00 0.  1.
         12    1    3    3    0    0 -0.11359232817E+02  0.35629943973E+02 -0.25231208070E+02  0.45112514211E+02  0.00000000000E+00 0. -1.
         11    1    5    5    0    0 -0.10453605356E+02  0.33216393801E+02  0.27295719449E+03  0.27516946907E+03  0.00000000000E+00 0. -1.
        -12    1    5    5    0    0  0.38510701407E+02 -0.16019214121E+02  0.10837619695E+03  0.11612531769E+03  0.00000000000E+00 0.  1.
          5    1    4    4  501    0 -0.20007896362E+02 -0.75749628487E+02  0.36591669885E+02  0.86572194368E+02  0.41800000000E+01 0.  1.
         -5    1    4    4    0  501 -0.40598678195E+01 -0.42519978383E+01 -0.66382056049E+02  0.66772837125E+02  0.41800000000E+01 0.  1.
</event>
<event>
11    1  0.6930157E-009  0.1361616E+03  0.7561462E-02  0.1111922E+00
         22   -1    0    0    0    0  0.00000000000E+00  0.00000000000E+00  0.14038105963E+04  0.14038105963E+04  0.00000000000E+00 0. -1.
         22   -1    0    0    0    0 -0.00000000000E+00 -0.00000000000E+00 -0.56558282091E+02  0.56558282091E+02  0.00000000000E+00 0. -1.
        -24    2    1    2    0    0  0.44472018875E+02  0.36329506306E+02  0.17226662808E+01  0.95106682436E+02  0.75793930981E+02 0.  0.
         25    2    1    2    0    0  0.68768016393E+01 -0.26445132655E+02  0.55602250055E+03  0.57057096183E+03  0.12507424168E+03 0.  0.
         24    2    1    2    0    0 -0.51348820514E+02 -0.98843736512E+01  0.78950714741E+03  0.79469123415E+03  0.74014995856E+02 0.  0.
        -11    1    5    5    0    0 -0.11463634332E+02 -0.27595925385E+02  0.57573595631E+03  0.57651092045E+03  0.00000000000E+00 0.  1.
         12    1    5    5    0    0 -0.39885186183E+02  0.17711551734E+02  0.21377119110E+03  0.21818031370E+03  0.00000000000E+00 0. -1.
         13    1    3    3    0    0  0.26311181754E+02  0.70782456372E+01 -0.35271276230E+02  0.44569527409E+02  0.00000000000E+00 0. -1.
        -14    1    3    3    0    0  0.18160837121E+02  0.29251260669E+02  0.36993942511E+02  0.50537155026E+02  0.00000000000E+00 0.  1.
          5    1    4    4  501    0  0.45689470691E+02 -0.59775859037E+02  0.28919414687E+03  0.29885014311E+03  0.41800000000E+01 0. -1.
         -5    1    4    4    0  501 -0.38812669052E+02  0.33330726382E+02  0.26682835368E+03  0.27172081872E+03  0.41800000000E+01 0. -1.
</event>
<event>
11    1  0.6930157E-009  0.1406153E+03  0.7561462E-02  0.1106873E+00
         22   -1    0    0    0    0  0.00000000000E+00  0.00000000000E+00  0.38493547904E+03  0.38493547904E+03  0.00000000000E+00 0.  1.
         22   -1    0    0    0    0 -0.00000000000E+00 -0.00000000000E+00 -0.26052535709E+03  0.26052535709E+03  0.00000000000E+00 0. -1.
         24    2    1    2    0    0 -0.35141310951E+01  0.66307523351E+02 -0.21155571346E+03  0.23791741460E+03  0.86254504264E+02 0.  0.
         25    2    1    2    0    0 -0.37388767967E+01 -0.38695683795E+02  0.12876295631E+03  0.18368122823E+03  0.12509020562E+03 0.  0.
        -24    2    1    2    0    0  0.72530078918E+01 -0.27611839556E+02  0.20720287910E+03  0.22386219329E+03  0.79788650012E+02 0.  0.
        -13    1    3    3    0    0 -0.17495055844E+02  0.27914175210E+01 -0.12221534703E+01  0.17758452913E+02  0.00000000000E+00 0.  1.
         14    1    3    3    0    0  0.13980924749E+02  0.63516105830E+02 -0.21033355999E+03  0.22015896169E+03  0.00000000000E+00 0. -1.
         13    1    5    5    0    0 -0.32239598939E+02 -0.31450182580E+02  0.11284499109E+03  0.12150101949E+03  0.00000000000E+00 0. -1.
        -14    1    5    5    0    0  0.39492606830E+02  0.38383430239E+01  0.94357888006E+02  0.10236117379E+03  0.00000000000E+00 0.  1.
          5    1    4    4  501    0  0.10724148810E+02 -0.82960213893E+02  0.74945640559E+02  0.11239095113E+03  0.41800000000E+01 0. -1.
         -5    1    4    4    0  501 -0.14463025606E+02  0.44264530098E+02  0.53817315751E+02  0.71290277101E+02  0.41800000000E+01 0. -1.
</event>
<event>
11    1  0.6930157E-009  0.4082531E+03  0.7561462E-02  0.9625716E-01
         22   -1    0    0    0    0  0.00000000000E+00  0.00000000000E+00  0.11525246872E+04  0.11525246872E+04  0.00000000000E+00 0. -1.
         22   -1    0    0    0    0 -0.00000000000E+00 -0.00000000000E+00 -0.73306039352E+03  0.73306039352E+03  0.00000000000E+00 0.  1.
         24    2    1    2    0    0  0.17505026252E+03 -0.10858958483E+03 -0.51419455947E+03  0.55953013615E+03  0.79016681322E+02 0.  0.
         25    2    1    2    0    0  0.25727772585E+03  0.54276097688E+02 -0.11804386511E+01  0.29118245709E+03  0.12509239339E+03 0.  0.
        -24    2    1    2    0    0 -0.43232798837E+03  0.54313487138E+02  0.93483929182E+03  0.10348724875E+04  0.84729684381E+02 0.  0.
        -13    1    3    3    0    0  0.64763025637E+02 -0.18083019279E+02 -0.92514473015E+02  0.11436858307E+03  0.00000000000E+00 0.  1.
         14    1    3    3    0    0  0.11028723689E+03 -0.90506565547E+02 -0.42168008646E+03  0.44516155308E+03  0.00000000000E+00 0. -1.
         11    1    5    5    0    0 -0.32137420721E+03  0.74346714625E+02  0.72961250709E+03  0.80071419716E+03  0.00000000000E+00 0. -1.
        -12    1    5    5    0    0 -0.11095378117E+03 -0.20033227487E+02  0.20522678473E+03  0.23415829033E+03  0.00000000000E+00 0.  1.
          5    1    4    4  501    0  0.17974623592E+02  0.24076415646E+01  0.38811718068E+02  0.43043067858E+02  0.41800000000E+01 0.  1.
         -5    1    4    4    0  501  0.23930310226E+03  0.51868456123E+02 -0.39992156719E+02  0.24813938923E+03  0.41800000000E+01 0.  1.
</event>
<event>
11    1  0.6930157E-009  0.1706896E+03  0.7561462E-02  0.1077433E+00
         22   -1    0    0    0    0  0.00000000000E+00  0.00000000000E+00  0.13119913403E+04  0.13119913403E+04  0.00000000000E+00 0.  1.
         22   -1    0    0    0    0 -0.00000000000E+00 -0.00000000000E+00 -0.27585803031E+03  0.27585803031E+03  0.00000000000E+00 0.  1.
         24    2    1    2    0    0 -0.11638813705E+03  0.25419104573E+01 -0.24359345762E+03  0.28156335517E+03  0.79921778160E+02 0.  0.
         25    2    1    2    0    0  0.10637942986E+03 -0.74588494868E+01  0.61386034029E+03  0.63548949407E+03  0.12510060814E+03 0.  0.
        -24    2    1    2    0    0  0.10008707186E+02  0.49169390295E+01  0.66586642733E+03  0.67079652138E+03  0.80408479291E+02 0.  0.
        -11    1    3    3    0    0 -0.37972067445E+02 -0.37315008667E+02 -0.93265147694E+02  0.10739029543E+03  0.00000000000E+00 0.  1.
         12    1    3    3    0    0 -0.78416069602E+02  0.39856919124E+02 -0.15032830993E+03  0.17417305974E+03  0.00000000000E+00 0. -1.
         13    1    5    5    0    0  0.44603824484E+02 -0.38517320682E+01  0.41411061923E+03  0.41652363913E+03  0.00000000000E+00 0. -1.
        -14    1    5    5    0    0 -0.34595117298E+02  0.87686710976E+01  0.25175580810E+03  0.25427288225E+03  0.00000000000E+00 0.  1.
          5    1    4    4  501    0  0.18693781414E+01  0.39009472662E+02  0.75585018530E+02  0.85180989418E+02  0.41800000000E+01 0.  1.
         -5    1    4    4    0  501  0.10451005172E+03 -0.46468322149E+02  0.53827532176E+03  0.55030850465E+03  0.41800000000E+01 0.  1.
</event>
<event>
11    1  0.6930157E-009  0.1528158E+03  0.7561462E-02  0.1094036E+00
         22   -1    0    0    0    0  0.00000000000E+00  0.00000000000E+00  0.97539152774E+03  0.97539152774E+03  0.00000000000E+00 0. -1.
         22   -1    0    0    0    0 -0.00000000000E+00 -0.00000000000E+00 -0.35079116840E+03  0.35079116840E+03  0.00000000000E+00 0. -1.
        -24    2    1    2    0    0 -0.14067410858E+02 -0.87029316671E+02 -0.31153382674E+03  0.33400791550E+03  0.82072945609E+02 0.  0.
         25    2    1    2    0    0  0.31383115517E+02  0.76580025847E+02  0.19273081240E+03  0.24421179799E+03  0.12507931856E+03 0.  0.
         24    2    1    2    0    0 -0.17315704659E+02  0.10449290825E+02  0.74340337368E+03  0.74796298265E+03  0.79943893550E+02 0.  0.
        -11    1    5    5    0    0 -0.44457313401E+02  0.10071819480E+02  0.27320131783E+03  0.27697807554E+03  0.00000000000E+00 0.  1.
         12    1    5    5    0    0  0.27141608742E+02  0.37747134479E+00  0.47020205585E+03  0.47098490712E+03  0.00000000000E+00 0. -1.
         11    1    3    3    0    0 -0.46903721700E+02 -0.49085962717E+02 -0.21088175838E+03  0.22154120805E+03  0.00000000000E+00 0. -1.
        -12    1    3    3    0    0  0.32836310842E+02 -0.37943353954E+02 -0.10065206836E+03  0.11246670745E+03  0.00000000000E+00 0.  1.
          5    1    4    4  501    0 -0.12282967636E+02  0.98746637076E+02  0.14325001766E+03  0.17447008221E+03  0.41800000000E+01 0. -1.
         -5    1    4    4    0  501  0.43666083153E+02 -0.22166611229E+02  0.49480794742E+02  0.69741715778E+02  0.41800000000E+01 0. -1.
</event>
<event>
11    1  0.6930157E-009  0.1486284E+03  0.7561462E-02  0.1098289E+00
         22   -1    0    0    0    0  0.00000000000E+00  0.00000000000E+00  0.10242809666E+04  0.10242809666E+04  0.00000000000E+00 0.  1.
         22   -1    0    0    0    0 -0.00000000000E+00 -0.00000000000E+00 -0.49991046017E+03  0.49991046017E+03  0.00000000000E+00 0.  1.
        -24    2    1    2    0    0  0.13806059302E+02  0.58998044956E+02 -0.47271412454E+03  0.48330177560E+03  0.80315541293E+02 0.  0.
         25    2    1    2    0    0 -0.37400985066E+01 -0.12565696629E+03  0.44665489117E+03  0.48057294994E+03  0.12508439907E+03 0.  0.
         24    2    1    2    0    0 -0.10065960795E+02  0.66658921331E+02  0.55042973975E+03  0.56031670119E+03  0.80231987832E+02 0.  0.
        -11    1    5    5    0    0  0.21396589968E+02  0.69257846181E+02  0.41245833879E+03  0.41877958947E+03  0.00000000000E+00 0.  1.
         12    1    5    5    0    0 -0.31462550764E+02 -0.25989248507E+01  0.13797140097E+03  0.14153711173E+03  0.00000000000E+00 0. -1.
         13    1    3    3    0    0  0.41018032542E+02  0.68816924120E+01 -0.21190589624E+03  0.21594894198E+03  0.00000000000E+00 0. -1.
        -14    1    3    3    0    0 -0.27211973240E+02  0.52116352544E+02 -0.26080822831E+03  0.26735283362E+03  0.00000000000E+00 0.  1.
          5    1    4    4  501    0 -0.31670379037E+02 -0.53104605391E+02  0.60356638938E+02  0.86507273024E+02  0.41800000000E+01 0. -1.
         -5    1    4    4    0  501  0.27930280531E+02 -0.72552360896E+02  0.38629825223E+03  0.39406567691E+03  0.41800000000E+01 0. -1.
</event>
<event>
11    1  0.6930157E-009  0.1268457E+03  0.7561462E-02  0.1123206E+00
         22   -1    0    0    0    0  0.00000000000E+00  0.00000000000E+00  0.34306280014E+03  0.34306280014E+03  0.00000000000E+00 0.  1.
         22   -1    0    0    0    0 -0.00000000000E+00 -0.00000000000E+00 -0.52612964989E+03  0.52612964989E+03  0.00000000000E+00 0. -1.
        -24    2    1    2    0    0 -0.12005651115E+02 -0.51467509528E+01 -0.46090331290E+03  0.46812721777E+03  0.80873997505E+02 0.  0.
         25    2    1    2    0    0 -0.30983725794E+01  0.20458181470E+02  0.18729748330E+02  0.12816790661E+03  0.12509225280E+03 0.  0.
         24    2    1    2    0    0  0.15104023694E+02 -0.15311430517E+02  0.25910671482E+03  0.27289732565E+03  0.82910127527E+02 0.  0.
        -13    1    5    5    0    0  0.32515898338E+01  0.23386888325E+02  0.19923539250E+03  0.20062966133E+03  0.00000000000E+00 0.  1.
         14    1    5    5    0    0  0.11852433860E+02 -0.38698318842E+02  0.59871322318E+02  0.72267664317E+02  0.00000000000E+00 0. -1.
         11    1    3    3    0    0 -0.30471483896E+02 -0.20023656657E+02 -0.41368743537E+03  0.41529116573E+03  0.00000000000E+00 0. -1.
        -12    1    3    3    0    0  0.18465832781E+02  0.14876905704E+02 -0.47215877531E+02  0.52836052035E+02  0.00000000000E+00 0.  1.
          5    1    4    4  501    0  0.45201526621E+02  0.21895909478E+02 -0.30621715678E+02  0.58972626970E+02  0.41800000000E+01 0.  1.
         -5    1    4    4    0  501 -0.48299899200E+02 -0.14377280082E+01  0.49351464007E+02  0.69195279638E+02  0.41800000000E+01 0.  1.
</event>
<event>
11    1  0.6930157E-009  0.1639496E+03  0.7561462E-02  0.1083420E+00
         22   -1    0    0    0    0  0.00000000000E+00  0.00000000000E+00  0.23951951203E+03  0.23951951203E+03  0.00000000000E+00 0. -1.
         22   -1    0    0    0    0 -0.00000000000E+00 -0.00000000000E+00 -0.35458193865E+03  0.35458193865E+03  0.00000000000E+00 0.  1.
         24    2    1    2    0    0  0.27439077175E+02  0.18542383080E+02 -0.18980367324E+03  0.20884801168E+03  0.80593639207E+02 0.  0.
         25    2    1    2    0    0  0.54271992659E+02  0.56874456561E+02 -0.88729952968E+02  0.17233642463E+03  0.12508671274E+03 0.  0.
        -24    2    1    2    0    0 -0.81711069834E+02 -0.75416839640E+02  0.16347119959E+03  0.21291701437E+03  0.79034317101E+02 0.  0.
        -13    1    3    3    0    0 -0.14603947173E+02 -0.21395217526E+02 -0.87485530110E+02  0.91240060197E+02  0.00000000000E+00 0.  1.
         14    1    3    3    0    0  0.42043024348E+02  0.39937600605E+02 -0.10231814313E+03  0.11760795148E+03  0.00000000000E+00 0. -1.
         13    1    5    5    0    0 -0.72657944551E+02 -0.88838420283E+02  0.15905228061E+03  0.19613533540E+03  0.00000000000E+00 0. -1.
        -14    1    5    5    0    0 -0.90531252824E+01  0.13421580642E+02  0.44189189837E+01  0.16781678978E+02  0.00000000000E+00 0.  1.
          5    1    4    4  501    0 -0.62284464429E-02 -0.22795491122E+02  0.17338747027E+02  0.28943721301E+02  0.41800000000E+01 0.  1.
         -5    1    4    4    0  501  0.54278221105E+02  0.79669947683E+02 -0.10606869999E+03  0.14339270333E+03  0.41800000000E+01 0.  1.
</event>
<event>
11    1  0.6930157E-009  0.1563618E+03  0.7561462E-02  0.1090550E+00
         22   -1    0    0    0    0  0.00000000000E+00  0.00000000000E+00  0.74114515680E+03  0.74114515680E+03  0.00000000000E+00 0.  1.
         22   -1    0    0    0    0 -0.00000000000E+00 -0.00000000000E+00 -0.65810393445E+03  0.65810393445E+03  0.00000000000E+00 0.  1.
         24    2    1    2    0    0  0.84214547581E+02 -0.26518461795E+02 -0.62075291691E+03  0.63208301931E+03  0.79996503724E+02 0.  0.
         25    2    1    2    0    0 -0.72886667252E+02 -0.74270889876E+02  0.27842038619E+03  0.32248281124E+03  0.12509444733E+03 0.  0.
        -24    2    1    2    0    0 -0.11327880330E+02  0.10078935167E+03  0.42537375307E+03  0.44468326070E+03  0.80706618475E+02 0.  0.
        -11    1    3    3    0    0  0.94075092576E+02 -0.22802365521E+02 -0.60743999903E+03  0.61510440036E+03  0.00000000000E+00 0.  1.
         12    1    3    3    0    0 -0.98605449943E+01 -0.37160962738E+01 -0.13312917880E+02  0.16978618954E+02  0.00000000000E+00 0. -1.
         13    1    5    5    0    0 -0.15903258984E+02 -0.93563532342E+01  0.81856626143E+02  0.83910441756E+02  0.00000000000E+00 0. -1.
        -14    1    5    5    0    0  0.45753786546E+01  0.11014570490E+03  0.34351712693E+03  0.36077281895E+03  0.00000000000E+00 0.  1.
          5    1    4    4  501    0 -0.95937490384E+01 -0.95177429211E+02  0.17142242977E+03  0.19635148301E+03  0.41800000000E+01 0. -1.
         -5    1    4    4    0  501 -0.63292918213E+02  0.20906539335E+02  0.10699795643E+03  0.12613132823E+03  0.41800000000E+01 0. -1.
</event>
<event>
11    1  0.6930157E-009  0.1407799E+03  0.7561462E-02  0.1106691E+00
         22   -1    0    0    0    0  0.00000000000E+00  0.00000000000E+00  0.40483040943E+03  0.40483040943E+03  0.00000000000E+00 0. -1.
         22   -1    0    0    0    0 -0.00000000000E+00 -0.00000000000E+00 -0.11317587609E+04  0.11317587609E+04  0.00000000000E+00 0.  1.
        -24    2    1    2    0    0 -0.43815911143E+01  0.19809359877E+02 -0.91696581345E+03  0.92026033102E+03  0.75107687599E+02 0.  0.
         25    2    1    2    0    0 -0.34246174893E+02  0.32712160877E+02 -0.18444880363E+03  0.22784125664E+03  0.12508953235E+03 0.  0.
         24    2    1    2    0    0  0.38627766007E+02 -0.52521520754E+02  0.37448626557E+03  0.38848758270E+03  0.80199902536E+02 0.  0.
        -13    1    5    5    0    0 -0.11816425843E+02 -0.18658691432E+02  0.23374843094E+02  0.32158326687E+02  0.00000000000E+00 0.  1.
         14    1    5    5    0    0  0.50444191850E+02 -0.33862829322E+02  0.35111142247E+03  0.35632925602E+03  0.00000000000E+00 0. -1.
         11    1    3    3    0    0 -0.24906320833E+02  0.22508172323E+02 -0.18623910811E+03  0.18924045030E+03  0.00000000000E+00 0. -1.
        -12    1    3    3    0    0  0.20524729718E+02 -0.26988124458E+01 -0.73072670534E+03  0.73101988072E+03  0.00000000000E+00 0.  1.
          5    1    4    4  501    0 -0.60025179049E+02 -0.13009917161E+02 -0.15662110644E+03  0.16828524430E+03  0.41800000000E+01 0.  1.
         -5    1    4    4    0  501  0.25779004156E+02  0.45722078037E+02 -0.27827697182E+02  0.59556012340E+02  0.41800000000E+01 0.  1.
</event>
<event>
11    1  0.6930157E-009  0.1578431E+03  0.7561462E-02  0.1089124E+00
         22   -1    0    0    0    0  0.00000000000E+00  0.00000000000E+00  0.52417090700E+03  0.52417090700E+03  0.00000000000E+00 0.  1.
         22   -1    0    0    0    0 -0.00000000000E+00 -0.00000000000E+00 -0.33278178837E+03  0.33278178837E+03  0.00000000000E+00 0.  1.
         24    2    1    2    0    0  0.42265417408E+02  0.84258432363E+02 -0.24122769155E+03  0.27319344064E+03  0.86936804075E+02 0.  0.
         25    2    1    2    0    0 -0.63782440191E+02 -0.89161641883E+02  0.26978284241E+02  0.16850237522E+03  0.12508886671E+03 0.  0.
        -24    2    1    2    0    0  0.21517022782E+02  0.49032095203E+01  0.40563852594E+03  0.41525687951E+03  0.86073448419E+02 0.  0.
        -11    1    3    3    0    0  0.44525911669E+02  0.50750956136E+02 -0.22681089306E+03  0.23664614421E+03  0.00000000000E+00 0.  1.
         12    1    3    3    0    0 -0.22604942602E+01  0.33507476227E+02 -0.14416798492E+02  0.36547296428E+02  0.00000000000E+00 0. -1.
         11    1    5    5    0    0 -0.19200709406E+02 -0.13658109539E+02  0.36690948613E+02  0.43605468786E+02  0.00000000000E+00 0. -1.
        -12    1    5    5    0    0  0.40717732189E+02  0.18561319060E+02  0.36894757732E+03  0.37165141072E+03  0.00000000000E+00 0.  1.
          5    1    4    4  501    0 -0.56949667941E+02 -0.68052657151E+02 -0.40290328600E+02  0.97545947136E+02  0.41800000000E+01 0. -1.
         -5    1    4    4    0  501 -0.68327722499E+01 -0.21108984732E+02  0.67268612841E+02  0.70956428085E+02  0.41800000000E+01 0. -1.
</event>
<event>
11    1  0.6930157E-009  0.1609818E+03  0.7561462E-02  0.1086158E+00
         22   -1    0    0    0    0  0.00000000000E+00  0.00000000000E+00  0.26706993377E+03  0.26706993377E+03  0.00000000000E+00 0.  1.
         22   -1    0    0    0    0 -0.00000000000E+00 -0.00000000000E+00 -0.54598502133E+03  0.54598502133E+03  0.00000000000E+00 0.  1.
        -24    2    1    2    0    0  0.61253499341E+02  0.79166613073E+02 -0.44516258318E+03  0.46324594139E+03  0.80048316331E+02 0.  0.
         25    2    1    2    0    0 -0.63020821797E+02 -0.94407470892E+02  0.59150601686E+01  0.16901695195E+03  0.12508935834E+03 0.  0.
         24    2    1    2    0    0  0.17673224559E+01  0.15240857819E+02  0.16033243545E+03  0.18079206176E+03  0.82121084766E+02 0.  0.
        -11    1    5    5    0    0  0.22676589874E+02  0.36185211225E+02  0.13578455793E+03  0.14234129201E+03  0.00000000000E+00 0.  1.
         12    1    5    5    0    0 -0.20909267418E+02 -0.20944353406E+02  0.24547877519E+02  0.38450769748E+02  0.00000000000E+00 0. -1.
         13    1    3    3    0    0 -0.15549049470E+02  0.18185025946E+02 -0.42094575960E+02  0.48419225864E+02  0.00000000000E+00 0. -1.
        -14    1    3    3    0    0  0.76802548811E+02  0.60981587127E+02 -0.40306800722E+03  0.41482671553E+03  0.00000000000E+00 0.  1.
          5    1    4    4  501    0 -0.79874903823E+02 -0.11585083639E+03 -0.84737207627E-01  0.14077960127E+03  0.41800000000E+01 0.  1.
         -5    1    4    4    0  501  0.16854082026E+02  0.21443365500E+02  0.59997973762E+01  0.28237350680E+02  0.41800000000E+01 0.  1.
</event>
<event>
11    1  0.6930157E-009  0.1409276E+03  0.7561462E-02  0.1106527E+00
         22   -1    0    0    0    0  0.00000000000E+00  0.00000000000E+00  0.23588504760E+04  0.23588504760E+04  0.00000000000E+00 0.  1.
         22   -1    0    0    0    0 -0.00000000000E+00 -0.00000000000E+00 -0.72557123320E+02  0.72557123320E+02  0.00000000000E+00 0. -1.
        -24    2    1    2    0    0  0.19019878976E+02  0.17979426166E+02 -0.72047383749E+01  0.84407267709E+02  0.79922856716E+02 0.  0.
         25    2    1    2    0    0  0.38467052683E+02  0.14642174876E+02  0.14450968771E+03  0.19551066188E+03  0.12508901487E+03 0.  0.
         24    2    1    2    0    0 -0.57486931659E+02 -0.32621601042E+02  0.21489884033E+04  0.21514896697E+04  0.79923244735E+02 0.  0.
        -13    1    5    5    0    0 -0.36210082784E+02  0.16692246004E+02  0.14047971565E+04  0.14053628899E+04  0.00000000000E+00 0.  1.
         14    1    5    5    0    0 -0.21276848874E+02 -0.49313847046E+02  0.74419124676E+03  0.74612677982E+03  0.00000000000E+00 0. -1.
         11    1    3    3    0    0  0.30494054849E+02  0.41715248669E+02 -0.19612951259E+02  0.55269496195E+02  0.00000000000E+00 0. -1.
        -12    1    3    3    0    0 -0.11474175873E+02 -0.23735822503E+02  0.12408212884E+02  0.29137771514E+02  0.00000000000E+00 0.  1.
          5    1    4    4  501    0 -0.38835351674E+02  0.29251781328E+02  0.32732176302E+02  0.58759841865E+02  0.41800000000E+01 0. -1.
         -5    1    4    4    0  501  0.77302404357E+02 -0.14609606453E+02  0.11177751141E+03  0.13675082002E+03  0.41800000000E+01 0. -1.
</event>
<event>
11    1  0.6930157E-009  0.1679145E+03  0.7561462E-02  0.1079861E+00
         22   -1    0    0    0    0  0.00000000000E+00  0.00000000000E+00  0.45138276427E+03  0.45138276427E+03  0.00000000000E+00 0.  1.
         22   -1    0    0    0    0 -0.00000000000E+00 -0.00000000000E+00 -0.63897971913E+03  0.63897971913E+03  0.00000000000E+00 0. -1.
         24    2    1    2    0    0 -0.45131792154E+02 -0.33594151642E+02 -0.50111734247E+03  0.51057471804E+03  0.80015661522E+02 0.  0.
         25    2    1    2    0    0  0.14089774410E+03 -0.20290679685E+02 -0.47231453365E+02  0.19530057913E+03  0.12509044746E+03 0.  0.
        -24    2    1    2    0    0 -0.95765951947E+02  0.53884831327E+02  0.36075184097E+03  0.38448718623E+03  0.74925383001E+02 0.  0.
        -13    1    3    3    0    0 -0.17232949273E+02  0.26464922877E+02 -0.15807051010E+03  0.16119445663E+03  0.00000000000E+00 0.  1.
         14    1    3    3    0    0 -0.27898842881E+02 -0.60059074519E+02 -0.34304683237E+03  0.34938026141E+03  0.00000000000E+00 0. -1.
         13    1    5    5    0    0 -0.84294282309E+01  0.13303387337E+02  0.59304260127E+01  0.16828705465E+02  0.00000000000E+00 0. -1.
        -14    1    5    5    0    0 -0.87336523716E+02  0.40581443989E+02  0.35482141495E+03  0.36765848077E+03  0.00000000000E+00 0.  1.
          5    1    4    4  501    0  0.13057510251E+03 -0.44653252274E+01 -0.82851694796E+02  0.15476327812E+03  0.41800000000E+01 0.  1.
         -5    1    4    4    0  501  0.10322641589E+02 -0.15825354457E+02  0.35620241431E+02  0.40537301003E+02  0.41800000000E+01 0.  1.
</event>
<event>
11    1  0.6930157E-009  0.2811104E+03  0.7561462E-02  0.1008518E+00
         22   -1    0    0    0    0  0.00000000000E+00  0.00000000000E+00  0.21861833816E+04  0.21861833816E+04  0.00000000000E+00 0.  1.
         22   -1    0    0    0    0 -0.00000000000E+00 -0.00000000000E+00 -0.22063692758E+03  0.22063692758E+03  0.00000000000E+00 0. -1.
         24    2    1    2    0    0  0.47292356629E+02  0.88425995465E+01 -0.12707369413E+03  0.15718192924E+03  0.79016938554E+02 0.  0.
         25    2    1    2    0    0 -0.12983508178E+03  0.22801474490E+03  0.23602681005E+03  0.37443768861E+03  0.12508818984E+03 0.  0.
        -24    2    1    2    0    0  0.82542725151E+02 -0.23685734444E+03  0.18565933381E+04  0.18752006913E+04  0.80771941792E+02 0.  0.
        -11    1    3    3    0    0  0.35428584385E+02 -0.20426526876E+02 -0.19954345552E+02  0.45503884430E+02  0.00000000000E+00 0.  1.
         12    1    3    3    0    0  0.11863772244E+02  0.29269126423E+02 -0.10711934858E+03  0.11167804482E+03  0.00000000000E+00 0. -1.
         11    1    5    5    0    0  0.28641223175E+01 -0.10858165091E+03  0.62285025041E+03  0.63225043499E+03  0.00000000000E+00 0. -1.
        -12    1    5    5    0    0  0.79678602834E+02 -0.12827569354E+03  0.12337430876E+04  0.12429502563E+04  0.00000000000E+00 0.  1.
          5    1    4    4  501    0 -0.12411758321E+03  0.19605956269E+03  0.13555668271E+03  0.26877055867E+03  0.41800000000E+01 0. -1.
         -5    1    4    4    0  501 -0.57174985693E+01  0.31955182208E+02  0.10047012735E+03  0.10566712994E+03  0.41800000000E+01 0. -1.
</event>
<event>
11    1  0.6930157E-009  0.3595078E+03  0.7561462E-02  0.9777419E-01
         22   -1    0    0    0    0  0.00000000000E+00  0.00000000000E+00  0.14731347306E+04  0.14731347306E+04  0.00000000000E+00 0.  1.
         22   -1    0    0    0    0 -0.00000000000E+00 -0.00000000000E+00 -0.85322880879E+03  0.85322880879E+03  0.00000000000E+00 0.  1.
        -24    2    1    2    0    0 -0.10541199429E+03  0.31726388228E+03 -0.74585715968E+03  0.82122225839E+03  0.79592936163E+02 0.  0.
         25    2    1    2    0    0  0.10631430361E+03 -0.36539314239E+03  0.53003512083E+03  0.66437777817E+03  0.12508286517E+03 0.  0.
         24    2    1    2    0    0 -0.90230931856E+00  0.48129260114E+02  0.83572796070E+03  0.84076350286E+03  0.78261124498E+02 0.  0.
        -11    1    5    5    0    0  0.94640116614E+01  0.63838750082E+02  0.75986301619E+03  0.76259868666E+03  0.00000000000E+00 0.  1.
         12    1    5    5    0    0 -0.10366320980E+02 -0.15709489968E+02  0.75864944514E+02  0.78164816201E+02  0.00000000000E+00 0. -1.
         11    1    3    3    0    0 -0.54017623186E+02  0.10488051753E+03 -0.34591450446E+03  0.36547868743E+03  0.00000000000E+00 0. -1.
        -12    1    3    3    0    0 -0.51394371101E+02  0.21238336474E+03 -0.39994265522E+03  0.45574357095E+03  0.00000000000E+00 0.  1.
          5    1    4    4  501    0  0.11358838200E+03 -0.34118928545E+03  0.42728338691E+03  0.55848098818E+03  0.41800000000E+01 0. -1.
         -5    1    4    4    0  501 -0.72740783914E+01 -0.24203856944E+02  0.10275173392E+03  0.10589679000E+03  0.41800000000E+01 0. -1.
</event>
<event>
11    1  0.6930157E-009  0.1421201E+03  0.7561462E-02  0.1105214E+00
         22   -1    0    0    0    0  0.00000000000E+00  0.00000000000E+00  0.11695888124E+04  0.11695888124E+04  0.00000000000E+00 0. -1.
         22   -1    0    0    0    0 -0.00000000000E+00 -0.00000000000E+00 -0.12905861750E+04  0.12905861750E+04  0.00000000000E+00 0. -1.
        -24    2    1    2    0    0 -0.36170261187E+02 -0.39226996076E+02 -0.12590345099E+04  0.12626544199E+04  0.79254287267E+02 0.  0.
         25    2    1    2    0    0 -0.31768119301E+02  0.15314676779E+02  0.13043065988E+03  0.18412187163E+03  0.12507978993E+03 0.  0.
         24    2    1    2    0    0  0.67938380488E+02  0.23912319297E+02  0.10076064875E+04  0.10133986958E+04  0.80738222682E+02 0.  0.
        -13    1    5    5    0    0  0.23989157363E+02 -0.16107984441E+02  0.10700532287E+03  0.11083810697E+03  0.00000000000E+00 0.  1.
         14    1    5    5    0    0  0.43949223125E+02  0.40020303738E+02  0.90060116459E+03  0.90256058887E+03  0.00000000000E+00 0. -1.
         13    1    3    3    0    0 -0.59671960799E+02 -0.38232680123E+02 -0.85290623757E+03  0.85584550640E+03  0.00000000000E+00 0. -1.
        -14    1    3    3    0    0  0.23501699612E+02 -0.99431595223E+00 -0.40612827234E+03  0.40680891355E+03  0.00000000000E+00 0.  1.
          5    1    4    4  501    0 -0.78902120300E+02  0.21770956066E+02  0.76929207195E+02  0.11240593594E+03  0.41800000000E+01 0.  1.
         -5    1    4    4    0  501  0.47134000999E+02 -0.64562792878E+01  0.53501452686E+02  0.71715935690E+02  0.41800000000E+01 0.  1.
</event>
<event>
11    1  0.6930157E-009  0.1327680E+03  0.7561462E-02  0.1115914E+00
         22   -1    0    0    0    0  0.00000000000E+00  0.00000000000E+00  0.11089013053E+04  0.11089013053E+04  0.00000000000E+00 0. -1.
         22   -1    0    0    0    0 -0.00000000000E+00 -0.00000000000E+00 -0.52046241520E+02  0.52046241520E+02  0.00000000000E+00 0.  1.
        -24    2    1    2    0    0 -0.16750090892E+02  0.29756897809E+01  0.45404951559E+02  0.94213636619E+02  0.80778582708E+02 0.  0.
         25    2    1    2    0    0 -0.11411506786E+02 -0.38352645320E+02  0.14678741086E+03  0.19696611546E+03  0.12509180134E+03 0.  0.
         24    2    1    2    0    0  0.28161597678E+02  0.35376955539E+02  0.86466270136E+03  0.86976779474E+03  0.82521664273E+02 0.  0.
        -11    1    5    5    0    0  0.47670851032E+02  0.31832208351E+02  0.34520938301E+03  0.34993616224E+03  0.00000000000E+00 0.  1.
         12    1    5    5    0    0 -0.19509253354E+02  0.35447471874E+01  0.51945331835E+03  0.51983163249E+03  0.00000000000E+00 0. -1.
         11    1    3    3    0    0 -0.38433746956E+02  0.25561742737E+02  0.10525756946E+02  0.47342868060E+02  0.00000000000E+00 0. -1.
        -12    1    3    3    0    0  0.21683656065E+02 -0.22586052956E+02  0.34879194613E+02  0.46870768559E+02  0.00000000000E+00 0.  1.
          5    1    4    4  501    0 -0.12599573494E+02 -0.82871482451E+02  0.11373436450E+03  0.14134854058E+03  0.41800000000E+01 0.  1.
         -5    1    4    4    0  501  0.11880667079E+01  0.44518837131E+02  0.33053046358E+02  0.55617574880E+02  0.41800000000E+01 0.  1.
</event>
<event>
11    1  0.6930157E-009  0.1735816E+03  0.7561462E-02  0.1074956E+00
         22   -1    0    0    0    0  0.00000000000E+00  0.00000000000E+00  0.96814417762E+03  0.96814417762E+03  0.00000000000E+00 0. -1.
         22   -1    0    0    0    0 -0.00000000000E+00 -0.00000000000E+00 -0.56620813760E+03  0.56620813760E+03  0.00000000000E+00 0.  1.
         24    2    1    2    0    0 -0.30319374088E+02 -0.33059738989E+02 -0.51522704873E+03  0.52350141656E+03  0.81133289166E+02 0.  0.
         25    2    1    2    0    0  0.58867982174E+02  0.14415093170E+03  0.20787727118E+03  0.28827853570E+03  0.12508646545E+03 0.  0.
        -24    2    1    2    0    0 -0.28548608086E+02 -0.11109119271E+03  0.70928581757E+03  0.72257236296E+03  0.76603998533E+02 0.  0.
        -13    1    3    3    0    0 -0.53967179001E+02 -0.15128055156E+02 -0.42091551263E+03  0.42463064331E+03  0.00000000000E+00 0.  1.
         14    1    3    3    0    0  0.23647804914E+02 -0.17931683834E+02 -0.94311536096E+02  0.98870773251E+02  0.00000000000E+00 0. -1.
         11    1    5    5    0    0 -0.26658579217E+02 -0.50565753258E+02  0.15897130783E+03  0.16893623638E+03  0.00000000000E+00 0. -1.
        -12    1    5    5    0    0 -0.18900288689E+01 -0.60525439450E+02  0.55031450974E+03  0.55363612658E+03  0.00000000000E+00 0.  1.
          5    1    4    4  501    0  0.58981468415E+02  0.28155386649E+02  0.13811696552E+03  0.15285714893E+03  0.41800000000E+01 0. -1.
         -5    1    4    4    0  501 -0.11348624143E+00  0.11599554505E+03  0.69760305660E+02  0.13542138677E+03  0.41800000000E+01 0. -1.
</event>
<event>
11    1  0.6930157E-009  0.1445425E+03  0.7561462E-02  0.1102589E+00
         22   -1    0    0    0    0  0.00000000000E+00  0.00000000000E+00  0.27187910135E+03  0.27187910135E+03  0.00000000000E+00 0. -1.
         22   -1    0    0    0    0 -0.00000000000E+00 -0.00000000000E+00 -0.47872424346E+03  0.47872424346E+03  0.00000000000E+00 0. -1.
         24    2    1    2    0    0 -0.22621939801E+02  0.11196253181E+02 -0.29888225305E+03  0.31057482785E+03  0.80554417992E+02 0.  0.
         25    2    1    2    0    0  0.83940764505E+02  0.25445198760E+02 -0.12527655692E+03  0.19756812162E+03  0.12508172082E+03 0.  0.
        -24    2    1    2    0    0 -0.61318824704E+02 -0.36641451941E+02  0.21731366786E+03  0.24246039533E+03  0.80369265288E+02 0.  0.
        -13    1    3    3    0    0 -0.15511523487E+02 -0.34680521417E+02 -0.13400947484E+03  0.13929065035E+03  0.00000000000E+00 0.  1.
         14    1    3    3    0    0 -0.71104163133E+01  0.45876774598E+02 -0.16487277821E+03  0.17128417750E+03  0.00000000000E+00 0. -1.
         11    1    5    5    0    0 -0.51918660182E+02 -0.14488873413E+02  0.21072566245E+03  0.21751041249E+03  0.00000000000E+00 0. -1.
        -12    1    5    5    0    0 -0.94001645221E+01 -0.22152578528E+02  0.65880054113E+01  0.24949982842E+02  0.00000000000E+00 0.  1.
          5    1    4    4  501    0  0.11105962740E+03  0.48810531550E+01 -0.66745306143E+02  0.12973231598E+03  0.41800000000E+01 0.  1.
         -5    1    4    4    0  501 -0.27118862897E+02  0.20564145605E+02 -0.58531250778E+02  0.67835805641E+02  0.41800000000E+01 0.  1.
</event>
<event>
11    1  0.6930157E-009  0.1427904E+03  0.7561462E-02  0.1104482E+00
         22   -1    0    0    0    0  0.00000000000E+00  0.00000000000E+00  0.29123622258E+03  0.29123622258E+03  0.00000000000E+00 0. -1.
         22   -1    0    0    0    0 -0.00000000000E+00 -0.00000000000E+00 -0.62321582046E+03  0.62321582046E+03  0.00000000000E+00 0.  1.
         24    2    1    2    0    0 -0.20970739988E+02  0.12967687127E+02 -0.50389613067E+03  0.51107435978E+03  0.81717549382E+02 0.  0.
         25    2    1    2    0    0  0.61938747846E+02  0.42055163955E+02 -0.52848333096E+02  0.15506540316E+03  0.12508911882E+03 0.  0.
        -24    2    1    2    0    0 -0.40968007859E+02 -0.55022851082E+02  0.22476486588E+03  0.24831228009E+03  0.80211294078E+02 0.  0.
        -11    1    3    3    0    0 -0.44903220236E+02  0.28587959161E+02 -0.25190893287E+03  0.25747170923E+03  0.00000000000E+00 0.  1.
         12    1    3    3    0    0  0.23932480248E+02 -0.15620272034E+02 -0.25198719780E+03  0.25360265055E+03  0.00000000000E+00 0. -1.
         11    1    5    5    0    0  0.54524859297E+01  0.11451120899E+02  0.91106224398E+02  0.91984791660E+02  0.00000000000E+00 0. -1.
        -12    1    5    5    0    0 -0.46420493788E+02 -0.66473971981E+02  0.13365864149E+03  0.15632748843E+03  0.00000000000E+00 0.  1.
          5    1    4    4  501    0  0.39155741704E+02  0.91659958370E+01  0.38139703758E+02  0.55581444663E+02  0.41800000000E+01 0. -1.
         -5    1    4    4    0  501  0.22783006143E+02  0.32889168118E+02 -0.90988036854E+02  0.99483958501E+02  0.41800000000E+01 0. -1.
</event>
<event>
11    1  0.6930157E-009  0.1877959E+03  0.7561462E-02  0.1063506E+00
         22   -1    0    0    0    0  0.00000000000E+00  0.00000000000E+00  0.11505345484E+03  0.11505345484E+03  0.00000000000E+00 0. -1.
         22   -1    0    0    0    0 -0.00000000000E+00 -0.00000000000E+00 -0.11311273548E+04  0.11311273548E+04  0.00000000000E+00 0.  1.
        -24    2    1    2    0    0  0.94814194109E+02  0.10377639799E+03 -0.87876635683E+03  0.89436541512E+03  0.88881458616E+02 0.  0.
         25    2    1    2    0    0 -0.46295366535E+02 -0.14082859136E+03 -0.15609665235E+03  0.24897842058E+03  0.12509250950E+03 0.  0.
         24    2    1    2    0    0 -0.48518827574E+02  0.37052193373E+02  0.18789109197E+02  0.10283697397E+03  0.80594484474E+02 0.  0.
        -13    1    5    5    0    0 -0.10225119599E+02 -0.19216573518E+02 -0.15405019569E+02  0.26667290760E+02  0.00000000000E+00 0.  1.
         14    1    5    5    0    0 -0.38293707976E+02  0.56268766891E+02  0.34194128766E+02  0.76169683208E+02  0.00000000000E+00 0. -1.
         11    1    3    3    0    0  0.24713989287E+02 -0.27035988339E+01 -0.49875899748E+02  0.55728772540E+02  0.00000000000E+00 0. -1.
        -12    1    3    3    0    0  0.70100204822E+02  0.10647999682E+03 -0.82889045709E+03  0.83863664259E+03  0.00000000000E+00 0.  1.
          5    1    4    4  501    0 -0.70285157172E+01 -0.14154267739E+03 -0.15414904728E+03  0.20943526621E+03  0.41800000000E+01 0.  1.
         -5    1    4    4    0  501 -0.39266850817E+02  0.71408603527E+00 -0.19476050774E+01  0.39543154370E+02  0.41800000000E+01 0.  1.
</event>
<event>
11    1  0.6930157E-009  0.2034457E+03  0.7561462E-02  0.1052113E+00
         22   -1    0    0    0    0  0.00000000000E+00  0.00000000000E+00  0.19418187511E+03  0.19418187511E+03  0.00000000000E+00 0. -1.
         22   -1    0    0    0    0 -0.00000000000E+00 -0.00000000000E+00 -0.11728324450E+04  0.11728324450E+04  0.00000000000E+00 0.  1.
         24    2    1    2    0    0  0.48639385068E+02 -0.43880392584E+02 -0.80690248774E+03  0.81392210627E+03  0.84180114755E+02 0.  0.
         25    2    1    2    0    0  0.49771749330E+02  0.16941924900E+03 -0.27233416928E+03  0.34784104657E+03  0.12508950778E+03 0.  0.
        -24    2    1    2    0    0 -0.98411134398E+02 -0.12553885642E+03  0.10058608718E+03  0.20525116722E+03  0.81029160609E+02 0.  0.
        -11    1    3    3    0    0  0.22222701238E+02 -0.67120578339E+02 -0.58306657728E+03  0.58733776826E+03  0.00000000000E+00 0.  1.
         12    1    3    3    0    0  0.26416683830E+02  0.23240185755E+02 -0.22383591047E+03  0.22658433801E+03  0.00000000000E+00 0. -1.
         11    1    5    5    0    0 -0.21050829275E+02 -0.59176557085E+02  0.79243198210E+02  0.10111620436E+03  0.00000000000E+00 0. -1.
        -12    1    5    5    0    0 -0.77360305123E+02 -0.66362299332E+02  0.21342888971E+02  0.10413496287E+03  0.00000000000E+00 0.  1.
          5    1    4    4  501    0  0.61934826274E+02  0.26875514691E+02 -0.12684660070E+03  0.14375586425E+03  0.41800000000E+01 0. -1.
         -5    1    4    4    0  501 -0.12163076944E+02  0.14254373431E+03 -0.14548756857E+03  0.20408518232E+03  0.41800000000E+01 0. -1.
</event>
<event>
11    1  0.6930157E-009  0.1416128E+03  0.7561462E-02  0.1105771E+00
         22   -1    0    0    0    0  0.00000000000E+00  0.00000000000E+00  0.46037021761E+02  0.46037021761E+02  0.00000000000E+00 0.  1.
         22   -1    0    0    0    0 -0.00000000000E+00 -0.00000000000E+00 -0.12347671665E+04  0.12347671665E+04  0.00000000000E+00 0. -1.
        -24    2    1    2    0    0  0.16780954215E+02 -0.25581775620E+02 -0.61408135744E+03  0.62045209913E+03  0.83239810717E+02 0.  0.
         25    2    1    2    0    0 -0.37377543306E+02 -0.40088207658E+02 -0.52601311292E+03  0.54346318115E+03  0.12513308581E+03 0.  0.
         24    2    1    2    0    0  0.20596589090E+02  0.65669983279E+02 -0.48635674381E+02  0.11688890799E+03  0.80998900003E+02 0.  0.
        -11    1    5    5    0    0  0.40523859817E+02  0.74234092443E+02 -0.37664387280E+02  0.92582340457E+02  0.00000000000E+00 0.  1.
         12    1    5    5    0    0 -0.19927270727E+02 -0.85641091645E+01 -0.10971287101E+02  0.24306567529E+02  0.00000000000E+00 0. -1.
         13    1    3    3    0    0  0.44067367905E+02 -0.35401241396E+02 -0.47695448128E+03  0.48029236723E+03  0.00000000000E+00 0. -1.
        -14    1    3    3    0    0 -0.27286413690E+02  0.98194657752E+01 -0.13712687616E+03  0.14015973189E+03  0.00000000000E+00 0.  1.
          5    1    4    4  501    0 -0.65461446802E+02  0.20276983961E+02 -0.23014108896E+03  0.24016400714E+03  0.41800000000E+01 0.  1.
         -5    1    4    4    0  501  0.28083903496E+02 -0.60365191619E+02 -0.29587202396E+03  0.30329917401E+03  0.41800000000E+01 0.  1.
</event>
<event>
11    1  0.6930157E-009  0.1912265E+03  0.7561462E-02  0.1060907E+00
         22   -1    0    0    0    0  0.00000000000E+00  0.00000000000E+00  0.17896681532E+03  0.17896681532E+03  0.00000000000E+00 0.  1.
         22   -1    0    0    0    0 -0.00000000000E+00 -0.00000000000E+00 -0.22043920354E+04  0.22043920354E+04  0.00000000000E+00 0. -1.
         24    2    1    2    0    0  0.23343574756E+02 -0.81854739970E+01 -0.17105860228E+04  0.17126671556E+04  0.80698947507E+02 0.  0.
         25    2    1    2    0    0 -0.68418368309E+02 -0.12928264555E+03 -0.42777831173E+03  0.46907984307E+03  0.12508612880E+03 0.  0.
        -24    2    1    2    0    0  0.45074793552E+02  0.13746811955E+03  0.11293911443E+03  0.20161185204E+03  0.83443839863E+02 0.  0.
        -11    1    3    3    0    0  0.97194139673E+01 -0.24710203138E+02 -0.18158441334E+03  0.18351555878E+03  0.00000000000E+00 0.  1.
         12    1    3    3    0    0  0.13624160789E+02  0.16524729141E+02 -0.15290016094E+04  0.15291515968E+04  0.00000000000E+00 0. -1.
         11    1    5    5    0    0  0.27494689340E+02  0.30847996122E+02 -0.50348639476E+01  0.41628195513E+02  0.00000000000E+00 0. -1.
        -12    1    5    5    0    0  0.17580104212E+02  0.10662012342E+03  0.11797397838E+03  0.15998365653E+03  0.00000000000E+00 0.  1.
          5    1    4    4  501    0  0.11965317648E+02 -0.10647245762E+03 -0.26958740484E+03  0.29012823769E+03  0.41800000000E+01 0. -1.
         -5    1    4    4    0  501 -0.80383685957E+02 -0.22810187923E+02 -0.15819090689E+03  0.17895160537E+03  0.41800000000E+01 0. -1.
</event>
<event>
11    1  0.6930157E-009  0.2330388E+03  0.7561462E-02  0.1033344E+00
         22   -1    0    0    0    0  0.00000000000E+00  0.00000000000E+00  0.21713601472E+03  0.21713601472E+03  0.00000000000E+00 0.  1.
         22   -1    0    0    0    0 -0.00000000000E+00 -0.00000000000E+00 -0.16701900596E+04  0.16701900596E+04  0.00000000000E+00 0. -1.
        -24    2    1    2    0    0 -0.19128766825E+03  0.61599108154E+02 -0.14050765015E+04  0.14222550844E+04  0.90466170899E+02 0.  0.
         25    2    1    2    0    0  0.19028895804E+03  0.95106164013E+02 -0.12015758454E+03  0.27448176402E+03  0.12508926281E+03 0.  0.
         24    2    1    2    0    0  0.99871020683E+00 -0.15670527217E+03  0.72180041074E+02  0.19058922591E+03  0.80973791786E+02 0.  0.
        -11    1    5    5    0    0 -0.13491854349E+02 -0.94307673557E+02  0.82105492536E+02  0.12576676560E+03  0.00000000000E+00 0.  1.
         12    1    5    5    0    0  0.14490564556E+02 -0.62397598610E+02 -0.99254514624E+01  0.64822460307E+02  0.00000000000E+00 0. -1.
         13    1    3    3    0    0 -0.14804561197E+03  0.37689484402E+02 -0.12547585953E+04  0.12640241821E+04  0.00000000000E+00 0. -1.
        -14    1    3    3    0    0 -0.43242056283E+02  0.23909623752E+02 -0.15031790620E+03  0.15823090237E+03  0.00000000000E+00 0.  1.
          5    1    4    4  501    0  0.12756529727E+03  0.98920166679E+02 -0.29587496131E+02  0.16416758745E+03  0.41800000000E+01 0. -1.
         -5    1    4    4    0  501  0.62723660777E+02 -0.38140026660E+01 -0.90570088408E+02  0.11031417657E+03  0.41800000000E+01 0. -1.
</event>
<event>
11    1  0.6930157E-009  0.1410329E+03  0.7561462E-02  0.1106410E+00
         22   -1    0    0    0    0  0.00000000000E+00  0.00000000000E+00  0.38943990376E+02  0.38943990376E+02  0.00000000000E+00 0. -1.
         22   -1    0    0    0    0 -0.00000000000E+00 -0.00000000000E+00 -0.18571699625E+04  0.18571699625E+04  0.00000000000E+00 0.  1.
        -24    2    1    2    0    0 -0.88999700734E+01 -0.21881349952E+01 -0.61063199878E+03  0.61646168948E+03  0.84080790098E+02 0.  0.
         25    2    1    2    0    0  0.13721102896E+02 -0.62866179698E+02 -0.11562806589E+04  0.11648061090E+04  0.12509150328E+03 0.  0.
         24    2    1    2    0    0 -0.48211328230E+01  0.65054314693E+02 -0.51313314408E+02  0.11484615436E+03  0.79380575424E+02 0.  0.
        -11    1    5    5    0    0  0.32566103856E+02  0.39509382179E+02 -0.46754747406E+02  0.69336489711E+02  0.00000000000E+00 0.  1.
         12    1    5    5    0    0 -0.37387236679E+02  0.25544932514E+02 -0.45585670025E+01  0.45509664652E+02  0.00000000000E+00 0. -1.
         13    1    3    3    0    0 -0.12655909898E+02 -0.15933968053E+02 -0.33791869353E+02  0.39445580585E+02  0.00000000000E+00 0. -1.
        -14    1    3    3    0    0  0.37559398250E+01  0.13745833058E+02 -0.57684012943E+03  0.57701610890E+03  0.00000000000E+00 0.  1.
          5    1    4    4  501    0  0.33857114665E+02 -0.95265618766E+02 -0.76904412049E+03  0.77567272351E+03  0.41800000000E+01 0. -1.
         -5    1    4    4    0  501 -0.20136011769E+02  0.32399439068E+02 -0.38723653840E+03  0.38913338548E+03  0.41800000000E+01 0. -1.
</event>
<event>
11    1  0.6930157E-009  0.1779794E+03  0.7561462E-02  0.1071289E+00
         22   -1    0    0    0    0  0.00000000000E+00  0.00000000000E+00  0.24517558992E+03  0.24517558992E+03  0.00000000000E+00 0. -1.
         22   -1    0    0    0    0 -0.00000000000E+00 -0.00000000000E+00 -0.53114747561E+03  0.53114747561E+03  0.00000000000E+00 0. -1.
         24    2    1    2    0    0  0.31215543987E+02 -0.53316462776E+02 -0.17999374234E+03  0.20666251676E+03  0.80589038728E+02 0.  0.
         25    2    1    2    0    0 -0.35259041922E+02 -0.77490332719E+02 -0.29164065790E+03  0.32855781560E+03  0.12509201874E+03 0.  0.
        -24    2    1    2    0    0  0.40434979348E+01  0.13080679549E+03  0.18566251456E+03  0.24110273317E+03  0.80828157256E+02 0.  0.
        -13    1    3    3    0    0 -0.21926469335E+02 -0.22903730236E+02 -0.26210010913E+02  0.41137763530E+02  0.00000000000E+00 0.  1.
         14    1    3    3    0    0  0.53142013322E+02 -0.30412732540E+02 -0.15378373143E+03  0.16552475323E+03  0.00000000000E+00 0. -1.
         13    1    5    5    0    0 -0.13485863409E+02  0.12291078170E+03  0.18415878936E+03  0.22181836819E+03  0.00000000000E+00 0. -1.
        -14    1    5    5    0    0  0.17529361344E+02  0.78960137925E+01  0.15037252000E+01  0.19284364973E+02  0.00000000000E+00 0.  1.
          5    1    4    4  501    0 -0.74665509302E+02 -0.52957574898E+02 -0.12169465981E+03  0.15233681644E+03  0.41800000000E+01 0.  1.
         -5    1    4    4    0  501  0.39406467380E+02 -0.24532757820E+02 -0.16994599809E+03  0.17622099916E+03  0.41800000000E+01 0.  1.
</event>
<event>
11    1  0.6930157E-009  0.1455966E+03  0.7561462E-02  0.1101465E+00
         22   -1    0    0    0    0  0.00000000000E+00  0.00000000000E+00  0.12885337663E+04  0.12885337663E+04  0.00000000000E+00 0. -1.
         22   -1    0    0    0    0 -0.00000000000E+00 -0.00000000000E+00 -0.47438218296E+03  0.47438218296E+03  0.00000000000E+00 0. -1.
         24    2    1    2    0    0  0.51809239022E+02 -0.13406059916E+02 -0.44535728056E+03  0.45580764912E+03  0.80954221335E+02 0.  0.
         25    2    1    2    0    0 -0.11963778902E+03  0.76632251753E+01  0.34031247855E+03  0.38187956905E+03  0.12508995412E+03 0.  0.
        -24    2    1    2    0    0  0.67828549994E+02  0.57428347407E+01  0.91919638539E+03  0.92522873114E+03  0.80576160562E+02 0.  0.
        -13    1    3    3    0    0  0.35910200622E+02  0.26987040763E+02 -0.13145807100E+03  0.13892108302E+03  0.00000000000E+00 0.  1.
         14    1    3    3    0    0  0.15899038399E+02 -0.40393100679E+02 -0.31389920957E+03  0.31688656609E+03  0.00000000000E+00 0. -1.
         11    1    5    5    0    0  0.78128175175E+02 -0.75358385720E+01  0.54154216396E+03  0.54720080041E+03  0.00000000000E+00 0. -1.
        -12    1    5    5    0    0 -0.10299625181E+02  0.13278673313E+02  0.37765422144E+03  0.37802793073E+03  0.00000000000E+00 0.  1.
          5    1    4    4  501    0 -0.34617130969E+02 -0.15242434544E+02  0.90868176920E+01  0.39124419780E+02  0.41800000000E+01 0.  1.
         -5    1    4    4    0  501 -0.85020658047E+02  0.22905659720E+02  0.33122566086E+03  0.34275514927E+03  0.41800000000E+01 0.  1.
</event>
<event>
11    1  0.6930157E-009  0.1588539E+03  0.7561462E-02  0.1088160E+00
         22   -1    0    0    0    0  0.00000000000E+00  0.00000000000E+00  0.38302954199E+03  0.38302954199E+03  0.00000000000E+00 0. -1.
         22   -1    0    0    0    0 -0.00000000000E+00 -0.00000000000E+00 -0.73151514187E+03  0.73151514187E+03  0.00000000000E+00 0.  1.
        -24    2    1    2    0    0 -0.10135292406E+02 -0.22277814097E+02 -0.66065605699E+03  0.66594669793E+03  0.80122117358E+02 0.  0.
         25    2    1    2    0    0  0.89069784511E+02 -0.37465304751E+02  0.66286073578E+02  0.17139938365E+03  0.12508728789E+03 0.  0.
         24    2    1    2    0    0 -0.78934492105E+02  0.59743118848E+02  0.24588438354E+03  0.27719860228E+03  0.81117450307E+02 0.  0.
        -13    1    5    5    0    0  0.14112264965E+02  0.13797382074E+02  0.72441725232E+02  0.75082137218E+02  0.00000000000E+00 0.  1.
         14    1    5    5    0    0 -0.93046757070E+02  0.45945736775E+02  0.17344265831E+03  0.20211646506E+03  0.00000000000E+00 0. -1.
         11    1    3    3    0    0 -0.44632968978E+02 -0.54796730662E+01 -0.32228021422E+03  0.32540231286E+03  0.00000000000E+00 0. -1.
        -12    1    3    3    0    0  0.34497676572E+02 -0.16798141031E+02 -0.33837584277E+03  0.34054438507E+03  0.00000000000E+00 0.  1.
          5    1    4    4  501    0  0.34110288270E+02 -0.46756990503E+02  0.92866612544E+02  0.10950528778E+03  0.41800000000E+01 0. -1.
         -5    1    4    4    0  501  0.54959496242E+02  0.92916857518E+01 -0.26580538966E+02  0.61894095865E+02  0.41800000000E+01 0. -1.
</event>
<event>
11    1  0.6930157E-009  0.1500848E+03  0.7561462E-02  0.1096792E+00
         22   -1    0    0    0    0  0.00000000000E+00  0.00000000000E+00  0.50353967605E+03  0.50353967605E+03  0.00000000000E+00 0. -1.
         22   -1    0    0    0    0 -0.00000000000E+00 -0.00000000000E+00 -0.42774670891E+03  0.42774670891E+03  0.00000000000E+00 0. -1.
        -24    2    1    2    0    0 -0.84105814265E+02  0.34334448909E+02 -0.37759050894E+03  0.39661026011E+03  0.80451622770E+02 0.  0.
         25    2    1    2    0    0  0.45435268923E+02  0.60644373711E+02  0.18011325813E+03  0.23200059032E+03  0.12506552054E+03 0.  0.
         24    2    1    2    0    0  0.38670545342E+02 -0.94978822620E+02  0.27327021794E+03  0.30267553453E+03  0.80121653543E+02 0.  0.
        -11    1    5    5    0    0 -0.10436744526E+02 -0.61818469433E+01  0.10702888415E+01  0.12177289769E+02  0.00000000000E+00 0.  1.
         12    1    5    5    0    0  0.49107289868E+02 -0.88796975677E+02  0.27219992910E+03  0.29049824476E+03  0.00000000000E+00 0. -1.
         11    1    3    3    0    0 -0.37372956150E+02 -0.81338208582E+00 -0.28261794332E+03  0.28507946494E+03  0.00000000000E+00 0. -1.
        -12    1    3    3    0    0 -0.46732858115E+02  0.35147830994E+02 -0.94972565618E+02  0.11153079517E+03  0.00000000000E+00 0.  1.
          5    1    4    4  501    0  0.29957331708E+02 -0.30625275761E+02  0.10233262027E+03  0.11101705640E+03  0.41800000000E+01 0. -1.
         -5    1    4    4    0  501  0.15477937215E+02  0.91269649472E+02  0.77780637858E+02  0.12098353392E+03  0.41800000000E+01 0. -1.
</event>
<event>
11    1  0.6930157E-009  0.1352687E+03  0.7561462E-02  0.1112960E+00
         22   -1    0    0    0    0  0.00000000000E+00  0.00000000000E+00  0.31332172374E+03  0.31332172374E+03  0.00000000000E+00 0.  1.
         22   -1    0    0    0    0 -0.00000000000E+00 -0.00000000000E+00 -0.26848212179E+03  0.26848212179E+03  0.00000000000E+00 0.  1.
        -24    2    1    2    0    0 -0.47124618702E+02  0.16003397906E+02 -0.19122888250E+03  0.21396580055E+03  0.82073381010E+02 0.  0.
         25    2    1    2    0    0  0.63675422954E+02 -0.12104709554E+02  0.26657120271E+02  0.14338476211E+03  0.12508998546E+03 0.  0.
         24    2    1    2    0    0 -0.16550804252E+02 -0.38986883521E+01  0.20941136419E+03  0.22445328287E+03  0.78974855784E+02 0.  0.
        -11    1    5    5    0    0 -0.30253715469E+02 -0.34682102048E+02  0.13843061169E+03  0.14588066958E+03  0.00000000000E+00 0.  1.
         12    1    5    5    0    0  0.13702911217E+02  0.30783413696E+02  0.70980752496E+02  0.78572613291E+02  0.00000000000E+00 0. -1.
         13    1    3    3    0    0 -0.50681780576E+02 -0.19246598865E+02 -0.75588357681E+02  0.93019752027E+02  0.00000000000E+00 0. -1.
        -14    1    3    3    0    0  0.35571618739E+01  0.35249996771E+02 -0.11564052482E+03  0.12094604853E+03  0.00000000000E+00 0.  1.
          5    1    4    4  501    0  0.36664491562E+01 -0.58643022611E+02 -0.86433378542E+01  0.59536767125E+02  0.41800000000E+01 0. -1.
         -5    1    4    4    0  501  0.60008973798E+02  0.46538313058E+02  0.35300458125E+02  0.83847994982E+02  0.41800000000E+01 0. -1.
</event>
<event>
11    1  0.6930157E-009  0.1735702E+03  0.7561462E-02  0.1074966E+00
         22   -1    0    0    0    0  0.00000000000E+00  0.00000000000E+00  0.28434400537E+04  0.28434400537E+04  0.00000000000E+00 0.  1.
         22   -1    0    0    0    0 -0.00000000000E+00 -0.00000000000E+00 -0.17452684809E+03  0.17452684809E+03  0.00000000000E+00 0. -1.
        -24    2    1    2    0    0 -0.12294043167E+02  0.10239176616E+02 -0.14275431587E+03  0.16426239473E+03  0.79670291746E+02 0.  0.
         25    2    1    2    0    0  0.67969141727E+02 -0.11520374559E+03  0.42540657138E+03  0.46315217986E+03  0.12508990170E+03 0.  0.
         24    2    1    2    0    0 -0.55675098560E+02  0.10496456898E+03  0.23862609501E+04  0.23905523272E+04  0.79886355441E+02 0.  0.
        -11    1    5    5    0    0 -0.36246447561E+01  0.52710099800E+02  0.15914143801E+04  0.15922911863E+04  0.00000000000E+00 0.  1.
         12    1    5    5    0    0 -0.52050453804E+02  0.52254469178E+02  0.79484656995E+03  0.79826114089E+03  0.00000000000E+00 0. -1.
         11    1    3    3    0    0  0.68273469239E+01  0.38278333477E+02 -0.38888267067E+02  0.54992188494E+02  0.00000000000E+00 0. -1.
        -12    1    3    3    0    0 -0.19121390091E+02 -0.28039156861E+02 -0.10386604880E+03  0.10927020623E+03  0.00000000000E+00 0.  1.
          5    1    4    4  501    0 -0.95474043427E+01 -0.15746024791E+02  0.22858831249E+03  0.22936690963E+03  0.41800000000E+01 0. -1.
         -5    1    4    4    0  501  0.77516546070E+02 -0.99457720802E+02  0.19681825889E+03  0.23378527022E+03  0.41800000000E+01 0. -1.
</event>
<event>
11    1  0.6930157E-009  0.1661801E+03  0.7561462E-02  0.1081405E+00
         22   -1    0    0    0    0  0.00000000000E+00  0.00000000000E+00  0.75263947374E+03  0.75263947374E+03  0.00000000000E+00 0. -1.
         22   -1    0    0    0    0 -0.00000000000E+00 -0.00000000000E+00 -0.11585510952E+04  0.11585510952E+04  0.00000000000E+00 0.  1.
         24    2    1    2    0    0 -0.96371580920E+02 -0.51015846893E+02 -0.10882880644E+04  0.10968034532E+04  0.81956120664E+02 0.  0.
         25    2    1    2    0    0  0.10336144879E+03  0.59738613753E+02  0.54436134122E+02  0.18128196831E+03  0.12509024049E+03 0.  0.
        -24    2    1    2    0    0 -0.69898678719E+01 -0.87227668596E+01  0.62794030879E+03  0.63310514741E+03  0.79925911636E+02 0.  0.
        -11    1    3    3    0    0 -0.45705814153E+02 -0.67423150491E+02 -0.73958168471E+03  0.74405374203E+03  0.00000000000E+00 0.  1.
         12    1    3    3    0    0 -0.50665766767E+02  0.16407303598E+02 -0.34870637965E+03  0.35274971118E+03  0.00000000000E+00 0. -1.
         11    1    5    5    0    0  0.10277112192E+02  0.33421398532E+02  0.29464290469E+03  0.29671038101E+03  0.00000000000E+00 0. -1.
        -12    1    5    5    0    0 -0.17266980064E+02 -0.42144165392E+02  0.33329740410E+03  0.33639476639E+03  0.00000000000E+00 0.  1.
          5    1    4    4  501    0  0.42597143883E+02  0.47011755755E+02  0.89558143107E+02  0.10983057517E+03  0.41800000000E+01 0.  1.
         -5    1    4    4    0  501  0.60764304909E+02  0.12726857998E+02 -0.35122008986E+02  0.71451393133E+02  0.41800000000E+01 0.  1.
</event>
<event>
11    1  0.6930157E-009  0.1431405E+03  0.7561462E-02  0.1104101E+00
         22   -1    0    0    0    0  0.00000000000E+00  0.00000000000E+00  0.50719378648E+03  0.50719378648E+03  0.00000000000E+00 0. -1.
         22   -1    0    0    0    0 -0.00000000000E+00 -0.00000000000E+00 -0.11544352425E+04  0.11544352425E+04  0.00000000000E+00 0. -1.
         24    2    1    2    0    0  0.63972382834E+02 -0.23737392722E+02 -0.10392163813E+04  0.10446759778E+04  0.81983424780E+02 0.  0.
         25    2    1    2    0    0 -0.86915429394E+02  0.50836169007E+02 -0.48760774826E+02  0.16781521212E+03  0.12508286978E+03 0.  0.
        -24    2    1    2    0    0  0.22943046560E+02 -0.27098776284E+02  0.44073570005E+03  0.44913783907E+03  0.78842337108E+02 0.  0.
        -11    1    3    3    0    0  0.58065336609E+02 -0.23030553755E+01 -0.32771466933E+03  0.33282696987E+03  0.00000000000E+00 0.  1.
         12    1    3    3    0    0  0.59070462255E+01 -0.21434337347E+02 -0.71150171194E+03  0.71184900794E+03  0.00000000000E+00 0. -1.
         11    1    5    5    0    0  0.48149068378E+02  0.10649591809E+01  0.27084929828E+03  0.27509781770E+03  0.00000000000E+00 0. -1.
        -12    1    5    5    0    0 -0.25206021817E+02 -0.28163735465E+02  0.16988640177E+03  0.17404002137E+03  0.00000000000E+00 0.  1.
          5    1    4    4  501    0 -0.42394586881E+02  0.63667172385E+01 -0.84848472033E+02  0.95155513196E+02  0.41800000000E+01 0.  1.
         -5    1    4    4    0  501 -0.44520842514E+02  0.44469451768E+02  0.36087697208E+02  0.72659698929E+02  0.41800000000E+01 0.  1.
</event>
<event>
11    1  0.6930157E-009  0.1312795E+03  0.7561462E-02  0.1117707E+00
         22   -1    0    0    0    0  0.00000000000E+00  0.00000000000E+00  0.62236862432E+03  0.62236862432E+03  0.00000000000E+00 0. -1.
         22   -1    0    0    0    0 -0.00000000000E+00 -0.00000000000E+00 -0.15286147125E+03  0.15286147125E+03  0.00000000000E+00 0. -1.
        -24    2    1    2    0    0  0.32568343592E+02 -0.17238475120E+02 -0.81214008564E+02  0.11949568342E+03  0.79533899310E+02 0.  0.
         25    2    1    2    0    0 -0.60491457154E+02  0.16433333276E+00  0.48918004353E+02  0.14730682200E+03  0.12508830986E+03 0.  0.
         24    2    1    2    0    0  0.27923113562E+02  0.17074141787E+02  0.50180315729E+03  0.50842759016E+03  0.74973189752E+02 0.  0.
        -11    1    5    5    0    0 -0.17266312074E+02  0.29917705977E+01  0.34134794203E+02  0.38370045598E+02  0.00000000000E+00 0.  1.
         12    1    5    5    0    0  0.45189425636E+02  0.14082371189E+02  0.46766836308E+03  0.47005754456E+03  0.00000000000E+00 0. -1.
         11    1    3    3    0    0  0.19093734428E+02 -0.15587920150E+02 -0.96181044061E+02  0.99289209815E+02  0.00000000000E+00 0. -1.
        -12    1    3    3    0    0  0.13474609164E+02 -0.16505549694E+01  0.14967035498E+02  0.20206473602E+02  0.00000000000E+00 0.  1.
          5    1    4    4  501    0  0.38574130615E+02  0.70844374634E+01  0.16567629672E+02  0.42779803176E+02  0.41800000000E+01 0.  1.
         -5    1    4    4    0  501 -0.99065587769E+02 -0.69201041307E+01  0.32350374682E+02  0.10452701882E+03  0.41800000000E+01 0.  1.
</event>
<event>
11    1  0.6930157E-009  0.1416773E+03  0.7561462E-02  0.1105700E+00
         22   -1    0    0    0    0  0.00000000000E+00  0.00000000000E+00  0.13948900439E+03  0.13948900439E+03  0.00000000000E+00 0.  1.
         22   -1    0    0    0    0 -0.00000000000E+00 -0.00000000000E+00 -0.10542066427E+04  0.10542066427E+04  0.00000000000E+00 0. -1.
         24    2    1    2    0    0  0.67251668902E+02 -0.91069023188E+00 -0.83569121757E+03  0.84210506429E+03  0.78977920037E+02 0.  0.
         25    2    1    2    0    0 -0.60768028526E+02 -0.15894734184E+02 -0.17545745258E+03  0.22445422566E+03  0.12509590675E+03 0.  0.
        -24    2    1    2    0    0 -0.64836403759E+01  0.16805424416E+02  0.96431031795E+02  0.12713635718E+03  0.80871809311E+02 0.  0.
        -11    1    3    3    0    0  0.29452231046E+02 -0.30936239233E+02 -0.19626554536E+03  0.20085977474E+03  0.00000000000E+00 0.  1.
         12    1    3    3    0    0  0.37799437856E+02  0.30025549001E+02 -0.63942567220E+03  0.64124528955E+03  0.00000000000E+00 0. -1.
         13    1    5    5    0    0 -0.15168700054E+02  0.31115134787E+02  0.59540435100E+01  0.35123947789E+02  0.00000000000E+00 0. -1.
        -14    1    5    5    0    0  0.86850596783E+01 -0.14309710371E+02  0.90476988286E+02  0.92012409390E+02  0.00000000000E+00 0.  1.
          5    1    4    4  501    0 -0.90373427914E+02 -0.31258529407E+02 -0.85215380586E+02  0.12815453805E+03  0.41800000000E+01 0.  1.
         -5    1    4    4    0  501  0.29605399388E+02  0.15363795223E+02 -0.90242071997E+02  0.96299687616E+02  0.41800000000E+01 0.  1.
</event>
<event>
11    1  0.6930157E-009  0.1602983E+03  0.7561462E-02  0.1086797E+00
         22   -1    0    0    0    0  0.00000000000E+00  0.00000000000E+00  0.69637237853E+03  0.69637237853E+03  0.00000000000E+00 0.  1.
         22   -1    0    0    0    0 -0.00000000000E+00 -0.00000000000E+00 -0.18274366020E+03  0.18274366020E+03  0.00000000000E+00 0. -1.
         24    2    1    2    0    0 -0.29557364649E+02  0.10568493002E+03 -0.10708304904E+03  0.17322866147E+03  0.80612948849E+02 0.  0.
         25    2    1    2    0    0  0.28097382632E+02 -0.57805771579E+02  0.89841329120E+02  0.16688238760E+03  0.12508915514E+03 0.  0.
        -24    2    1    2    0    0  0.14599820174E+01 -0.47879158446E+02  0.53087043825E+03  0.53900498967E+03  0.80052553477E+02 0.  0.
        -11    1    3    3    0    0  0.24627823101E+02  0.61025900446E+02 -0.47863572520E+02  0.81373286588E+02  0.00000000000E+00 0.  1.
         12    1    3    3    0    0 -0.54185187750E+02  0.44659029579E+02 -0.59219476524E+02  0.91855374879E+02  0.00000000000E+00 0. -1.
         13    1    5    5    0    0 -0.64657091197E+01 -0.84500082626E+01  0.52798284095E+01  0.11877904785E+02  0.00000000000E+00 0. -1.
        -14    1    5    5    0    0  0.79256911371E+01 -0.39429150183E+02  0.52559060984E+03  0.52712708488E+03  0.00000000000E+00 0.  1.
          5    1    4    4  501    0  0.12951352004E+02 -0.60277775071E+02  0.11876173795E+03  0.13387669882E+03  0.41800000000E+01 0.  1.
         -5    1    4    4    0  501  0.15146030627E+02  0.24720034920E+01 -0.28920408827E+02  0.33005688779E+02  0.41800000000E+01 0.  1.
</event>
<event>
11    1  0.6930157E-009  0.1525944E+03  0.7561462E-02  0.1094257E+00
         22   -1    0    0    0    0  0.00000000000E+00  0.00000000000E+00  0.11384510259E+03  0.11384510259E+03  0.00000000000E+00 0.  1.
         22   -1    0    0    0    0 -0.00000000000E+00 -0.00000000000E+00 -0.12194672724E+04  0.12194672724E+04  0.00000000000E+00 0.  1.
         24    2    1    2    0    0 -0.88417818200E+01 -0.17669983988E+01 -0.95500290972E+03  0.95856566082E+03  0.82074777657E+02 0.  0.
         25    2    1    2    0    0 -0.74037206396E+02 -0.30000577474E+02 -0.19743272067E+03  0.24700064347E+03  0.12509235031E+03 0.  0.
        -24    2    1    2    0    0  0.82878988216E+02  0.31767575873E+02  0.46813460551E+02  0.12774607072E+03  0.79053481469E+02 0.  0.
        -11    1    3    3    0    0 -0.28031977277E+02  0.15248660701E+02 -0.84539509917E+03  0.84599715549E+03  0.00000000000E+00 0.  1.
         12    1    3    3    0    0  0.19190195457E+02 -0.17015659099E+02 -0.10960781056E+03  0.11256850532E+03  0.00000000000E+00 0. -1.
         11    1    5    5    0    0 -0.10071991935E+02  0.21906065782E+02  0.23136368373E+01  0.24221347093E+02  0.00000000000E+00 0. -1.
        -12    1    5    5    0    0  0.92950980151E+02  0.98615100902E+01  0.44499823714E+02  0.10352472363E+03  0.00000000000E+00 0.  1.
          5    1    4    4  501    0 -0.67234168190E+02 -0.46669985404E+02 -0.45081862092E+02  0.93532708714E+02  0.41800000000E+01 0. -1.
         -5    1    4    4    0  501 -0.68030382062E+01  0.16669407931E+02 -0.15235085858E+03  0.15346793476E+03  0.41800000000E+01 0. -1.
</event>
<event>
11    1  0.6930157E-009  0.1333092E+03  0.7561462E-02  0.1115269E+00
         22   -1    0    0    0    0  0.00000000000E+00  0.00000000000E+00  0.90354923284E+03  0.90354923284E+03  0.00000000000E+00 0.  1.
         22   -1    0    0    0    0 -0.00000000000E+00 -0.00000000000E+00 -0.10691768687E+03  0.10691768687E+03  0.00000000000E+00 0. -1.
        -24    2    1    2    0    0  0.21376345543E+02  0.39878574091E+02 -0.66591039404E+02  0.11744710076E+03  0.85511438579E+02 0.  0.
         25    2    1    2    0    0 -0.47585702786E+02 -0.49491719564E+02  0.58573705205E+03  0.60286570914E+03  0.12508133233E+03 0.  0.
         24    2    1    2    0    0  0.26209357242E+02  0.96131454730E+01  0.27748553333E+03  0.29015410982E+03  0.80073986187E+02 0.  0.
        -13    1    5    5    0    0  0.33665716249E+02  0.38072164910E+02  0.21728676889E+03  0.22315109259E+03  0.00000000000E+00 0.  1.
         14    1    5    5    0    0 -0.74563590063E+01 -0.28459019437E+02  0.60198764442E+02  0.67003017225E+02  0.00000000000E+00 0. -1.
         13    1    3    3    0    0  0.19771478839E+02  0.39409813520E+02 -0.86700751383E+02  0.97268006392E+02  0.00000000000E+00 0. -1.
        -14    1    3    3    0    0  0.16048667042E+01  0.46876057094E+00  0.20109711979E+02  0.20179094368E+02  0.00000000000E+00 0.  1.
          5    1    4    4  501    0  0.34956529267E+02 -0.11276456851E+02  0.31642237772E+03  0.31857449825E+03  0.41800000000E+01 0.  1.
         -5    1    4    4    0  501 -0.82542232053E+02 -0.38215262713E+02  0.26931467433E+03  0.28429121088E+03  0.41800000000E+01 0.  1.
</event>
<event>
11    1  0.6930157E-009  0.1365044E+03  0.7561462E-02  0.1111526E+00
         22   -1    0    0    0    0  0.00000000000E+00  0.00000000000E+00  0.10570000900E+04  0.10570000900E+04  0.00000000000E+00 0. -1.
         22   -1    0    0    0    0 -0.00000000000E+00 -0.00000000000E+00 -0.28738389025E+03  0.28738389025E+03  0.00000000000E+00 0. -1.
         24    2    1    2    0    0  0.18794643667E+02 -0.60919663439E+02 -0.14909855468E+03  0.18284749581E+03  0.84488956030E+02 0.  0.
         25    2    1    2    0    0 -0.24355026063E+02  0.28827462413E+02 -0.83825943860E+02  0.15523697074E+03  0.12509012086E+03 0.  0.
        -24    2    1    2    0    0  0.55603823956E+01  0.32092201026E+02  0.10025406983E+04  0.10062995137E+04  0.80560736812E+02 0.  0.
        -13    1    3    3    0    0 -0.71722473227E+00 -0.65719367312E+02 -0.52321534963E+02  0.84006503749E+02  0.00000000000E+00 0.  1.
         14    1    3    3    0    0  0.19511868400E+02  0.47997038729E+01 -0.96777019718E+02  0.98840992059E+02  0.00000000000E+00 0. -1.
         11    1    5    5    0    0 -0.93752184155E+01  0.56871654752E+02  0.70721671103E+03  0.70956166483E+03  0.00000000000E+00 0. -1.
        -12    1    5    5    0    0  0.14935600811E+02 -0.24779453726E+02  0.29532398731E+03  0.29673784891E+03  0.00000000000E+00 0.  1.
          5    1    4    4  501    0 -0.23245646642E+01 -0.35863562984E+02 -0.78651754177E+02  0.86574647477E+02  0.41800000000E+01 0.  1.
         -5    1    4    4    0  501 -0.22030461399E+02  0.64691025397E+02 -0.51741896830E+01  0.68662323259E+02  0.41800000000E+01 0.  1.
</event>
<event>
11    1  0.6930157E-009  0.1347261E+03  0.7561462E-02  0.1113595E+00
         22   -1    0    0    0    0  0.00000000000E+00  0.00000000000E+00  0.53206252883E+02  0.53206252883E+02  0.00000000000E+00 0.  1.
         22   -1    0    0    0    0 -0.00000000000E+00 -0.00000000000E+00 -0.24571429744E+04  0.24571429744E+04  0.00000000000E+00 0.  1.
         24    2    1    2    0    0  0.56774720319E+02  0.74493346584E+01 -0.12926143084E+04  0.12964115015E+04  0.80945472426E+02 0.  0.
         25    2    1    2    0    0 -0.33993312976E+02 -0.13189610690E+02 -0.11215113370E+04  0.11290549413E+04  0.12509144778E+03 0.  0.
        -24    2    1    2    0    0 -0.22781407343E+02  0.57402760314E+01  0.10188923912E+02  0.84882784442E+02  0.80927928645E+02 0.  0.
        -13    1    3    3    0    0 -0.13858717748E+02 -0.18996047485E+02 -0.34509758001E+03  0.34589775022E+03  0.00000000000E+00 0.  1.
         14    1    3    3    0    0  0.70633438067E+02  0.26445382144E+02 -0.94751672843E+03  0.95051375132E+03  0.00000000000E+00 0. -1.
         11    1    5    5    0    0 -0.17825504513E+02  0.15403972660E+02 -0.32889324452E+02  0.40456626747E+02  0.00000000000E+00 0. -1.
        -12    1    5    5    0    0 -0.49559028298E+01 -0.96636966284E+01  0.43078248364E+02  0.44426157695E+02  0.00000000000E+00 0.  1.
          5    1    4    4  501    0 -0.48015826138E+02 -0.33014415963E+00 -0.15441554983E+03  0.16176298398E+03  0.41800000000E+01 0.  1.
         -5    1    4    4    0  501  0.14022513163E+02 -0.12859466530E+02 -0.96709578715E+03  0.96729195731E+03  0.41800000000E+01 0.  1.
</event>
<event>
11    1  0.6930157E-009  0.1935262E+03  0.7561462E-02  0.1059198E+00
         22   -1    0    0    0    0  0.00000000000E+00  0.00000000000E+00  0.36075485367E+03  0.36075485367E+03  0.00000000000E+00 0. -1.
         22   -1    0    0    0    0 -0.00000000000E+00 -0.00000000000E+00 -0.15810972818E+04  0.15810972818E+04  0.00000000000E+00 0.  1.
         24    2    1    2    0    0 -0.12224646826E+03 -0.82676270561E+02 -0.76293084661E+03  0.78111216284E+03  0.79329499699E+02 0.  0.
         25    2    1    2    0    0  0.15136006346E+03  0.30933626908E+02 -0.78934823190E+03  0.81399342350E+03  0.12509158334E+03 0.  0.
        -24    2    1    2    0    0 -0.29113595206E+02  0.51742643652E+02  0.33193665039E+03  0.34674654911E+03  0.80785684675E+02 0.  0.
        -13    1    3    3    0    0 -0.11790719056E+03 -0.77395054494E+02 -0.54119748480E+03  0.55927347300E+03  0.00000000000E+00 0.  1.
         14    1    3    3    0    0 -0.43392776984E+01 -0.52812160663E+01 -0.22173336180E+03  0.22183868984E+03  0.00000000000E+00 0. -1.
         13    1    5    5    0    0  0.82201294114E+00  0.48708962887E+02  0.29551617920E+03  0.29950467599E+03  0.00000000000E+00 0. -1.
        -14    1    5    5    0    0 -0.29935608147E+02  0.30336807654E+01  0.36420471194E+02  0.47241873123E+02  0.00000000000E+00 0.  1.
          5    1    4    4  501    0  0.37767142440E+02  0.22977252412E+02 -0.54202950471E+02  0.70069561268E+02  0.41800000000E+01 0. -1.
         -5    1    4    4    0  501  0.11359292102E+03  0.79563744964E+01 -0.73514528142E+03  0.74392386223E+03  0.41800000000E+01 0. -1.
</event>
<event>
11    1  0.6930157E-009  0.1562272E+03  0.7561462E-02  0.1090680E+00
         22   -1    0    0    0    0  0.00000000000E+00  0.00000000000E+00  0.24245951549E+03  0.24245951549E+03  0.00000000000E+00 0. -1.
         22   -1    0    0    0    0 -0.00000000000E+00 -0.00000000000E+00 -0.54374236542E+03  0.54374236542E+03  0.00000000000E+00 0. -1.
         24    2    1    2    0    0  0.63417421111E+01 -0.88656427400E+02 -0.25411668808E+03  0.28076186420E+03  0.79697888407E+02 0.  0.
         25    2    1    2    0    0 -0.64458391116E+02  0.15533337068E+03 -0.21380364285E+03  0.29940496894E+03  0.12509195616E+03 0.  0.
        -24    2    1    2    0    0  0.58116649005E+02 -0.66676943275E+02  0.16663748101E+03  0.20603504777E+03  0.82819268145E+02 0.  0.
        -13    1    3    3    0    0 -0.21400558301E+02  0.26150160483E+01 -0.27942168273E+02  0.35292874243E+02  0.00000000000E+00 0.  1.
         14    1    3    3    0    0  0.27742300412E+02 -0.91271443448E+02 -0.22617451981E+03  0.24546898996E+03  0.00000000000E+00 0. -1.
         11    1    5    5    0    0 -0.47040817825E+01 -0.29429175312E+02  0.10899115156E+03  0.11299237082E+03  0.00000000000E+00 0. -1.
        -12    1    5    5    0    0  0.62820730787E+02 -0.37247767964E+02  0.57646329445E+02  0.93042676947E+02  0.00000000000E+00 0.  1.
          5    1    4    4  501    0 -0.25810125678E+02  0.79792892439E+02 -0.19511788645E+03  0.21241829084E+03  0.41800000000E+01 0.  1.
         -5    1    4    4    0  501 -0.38648265439E+02  0.75540478237E+02 -0.18685756403E+02  0.86986678095E+02  0.41800000000E+01 0.  1.
</event>
<event>
11    1  0.6930157E-009  0.1309729E+03  0.7561462E-02  0.1118079E+00
         22   -1    0    0    0    0  0.00000000000E+00  0.00000000000E+00  0.81074780653E+02  0.81074780653E+02  0.00000000000E+00 0. -1.
         22   -1    0    0    0    0 -0.00000000000E+00 -0.00000000000E+00 -0.16910529468E+04  0.16910529468E+04  0.00000000000E+00 0. -1.
        -24    2    1    2    0    0 -0.12434057700E+02 -0.20761024749E+02 -0.83269191532E+03  0.83674277764E+03  0.78594046589E+02 0.  0.
         25    2    1    2    0    0 -0.10544307781E+02  0.51641541859E+02 -0.82379437296E+03  0.83490389085E+03  0.12509718928E+03 0.  0.
         24    2    1    2    0    0  0.22978365482E+02 -0.30880517110E+02  0.46508122099E+02  0.10048105899E+03  0.80323260503E+02 0.  0.
        -13    1    5    5    0    0  0.38266613124E+02 -0.23559517868E+02 -0.59707950374E+01  0.45332493375E+02  0.00000000000E+00 0.  1.
         14    1    5    5    0    0 -0.15288247643E+02 -0.73209992422E+01  0.52478917137E+02  0.55148565618E+02  0.00000000000E+00 0. -1.
         13    1    3    3    0    0 -0.17304974049E+02 -0.27798581767E+02 -0.82362013776E+03  0.82427080174E+03  0.00000000000E+00 0. -1.
        -14    1    3    3    0    0  0.48709163483E+01  0.70375570182E+01 -0.90717775589E+01  0.12471975903E+02  0.00000000000E+00 0.  1.
          5    1    4    4  501    0  0.16238420592E+01  0.88404167310E+01 -0.14715749988E-01  0.99127416775E+01  0.41800000000E+01 0.  1.
         -5    1    4    4    0  501 -0.12168149840E+02  0.42801125128E+02 -0.82377965721E+03  0.82499114917E+03  0.41800000000E+01 0.  1.
</event>
<event>
11    1  0.6930157E-009  0.1475531E+03  0.7561462E-02  0.1099406E+00
         22   -1    0    0    0    0  0.00000000000E+00  0.00000000000E+00  0.32202073214E+04  0.32202073214E+04  0.00000000000E+00 0.  1.
         22   -1    0    0    0    0 -0.00000000000E+00 -0.00000000000E+00 -0.16538455770E+04  0.16538455770E+04  0.00000000000E+00 0. -1.
         24    2    1    2    0    0 -0.29819621994E+01  0.26333551829E+02 -0.16423328234E+04  0.16445044411E+04  0.80220981622E+02 0.  0.
         25    2    1    2    0    0 -0.74358911674E+02 -0.37288525686E+02  0.60238538526E+03  0.62083447003E+03  0.12509038694E+03 0.  0.
        -24    2    1    2    0    0  0.77340873873E+02  0.10954973857E+02  0.26063091825E+04  0.26087139873E+04  0.80246436111E+02 0.  0.
        -13    1    3    3    0    0  0.15197769593E+02  0.50958557583E+02 -0.11404862539E+04  0.11417252919E+04  0.00000000000E+00 0.  1.
         14    1    3    3    0    0 -0.18179731793E+02 -0.24625005754E+02 -0.50184656946E+03  0.50277914917E+03  0.00000000000E+00 0. -1.
         13    1    5    5    0    0  0.38067754462E+02  0.34978903115E+02  0.72469184221E+03  0.72653351179E+03  0.00000000000E+00 0. -1.
        -14    1    5    5    0    0  0.39273119411E+02 -0.24023929258E+02  0.18816173403E+04  0.18821804755E+04  0.00000000000E+00 0.  1.
          5    1    4    4  501    0  0.28969547497E+02  0.12533222095E+02  0.82581851664E+02  0.88507349765E+02  0.41800000000E+01 0.  1.
         -5    1    4    4    0  501 -0.10332845917E+03 -0.49821747781E+02  0.51980353360E+03  0.53232712026E+03  0.41800000000E+01 0.  1.
</event>
<event>
11    1  0.6930157E-009  0.1447930E+03  0.7561462E-02  0.1102321E+00
         22   -1    0    0    0    0  0.00000000000E+00  0.00000000000E+00  0.66058108675E+03  0.66058108675E+03  0.00000000000E+00 0.  1.
         22   -1    0    0    0    0 -0.00000000000E+00 -0.00000000000E+00 -0.37775289216E+03  0.37775289216E+03  0.00000000000E+00 0. -1.
        -24    2    1    2    0    0  0.15817799994E+02 -0.40896461145E+01 -0.31766856468E+03  0.32790157021E+03  0.79619060278E+02 0.  0.
         25    2    1    2    0    0 -0.92993900547E+01  0.76439830648E+02  0.59312101841E+02  0.15841347616E+03  0.12508947853E+03 0.  0.
         24    2    1    2    0    0 -0.65184099397E+01 -0.72350184534E+02  0.54118465743E+03  0.55201893254E+03  0.81037211047E+02 0.  0.
        -13    1    5    5    0    0  0.25589612767E+02 -0.71241766965E+02  0.34363040020E+03  0.35186939279E+03  0.00000000000E+00 0.  1.
         14    1    5    5    0    0 -0.32108022707E+02 -0.11084175688E+01  0.19755425723E+03  0.20014953975E+03  0.00000000000E+00 0. -1.
         13    1    3    3    0    0  0.32464688150E+01  0.10240612948E+02 -0.30459955090E+03  0.30478893701E+03  0.00000000000E+00 0. -1.
        -14    1    3    3    0    0  0.12571331179E+02 -0.14330259062E+02 -0.13069013776E+02  0.23112633201E+02  0.00000000000E+00 0.  1.
          5    1    4    4  501    0 -0.55851400292E+02  0.77314691359E+02  0.57878978705E+02  0.11164402801E+03  0.41800000000E+01 0.  1.
         -5    1    4    4    0  501  0.46552010238E+02 -0.87486071089E+00  0.14331231359E+01  0.46769448151E+02  0.41800000000E+01 0.  1.
</event>
<event>
11    1  0.6930157E-009  0.1373695E+03  0.7561462E-02  0.1110532E+00
         22   -1    0    0    0    0  0.00000000000E+00  0.00000000000E+00  0.11417779056E+04  0.11417779056E+04  0.00000000000E+00 0. -1.
         22   -1    0    0    0    0 -0.00000000000E+00 -0.00000000000E+00 -0.18847920070E+03  0.18847920070E+03  0.00000000000E+00 0. -1.
         24    2    1    2    0    0  0.35811191811E+02  0.88553056022E+01 -0.13524473054E+03  0.16182574985E+03  0.80842923485E+02 0.  0.
         25    2    1    2    0    0 -0.34698478879E+02 -0.65091000007E+02  0.10274914516E+03  0.17789231409E+03  0.12508983116E+03 0.  0.
        -24    2    1    2    0    0 -0.11127129312E+01  0.56235694405E+02  0.98579429032E+03  0.99053904240E+03  0.78825885641E+02 0.  0.
        -13    1    3    3    0    0  0.81836832781E+01 -0.35388220515E+02 -0.48277586634E+02  0.60415430102E+02  0.00000000000E+00 0.  1.
         14    1    3    3    0    0  0.27627508533E+02  0.44243526117E+02 -0.86967143908E+02  0.10141031974E+03  0.00000000000E+00 0. -1.
         11    1    5    5    0    0 -0.28176782009E+02  0.33542137979E+02  0.24378211170E+03  0.24768674581E+03  0.00000000000E+00 0. -1.
        -12    1    5    5    0    0  0.27064069078E+02  0.22693556426E+02  0.74201217862E+03  0.74285229659E+03  0.00000000000E+00 0.  1.
          5    1    4    4  501    0  0.45080045608E+02 -0.42481713792E+02  0.40565866567E+02  0.74161772154E+02  0.41800000000E+01 0.  1.
         -5    1    4    4    0  501 -0.79778524487E+02 -0.22609286215E+02  0.62183278597E+02  0.10373054193E+03  0.41800000000E+01 0.  1.
</event>
<event>
11    1  0.6930157E-009  0.1389724E+03  0.7561462E-02  0.1108711E+00
         22   -1    0    0    0    0  0.00000000000E+00  0.00000000000E+00  0.69076181960E+03  0.69076181960E+03  0.00000000000E+00 0. -1.
         22   -1    0    0    0    0 -0.00000000000E+00 -0.00000000000E+00 -0.11620790567E+03  0.11620790567E+03  0.00000000000E+00 0. -1.
         24    2    1    2    0    0  0.19375745141E+02 -0.57691327707E+02 -0.68196268489E+02  0.12071114479E+03  0.78846310298E+02 0.  0.
         25    2    1    2    0    0 -0.57844961318E+02  0.37412257782E+02  0.47813474193E+03  0.49900555904E+03  0.12509196586E+03 0.  0.
        -24    2    1    2    0    0  0.38469216178E+02  0.20279069925E+02  0.16461544049E+03  0.18725302145E+03  0.77937985116E+02 0.  0.
        -13    1    3    3    0    0 -0.46023144078E+00  0.11658650456E+02  0.92409258196E+01  0.14883905853E+02  0.00000000000E+00 0.  1.
         14    1    3    3    0    0  0.19835976581E+02 -0.69349978163E+02 -0.77437194308E+02  0.10582723893E+03  0.00000000000E+00 0. -1.
         11    1    5    5    0    0 -0.23712712030E+02  0.33286455316E+01  0.56819041729E+02  0.61658544387E+02  0.00000000000E+00 0. -1.
        -12    1    5    5    0    0  0.62181928208E+02  0.16950424393E+02  0.10779639876E+03  0.12559447706E+03  0.00000000000E+00 0.  1.
          5    1    4    4  501    0  0.31282556218E+01 -0.35714890159E+02  0.23678976781E+03  0.23952495882E+03  0.41800000000E+01 0. -1.
         -5    1    4    4    0  501 -0.60973216940E+02  0.73127147941E+02  0.24134497413E+03  0.25948060021E+03  0.41800000000E+01 0. -1.
</event>
<event>
11    1  0.6930157E-009  0.1362718E+03  0.7561462E-02  0.1111794E+00
         22   -1    0    0    0    0  0.00000000000E+00  0.00000000000E+00  0.22425163467E+03  0.22425163467E+03  0.00000000000E+00 0. -1.
         22   -1    0    0    0    0 -0.00000000000E+00 -0.00000000000E+00 -0.76742974424E+03  0.76742974424E+03  0.00000000000E+00 0. -1.
         24    2    1    2    0    0  0.62179781211E+01 -0.30108495023E+02 -0.47715382365E+03  0.48473000590E+03  0.79638071784E+02 0.  0.
         25    2    1    2    0    0  0.38488137182E+02 -0.18583763830E+01 -0.25941747088E+03  0.29056794211E+03  0.12509002566E+03 0.  0.
        -24    2    1    2    0    0 -0.44706115303E+02  0.31966871406E+02  0.19339318496E+03  0.21638343090E+03  0.80002172261E+02 0.  0.
        -11    1    3    3    0    0  0.15682982890E+02 -0.49612029191E+02 -0.19756047050E+03  0.20429745201E+03  0.00000000000E+00 0.  1.
         12    1    3    3    0    0 -0.94650047685E+01  0.19503534168E+02 -0.27959335314E+03  0.28043255389E+03  0.00000000000E+00 0. -1.
         13    1    5    5    0    0 -0.89069279626E+01  0.53701181098E+02  0.12238333805E+03  0.13394338972E+03  0.00000000000E+00 0. -1.
        -14    1    5    5    0    0 -0.35799187341E+02 -0.21734309691E+02  0.71009846911E+02  0.82440041183E+02  0.00000000000E+00 0.  1.
          5    1    4    4  501    0  0.39971300686E+02 -0.59916655830E+02 -0.13063325373E+03  0.14923213429E+03  0.41800000000E+01 0.  1.
         -5    1    4    4    0  501 -0.14831635038E+01  0.58058279447E+02 -0.12878421714E+03  0.14133580782E+03  0.41800000000E+01 0.  1.
</event>
<event>
11    1  0.6930157E-009  0.1366524E+03  0.7561462E-02  0.1111355E+00
         22   -1    0    0    0    0  0.00000000000E+00  0.00000000000E+00  0.19225455819E+04  0.19225455819E+04  0.00000000000E+00 0. -1.
         22   -1    0    0    0    0 -0.00000000000E+00 -0.00000000000E+00 -0.88185659385E+02  0.88185659385E+02  0.00000000000E+00 0. -1.
        -24    2    1    2    0    0  0.54944214956E+02 -0.21277427933E+01 -0.39448879500E+02  0.10543998627E+03  0.80857792226E+02 0.  0.
         25    2    1    2    0    0 -0.55576583065E+02 -0.97188907704E+01  0.30634125117E+03  0.33567193306E+03  0.12508985192E+03 0.  0.
         24    2    1    2    0    0  0.63236810903E+00  0.11846633564E+02  0.15674675509E+04  0.15696193220E+04  0.81299140807E+02 0.  0.
        -11    1    5    5    0    0 -0.19649699271E+02 -0.26706423218E+02  0.96963604407E+03  0.97020276318E+03  0.00000000000E+00 0.  1.
         12    1    5    5    0    0  0.20282067380E+02  0.38553056782E+02  0.59783150679E+03  0.59941655879E+03  0.00000000000E+00 0. -1.
         11    1    3    3    0    0  0.22794420315E+02  0.39116426042E+02 -0.21793399724E+02  0.50245722756E+02  0.00000000000E+00 0. -1.
        -12    1    3    3    0    0  0.32149794641E+02 -0.41244168835E+02 -0.17655479777E+02  0.55194263511E+02  0.00000000000E+00 0.  1.
          5    1    4    4  501    0  0.18978508119E+02  0.29305271260E+02  0.28274908885E+02  0.45121231882E+02  0.41800000000E+01 0.  1.
         -5    1    4    4    0  501 -0.74555091184E+02 -0.39024162030E+02  0.27806634229E+03  0.29055070118E+03  0.41800000000E+01 0.  1.
</event>
<event>
11    1  0.6930157E-009  0.1382747E+03  0.7561462E-02  0.1109500E+00
         22   -1    0    0    0    0  0.00000000000E+00  0.00000000000E+00  0.26925786329E+02  0.26925786329E+02  0.00000000000E+00 0.  1.
         22   -1    0    0    0    0 -0.00000000000E+00 -0.00000000000E+00 -0.24111859620E+04  0.24111859620E+04  0.00000000000E+00 0. -1.
        -24    2    1    2    0    0  0.29220574149E+02  0.50259371506E+02 -0.17706632100E+04  0.17734404662E+04  0.80393019014E+02 0.  0.
         25    2    1    2    0    0 -0.70376734867E+02 -0.32244411982E+02 -0.48313468377E+03  0.50503394841E+03  0.12509028528E+03 0.  0.
         24    2    1    2    0    0  0.41156160718E+02 -0.18014959523E+02 -0.13046228190E+03  0.15963733373E+03  0.80282644380E+02 0.  0.
        -11    1    5    5    0    0 -0.17373870822E+02 -0.27427276415E+02 -0.40653540521E+02  0.52027081754E+02  0.00000000000E+00 0.  1.
         12    1    5    5    0    0  0.58530031540E+02  0.94123168921E+01 -0.89808741379E+02  0.10761025197E+03  0.00000000000E+00 0. -1.
         13    1    3    3    0    0  0.27325518199E+02  0.77662795640E+01 -0.14087296549E+04  0.14090160537E+04  0.00000000000E+00 0. -1.
        -14    1    3    3    0    0  0.18950559498E+01  0.42493091942E+02 -0.36193355510E+03  0.36442441247E+03  0.00000000000E+00 0.  1.
          5    1    4    4  501    0 -0.83521596172E+02 -0.67750272483E+02 -0.38517858978E+03  0.39993246289E+03  0.41800000000E+01 0. -1.
         -5    1    4    4    0  501  0.13144861305E+02  0.35505860501E+02 -0.97956093987E+02  0.10510148552E+03  0.41800000000E+01 0. -1.
</event>
<event>
11    1  0.6930157E-009  0.1377661E+03  0.7561462E-02  0.1110079E+00
         22   -1    0    0    0    0  0.00000000000E+00  0.00000000000E+00  0.33274539351E+03  0.33274539351E+03  0.00000000000E+00 0.  1.
         22   -1    0    0    0    0 -0.00000000000E+00 -0.00000000000E+00 -0.12142852994E+04  0.12142852994E+04  0.00000000000E+00 0. -1.
         24    2    1    2    0    0  0.69555595707E+00  0.44213156727E+00 -0.11550637376E+04  0.11580531967E+04  0.83152204341E+02 0.  0.
         25    2    1    2    0    0  0.48716693487E+02 -0.30425077251E+02  0.56845736746E+02  0.14892249614E+03  0.12508984979E+03 0.  0.
        -24    2    1    2    0    0 -0.49412249444E+02  0.29982945684E+02  0.21667809496E+03  0.24005500012E+03  0.85653130807E+02 0.  0.
        -11    1    3    3    0    0 -0.22391668210E+02  0.34660060007E+02 -0.50718439991E+03  0.50886021860E+03  0.00000000000E+00 0.  1.
         12    1    3    3    0    0  0.23087224167E+02 -0.34217928440E+02 -0.64787933770E+03  0.64919297807E+03  0.00000000000E+00 0. -1.
         11    1    5    5    0    0 -0.72561528081E+01 -0.28953102476E+02  0.79428586351E+02  0.84851836906E+02  0.00000000000E+00 0. -1.
        -12    1    5    5    0    0 -0.42156096636E+02  0.58936048160E+02  0.13724950861E+03  0.15520316321E+03  0.00000000000E+00 0.  1.
          5    1    4    4  501    0  0.68401926462E+02 -0.63888575175E+02  0.57388305215E+02  0.10987021233E+03  0.41800000000E+01 0.  1.
         -5    1    4    4    0  501 -0.19685232975E+02  0.33463497923E+02 -0.54256846920E+00  0.39052283814E+02  0.41800000000E+01 0.  1.
</event>
<event>
11    1  0.6930157E-009  0.2947255E+03  0.7561462E-02  0.1002449E+00
         22   -1    0    0    0    0  0.00000000000E+00  0.00000000000E+00  0.73641636549E+03  0.73641636549E+03  0.00000000000E+00 0. -1.
         22   -1    0    0    0    0 -0.00000000000E+00 -0.00000000000E+00 -0.85063282973E+03  0.85063282973E+03  0.00000000000E+00 0.  1.
        -24    2    1    2    0    0  0.23523862918E+02  0.27543160321E+03 -0.73940508935E+03  0.79339289017E+03  0.79601833223E+02 0.  0.
         25    2    1    2    0    0  0.35169856487E+02 -0.20298262591E+03  0.11191313319E+03  0.26572884406E+03  0.12509358081E+03 0.  0.
         24    2    1    2    0    0 -0.58693719404E+02 -0.72448977305E+02  0.51327549192E+03  0.52792746098E+03  0.81005348237E+02 0.  0.
        -13    1    5    5    0    0  0.99024001938E+01 -0.37611277061E+02  0.95309561478E+02  0.10293968234E+03  0.00000000000E+00 0.  1.
         14    1    5    5    0    0 -0.68596119598E+02 -0.34837700244E+02  0.41796593044E+03  0.42498777864E+03  0.00000000000E+00 0. -1.
         11    1    3    3    0    0 -0.28146168463E+02  0.69766398110E+02 -0.17614497809E+03  0.19153749087E+03  0.00000000000E+00 0. -1.
        -12    1    3    3    0    0  0.51670031380E+02  0.20566520510E+03 -0.56326011126E+03  0.60185539930E+03  0.00000000000E+00 0.  1.
          5    1    4    4  501    0 -0.35229806894E+02 -0.12049145455E+03  0.91246166770E+02  0.15525033096E+03  0.41800000000E+01 0.  1.
         -5    1    4    4    0  501  0.70399663381E+02 -0.82491171359E+02  0.20666966420E+02  0.11047851310E+03  0.41800000000E+01 0.  1.
</event>
<event>
11    1  0.6930157E-009  0.1423117E+03  0.7561462E-02  0.1105004E+00
         22   -1    0    0    0    0  0.00000000000E+00  0.00000000000E+00  0.22652300737E+03  0.22652300737E+03  0.00000000000E+00 0. -1.
         22   -1    0    0    0    0 -0.00000000000E+00 -0.00000000000E+00 -0.10956813211E+04  0.10956813211E+04  0.00000000000E+00 0. -1.
         24    2    1    2    0    0 -0.19770049135E+02  0.27376445623E+02 -0.92522604666E+03  0.92924251408E+03  0.79423472233E+02 0.  0.
         25    2    1    2    0    0  0.46011866416E+02 -0.87549736392E+02 -0.11672793817E+03  0.19762505875E+03  0.12509278197E+03 0.  0.
        -24    2    1    2    0    0 -0.26241817281E+02  0.60173290769E+02  0.17279567113E+03  0.19533675562E+03  0.63155730051E+02 0.  0.
        -13    1    3    3    0    0 -0.29146528195E+02  0.91614519107E+01 -0.12241325757E+03  0.12616837138E+03  0.00000000000E+00 0.  1.
         14    1    3    3    0    0  0.93764790600E+01  0.18214993713E+02 -0.80281278909E+03  0.80307414271E+03  0.00000000000E+00 0. -1.
         13    1    5    5    0    0 -0.16997595614E+02  0.71284265113E+02  0.12007906835E+03  0.14067461521E+03  0.00000000000E+00 0. -1.
        -14    1    5    5    0    0 -0.92442216667E+01 -0.11110974344E+02  0.52716602784E+02  0.54662140410E+02  0.00000000000E+00 0.  1.
          5    1    4    4  501    0  0.79213862943E+02 -0.47408230142E+02 -0.31466683738E+02  0.97621723776E+02  0.41800000000E+01 0. -1.
         -5    1    4    4    0  501 -0.33201996528E+02 -0.40141506250E+02 -0.85261254432E+02  0.10000333497E+03  0.41800000000E+01 0. -1.
</event>
<event>
11    1  0.6930157E-009  0.1495332E+03  0.7561462E-02  0.1097357E+00
         22   -1    0    0    0    0  0.00000000000E+00  0.00000000000E+00  0.12094971148E+04  0.12094971148E+04  0.00000000000E+00 0.  1.
         22   -1    0    0    0    0 -0.00000000000E+00 -0.00000000000E+00 -0.73813539248E+03  0.73813539248E+03  0.00000000000E+00 0.  1.
        -24    2    1    2    0    0 -0.88466517485E+01  0.13229446726E+02 -0.65323806280E+03  0.65832086499E+03  0.80081914819E+02 0.  0.
         25    2    1    2    0    0  0.90083407806E+02 -0.21267645029E+02 -0.35189802561E+01  0.15562719717E+03  0.12506041816E+03 0.  0.
         24    2    1    2    0    0 -0.81236756057E+02  0.80381983025E+01  0.11281187653E+04  0.11336844451E+04  0.76970443387E+02 0.  0.
        -11    1    5    5    0    0 -0.59105905665E+02  0.34807667127E+02  0.93144485268E+03  0.93396712755E+03  0.00000000000E+00 0.  1.
         12    1    5    5    0    0 -0.22130850392E+02 -0.26769468825E+02  0.19667391266E+03  0.19971731753E+03  0.00000000000E+00 0. -1.
         11    1    3    3    0    0 -0.46278506625E+01  0.43305971210E+02 -0.23644110662E+03  0.24041884503E+03  0.00000000000E+00 0. -1.
        -12    1    3    3    0    0 -0.42188010860E+01 -0.30076524484E+02 -0.41679695618E+03  0.41790201996E+03  0.00000000000E+00 0.  1.
          5    1    4    4  501    0  0.10341128578E+02 -0.59288890491E+02 -0.23861123886E+02  0.64876321636E+02  0.41800000000E+01 0. -1.
         -5    1    4    4    0  501  0.79742279228E+02  0.38021245462E+02  0.20342143630E+02  0.90750875535E+02  0.41800000000E+01 0. -1.
</event>
<event>
11    1  0.6930157E-009  0.1533774E+03  0.7561462E-02  0.1093477E+00
         22   -1    0    0    0    0  0.00000000000E+00  0.00000000000E+00  0.12293355741E+03  0.12293355741E+03  0.00000000000E+00 0. -1.
         22   -1    0    0    0    0 -0.00000000000E+00 -0.00000000000E+00 -0.11106594540E+04  0.11106594540E+04  0.00000000000E+00 0.  1.
        -24    2    1    2    0    0  0.83826880989E+00 -0.86783406256E+02 -0.76885075835E+03  0.77781481050E+03  0.79575929304E+02 0.  0.
         25    2    1    2    0    0 -0.51049049333E+01  0.97276304563E+02 -0.30153193134E+03  0.34067232266E+03  0.12508951325E+03 0.  0.
         24    2    1    2    0    0  0.42666361234E+01 -0.10492898307E+02  0.82656793119E+02  0.11510587824E+03  0.79302664884E+02 0.  0.
        -13    1    5    5    0    0  0.32619148440E+02 -0.22108631763E+02  0.17524465646E+02  0.43126643036E+02  0.00000000000E+00 0.  1.
         14    1    5    5    0    0 -0.28352512317E+02  0.11615733456E+02  0.65132327472E+02  0.71979235203E+02  0.00000000000E+00 0. -1.
         13    1    3    3    0    0 -0.29523531459E+02 -0.28344308342E+02 -0.15045268059E+03  0.15592000456E+03  0.00000000000E+00 0. -1.
        -14    1    3    3    0    0  0.30361800269E+02 -0.58439097914E+02 -0.61839807776E+03  0.62189480594E+03  0.00000000000E+00 0.  1.
          5    1    4    4  501    0 -0.46922952507E+02  0.81477628456E+02 -0.11394921220E+03  0.14779128111E+03  0.41800000000E+01 0.  1.
         -5    1    4    4    0  501  0.41818047573E+02  0.15798676107E+02 -0.18758271914E+03  0.19288104155E+03  0.41800000000E+01 0.  1.
</event>
<event>
11    1  0.6930157E-009  0.1587783E+03  0.7561462E-02  0.1088232E+00
         22   -1    0    0    0    0  0.00000000000E+00  0.00000000000E+00  0.53118086317E+03  0.53118086317E+03  0.00000000000E+00 0. -1.
         22   -1    0    0    0    0 -0.00000000000E+00 -0.00000000000E+00 -0.40263456888E+03  0.40263456888E+03  0.00000000000E+00 0. -1.
         24    2    1    2    0    0 -0.59434508353E+02 -0.64337855711E+02 -0.30707802780E+03  0.32937759754E+03  0.80751880109E+02 0.  0.
         25    2    1    2    0    0  0.74101468953E+02  0.15227609055E+03  0.73903830082E+02  0.22312332930E+03  0.12507281289E+03 0.  0.
        -24    2    1    2    0    0 -0.14666960600E+02 -0.87938234841E+02  0.36172049201E+03  0.38131450521E+03  0.81306731943E+02 0.  0.
        -13    1    3    3    0    0 -0.36221154241E+02 -0.53717797448E+02 -0.90501415612E+02  0.11130175203E+03  0.00000000000E+00 0.  1.
         14    1    3    3    0    0 -0.23213354112E+02 -0.10620058263E+02 -0.21657661219E+03  0.21807584551E+03  0.00000000000E+00 0. -1.
         11    1    5    5    0    0  0.20171702470E+02 -0.76186253424E+02  0.29254467802E+03  0.30297463826E+03  0.00000000000E+00 0. -1.
        -12    1    5    5    0    0 -0.34838663070E+02 -0.11751981417E+02  0.69175813998E+02  0.78339866951E+02  0.00000000000E+00 0.  1.
          5    1    4    4  501    0  0.54959411965E+02 -0.96718985151E+00  0.10446601789E+02  0.56107720580E+02  0.41800000000E+01 0.  1.
         -5    1    4    4    0  501  0.19142056988E+02  0.15324328040E+03  0.63457228293E+02  0.16701560872E+03  0.41800000000E+01 0.  1.
</event>
<event>
11    1  0.6930157E-009  0.3649865E+03  0.7561462E-02  0.9759119E-01
         22   -1    0    0    0    0  0.00000000000E+00  0.00000000000E+00  0.58450641355E+03  0.58450641355E+03  0.00000000000E+00 0.  1.
         22   -1    0    0    0    0 -0.00000000000E+00 -0.00000000000E+00 -0.17606120875E+04  0.17606120875E+04  0.00000000000E+00 0. -1.
        -24    2    1    2    0    0 -0.27470787172E+02  0.32737285316E+00 -0.13250344932E+04  0.13277017256E+04  0.79502910359E+02 0.  0.
         25    2    1    2    0    0 -0.20567110123E+03  0.25476742094E+03 -0.28848270879E+03  0.45396397238E+03  0.12511584353E+03 0.  0.
         24    2    1    2    0    0  0.23314188840E+03 -0.25509479379E+03  0.43741152801E+03  0.56345280307E+03  0.81986111631E+02 0.  0.
        -13    1    5    5    0    0  0.20237781532E+03 -0.24321785107E+03  0.35983812100E+03  0.47916090882E+03  0.00000000000E+00 0.  1.
         14    1    5    5    0    0  0.30764073077E+02 -0.11876942719E+02  0.77573407012E+02  0.84291894249E+02  0.00000000000E+00 0. -1.
         13    1    3    3    0    0 -0.14684439803E+02 -0.28422612964E+02 -0.11014002364E+04  0.11018647642E+04  0.00000000000E+00 0. -1.
        -14    1    3    3    0    0 -0.12786347369E+02  0.28749985817E+02 -0.22363425673E+03  0.22583696143E+03  0.00000000000E+00 0.  1.
          5    1    4    4  501    0 -0.57487330678E+02  0.16043332502E+03 -0.17767460907E+03  0.24623034759E+03  0.41800000000E+01 0. -1.
         -5    1    4    4    0  501 -0.14818377055E+03  0.94334095911E+02 -0.11080809972E+03  0.20773362479E+03  0.41800000000E+01 0. -1.
</event>
<event>
11    1  0.6930157E-009  0.1366624E+03  0.7561462E-02  0.1111344E+00
         22   -1    0    0    0    0  0.00000000000E+00  0.00000000000E+00  0.15911609915E+04  0.15911609915E+04  0.00000000000E+00 0. -1.
         22   -1    0    0    0    0 -0.00000000000E+00 -0.00000000000E+00 -0.13025334191E+03  0.13025334191E+03  0.00000000000E+00 0.  1.
         24    2    1    2    0    0 -0.10609237163E+02  0.53559829268E+02 -0.79777551635E+02  0.12517746429E+03  0.79521874951E+02 0.  0.
         25    2    1    2    0    0  0.30804343913E+02 -0.53278176805E+02  0.15661891450E+03  0.20967466191E+03  0.12508600138E+03 0.  0.
        -24    2    1    2    0    0 -0.20195106750E+02 -0.28165246337E+00  0.13840662867E+04  0.13865622072E+04  0.80668127262E+02 0.  0.
        -13    1    3    3    0    0 -0.41826748785E+01  0.73442548069E+02 -0.71850100575E+02  0.10282869049E+03  0.00000000000E+00 0.  1.
         14    1    3    3    0    0 -0.64265622848E+01 -0.19882718801E+02 -0.79274510600E+01  0.22348773792E+02  0.00000000000E+00 0. -1.
         11    1    5    5    0    0 -0.21060049133E+02  0.32923592363E+02  0.10761536075E+04  0.10768630719E+04  0.00000000000E+00 0. -1.
        -12    1    5    5    0    0  0.86494238306E+00 -0.33205244827E+02  0.30791267915E+03  0.30969913527E+03  0.00000000000E+00 0.  1.
          5    1    4    4  501    0  0.62235002423E+02  0.12289378841E+02  0.51637593963E+02  0.81903222582E+02  0.41800000000E+01 0. -1.
         -5    1    4    4    0  501 -0.31430658510E+02 -0.65567555646E+02  0.10498132053E+03  0.12777143933E+03  0.41800000000E+01 0. -1.
</event>
<event>
11    1  0.6930157E-009  0.1903808E+03  0.7561462E-02  0.1061542E+00
         22   -1    0    0    0    0  0.00000000000E+00  0.00000000000E+00  0.65297174031E+03  0.65297174031E+03  0.00000000000E+00 0. -1.
         22   -1    0    0    0    0 -0.00000000000E+00 -0.00000000000E+00 -0.13724516551E+04  0.13724516551E+04  0.00000000000E+00 0.  1.
        -24    2    1    2    0    0 -0.12447008035E+03 -0.65359433808E+02 -0.10444375981E+04  0.10571402350E+04  0.83252168921E+02 0.  0.
         25    2    1    2    0    0  0.16846666642E+03  0.18058095474E+02 -0.28237783797E+03  0.35226741306E+03  0.12509186392E+03 0.  0.
         24    2    1    2    0    0 -0.43996586074E+02  0.47301338334E+02  0.60733552128E+03  0.61601574735E+03  0.80286047192E+02 0.  0.
        -11    1    5    5    0    0  0.73601189291E+01 -0.16007795811E+02  0.56578820139E+02  0.59258617649E+02  0.00000000000E+00 0.  1.
         12    1    5    5    0    0 -0.51356705004E+02  0.63309134145E+02  0.55075670114E+03  0.55675712970E+03  0.00000000000E+00 0. -1.
         11    1    3    3    0    0 -0.96299094169E+02 -0.79620883495E+02 -0.68376774402E+03  0.69509087779E+03  0.00000000000E+00 0. -1.
        -12    1    3    3    0    0 -0.28170986179E+02  0.14261449686E+02 -0.36066985407E+03  0.36204935720E+03  0.00000000000E+00 0.  1.
          5    1    4    4  501    0  0.18434452931E+03 -0.21126397061E+01 -0.24229631930E+03  0.30448702350E+03  0.41800000000E+01 0.  1.
         -5    1    4    4    0  501 -0.15877862888E+02  0.20170735180E+02 -0.40081518672E+02  0.47780389562E+02  0.41800000000E+01 0.  1.
</event>
<event>
11    1  0.6930157E-009  0.1415321E+03  0.7561462E-02  0.1105860E+00
         22   -1    0    0    0    0  0.00000000000E+00  0.00000000000E+00  0.75664889191E+03  0.75664889191E+03  0.00000000000E+00 0.  1.
         22   -1    0    0    0    0 -0.00000000000E+00 -0.00000000000E+00 -0.59231768283E+03  0.59231768283E+03  0.00000000000E+00 0.  1.
        -24    2    1    2    0    0  0.14865589284E+02  0.31819525125E+02 -0.46418957195E+03  0.47257835916E+03  0.81393359192E+02 0.  0.
         25    2    1    2    0    0  0.38225003318E+02 -0.70956418639E+02 -0.74028041071E+02  0.16621647365E+03  0.12510715816E+03 0.  0.
         24    2    1    2    0    0 -0.53090592602E+02  0.39136893515E+02  0.70254882211E+03  0.71017174193E+03  0.80117090134E+02 0.  0.
        -11    1    5    5    0    0 -0.18570684627E+02  0.39469009161E+02  0.60722130987E+03  0.60878599866E+03  0.00000000000E+00 0.  1.
         12    1    5    5    0    0 -0.34519907975E+02 -0.33211564589E+00  0.95327512241E+02  0.10138574327E+03  0.00000000000E+00 0. -1.
         11    1    3    3    0    0  0.16858741591E+02 -0.20682766997E+02 -0.70185018270E+02  0.75086155902E+02  0.00000000000E+00 0. -1.
        -12    1    3    3    0    0 -0.19931523071E+01  0.52502292122E+02 -0.39400455368E+03  0.39749220326E+03  0.00000000000E+00 0.  1.
          5    1    4    4  501    0  0.90397630891E+01  0.32979845318E+02  0.13585037242E+01  0.34477607897E+02  0.41800000000E+01 0. -1.
         -5    1    4    4    0  501  0.29185240229E+02 -0.10393626396E+03 -0.75386544796E+02  0.13173886575E+03  0.41800000000E+01 0. -1.
</event>
<event>
11    1  0.6930157E-009  0.4607264E+03  0.7561462E-02  0.9485832E-01
         22   -1    0    0    0    0  0.00000000000E+00  0.00000000000E+00  0.24120133669E+04  0.24120133669E+04  0.00000000000E+00 0.  1.
         22   -1    0    0    0    0 -0.00000000000E+00 -0.00000000000E+00 -0.27098316330E+03  0.27098316330E+03  0.00000000000E+00 0. -1.
         24    2    1    2    0    0  0.40495157182E+01  0.92327089798E+02 -0.15123580350E+03  0.19375191658E+03  0.78274177298E+02 0.  0.
         25    2    1    2    0    0 -0.68530289334E+02  0.37681037270E+03  0.55076291991E+03  0.68239818325E+03  0.12508009041E+03 0.  0.
        -24    2    1    2    0    0  0.64480773616E+02 -0.46913746250E+03  0.17415030872E+04  0.18068464304E+04  0.87254176849E+02 0.  0.
        -11    1    3    3    0    0 -0.35223061631E+02  0.50045576211E+02 -0.59365401648E+02  0.85261214405E+02  0.00000000000E+00 0.  1.
         12    1    3    3    0    0  0.39272577350E+02  0.42281513587E+02 -0.91870401851E+02  0.10849070218E+03  0.00000000000E+00 0. -1.
         13    1    5    5    0    0  0.21370995796E+02 -0.20507260031E+02  0.80231642258E+02  0.85524169652E+02  0.00000000000E+00 0. -1.
        -14    1    5    5    0    0  0.43109777819E+02 -0.44863020247E+03  0.16612714449E+04  0.17213222607E+04  0.00000000000E+00 0.  1.
          5    1    4    4  501    0 -0.70961302558E+02  0.13139410712E+03  0.27691228499E+03  0.31463916448E+03  0.41800000000E+01 0. -1.
         -5    1    4    4    0  501  0.24310132239E+01  0.24541626558E+03  0.27385063492E+03  0.36775901876E+03  0.41800000000E+01 0. -1.
</event>
<event>
11    1  0.6930157E-009  0.1426325E+03  0.7561462E-02  0.1104654E+00
         22   -1    0    0    0    0  0.00000000000E+00  0.00000000000E+00  0.72514391807E+03  0.72514391807E+03  0.00000000000E+00 0. -1.
         22   -1    0    0    0    0 -0.00000000000E+00 -0.00000000000E+00 -0.52384749720E+03  0.52384749720E+03  0.00000000000E+00 0. -1.
         24    2    1    2    0    0  0.11704008673E+02  0.18798242317E+02 -0.42690056963E+03  0.43483778051E+03  0.79683381454E+02 0.  0.
         25    2    1    2    0    0  0.34459486649E+02 -0.69076283960E+02 -0.28079952410E+02  0.14965220738E+03  0.12509320613E+03 0.  0.
        -24    2    1    2    0    0 -0.46163495322E+02  0.50278041643E+02  0.65627694291E+03  0.66450142738E+03  0.78764023632E+02 0.  0.
        -13    1    3    3    0    0 -0.25742859605E+02 -0.14900125771E+02 -0.10966234460E+03  0.11362455012E+03  0.00000000000E+00 0.  1.
         14    1    3    3    0    0  0.37446868278E+02  0.33698368088E+02 -0.31723822503E+03  0.32121323039E+03  0.00000000000E+00 0. -1.
         11    1    5    5    0    0 -0.58206136490E+02  0.10751974242E+02  0.46899681513E+03  0.47271722189E+03  0.00000000000E+00 0. -1.
        -12    1    5    5    0    0  0.12042641168E+02  0.39526067402E+02  0.18728012778E+03  0.19178420548E+03  0.00000000000E+00 0.  1.
          5    1    4    4  501    0 -0.34032598946E+01 -0.58110028973E+02 -0.70548538433E+02  0.91558321960E+02  0.41800000000E+01 0.  1.
         -5    1    4    4    0  501  0.37862746544E+02 -0.10966254987E+02  0.42468586022E+02  0.58093885419E+02  0.41800000000E+01 0.  1.
</event>
<event>
11    1  0.6930157E-009  0.1652520E+03  0.7561462E-02  0.1082239E+00
         22   -1    0    0    0    0  0.00000000000E+00  0.00000000000E+00  0.86788373930E+02  0.86788373930E+02  0.00000000000E+00 0. -1.
         22   -1    0    0    0    0 -0.00000000000E+00 -0.00000000000E+00 -0.10026113016E+04  0.10026113016E+04  0.00000000000E+00 0.  1.
         24    2    1    2    0    0 -0.10216529522E+03  0.92487962107E+01 -0.67263984735E+03  0.68490317956E+03  0.78260547792E+02 0.  0.
         25    2    1    2    0    0  0.13581621900E+03  0.13313923379E+02 -0.25393131135E+03  0.31424708457E+03  0.12508722307E+03 0.  0.
        -24    2    1    2    0    0 -0.33650923779E+02 -0.22562719590E+02  0.10748231029E+02  0.90249411411E+02  0.79924782160E+02 0.  0.
        -11    1    3    3    0    0 -0.95711579151E+02  0.22507042086E+02 -0.65291113391E+03  0.66027283914E+03  0.00000000000E+00 0.  1.
         12    1    3    3    0    0 -0.64537160712E+01 -0.13258245875E+02 -0.19728713448E+02  0.24630340419E+02  0.00000000000E+00 0. -1.
         11    1    5    5    0    0 -0.49951725564E+02 -0.27770914518E+02  0.29953623398E+02  0.64526104288E+02  0.00000000000E+00 0. -1.
        -12    1    5    5    0    0  0.16300801785E+02  0.52081949285E+01 -0.19205392369E+02  0.25723307122E+02  0.00000000000E+00 0.  1.
          5    1    4    4  501    0  0.50598020450E+02 -0.55605915896E+02 -0.10952280566E+03  0.13290934849E+03  0.41800000000E+01 0.  1.
         -5    1    4    4    0  501  0.85218198552E+02  0.68919839275E+02 -0.14440850569E+03  0.18133773608E+03  0.41800000000E+01 0.  1.
</event>
<event>
11    1  0.6930157E-009  0.1573999E+03  0.7561462E-02  0.1089549E+00
         22   -1    0    0    0    0  0.00000000000E+00  0.00000000000E+00  0.13574768956E+04  0.13574768956E+04  0.00000000000E+00 0. -1.
         22   -1    0    0    0    0 -0.00000000000E+00 -0.00000000000E+00 -0.55520461180E+03  0.55520461180E+03  0.00000000000E+00 0. -1.
        -24    2    1    2    0    0 -0.38687237854E+02  0.60064723579E+02 -0.46041119528E+03  0.47074457763E+03  0.67212463456E+02 0.  0.
         25    2    1    2    0    0 -0.58246744172E+02 -0.56838091830E+02 -0.21918331523E+02  0.15083476611E+03  0.12508981382E+03 0.  0.
         24    2    1    2    0    0  0.96933982025E+02 -0.32266317488E+01  0.12846018106E+04  0.12911021636E+04  0.85652654128E+02 0.  0.
        -13    1    5    5    0    0 -0.45587666480E+01 -0.22747792872E+02  0.14754488580E+03  0.14935775092E+03  0.00000000000E+00 0.  1.
         14    1    5    5    0    0  0.10149274867E+03  0.19521161123E+02  0.11370569248E+04  0.11417444127E+04  0.00000000000E+00 0. -1.
         11    1    3    3    0    0 -0.12428529801E+02  0.48598073941E+02 -0.40747670553E+03  0.41055268443E+03  0.00000000000E+00 0. -1.
        -12    1    3    3    0    0 -0.26258708053E+02  0.11466649638E+02 -0.52934489743E+02  0.60191893199E+02  0.00000000000E+00 0.  1.
          5    1    4    4  501    0 -0.38794697066E+02 -0.73546859923E+02 -0.61485844443E+02  0.10349951977E+03  0.41800000000E+01 0.  1.
         -5    1    4    4    0  501 -0.19452047106E+02  0.16708768093E+02  0.39567512921E+02  0.47335246344E+02  0.41800000000E+01 0.  1.
</event>
<event>
11    1  0.6930157E-009  0.1624639E+03  0.7561462E-02  0.1084783E+00
         22   -1    0    0    0    0  0.00000000000E+00  0.00000000000E+00  0.59401389989E+03  0.59401389989E+03  0.00000000000E+00 0. -1.
         22   -1    0    0    0    0 -0.00000000000E+00 -0.00000000000E+00 -0.47627340274E+03  0.47627340274E+03  0.00000000000E+00 0. -1.
        -24    2    1    2    0    0 -0.60724779796E+02 -0.80452833376E+02 -0.36681060497E+03  0.38882467041E+03  0.80463949172E+02 0.  0.
         25    2    1    2    0    0  0.53651604637E+02  0.11670369911E+03 -0.90796170986E+01  0.17952228880E+03  0.12509022609E+03 0.  0.
         24    2    1    2    0    0  0.70731751591E+01 -0.36250865731E+02  0.49363071922E+03  0.50194034343E+03  0.83118387480E+02 0.  0.
        -13    1    5    5    0    0 -0.17633315890E+02  0.20641205520E+02  0.10836606166E+03  0.11171479989E+03  0.00000000000E+00 0.  1.
         14    1    5    5    0    0  0.24706491049E+02 -0.56892071251E+02  0.38526465755E+03  0.39022554354E+03  0.00000000000E+00 0. -1.
         13    1    3    3    0    0 -0.67099549416E+02 -0.69517296235E+02 -0.20617232753E+03  0.22768845523E+03  0.00000000000E+00 0. -1.
        -14    1    3    3    0    0  0.63747696198E+01 -0.10935537141E+02 -0.16063827744E+03  0.16113621517E+03  0.00000000000E+00 0.  1.
          5    1    4    4  501    0 -0.30161532092E+02  0.46895147401E+02  0.30156180952E+02  0.63527478444E+02  0.41800000000E+01 0.  1.
         -5    1    4    4    0  501  0.83813136729E+02  0.69808551706E+02 -0.39235798051E+02  0.11599481035E+03  0.41800000000E+01 0.  1.
</event>
<event>
11    1  0.6930157E-009  0.1628688E+03  0.7561462E-02  0.1084410E+00
         22   -1    0    0    0    0  0.00000000000E+00  0.00000000000E+00  0.75218799343E+03  0.75218799343E+03  0.00000000000E+00 0. -1.
         22   -1    0    0    0    0 -0.00000000000E+00 -0.00000000000E+00 -0.10231712695E+04  0.10231712695E+04  0.00000000000E+00 0. -1.
        -24    2    1    2    0    0 -0.82494573618E+02 -0.13698857292E+02 -0.42748126998E+03  0.44311770243E+03  0.81363681447E+02 0.  0.
         25    2    1    2    0    0  0.14982081017E+03 -0.15678289967E+02 -0.56738611431E+03  0.60022262541E+03  0.12509241945E+03 0.  0.
         24    2    1    2    0    0 -0.67326236550E+02  0.29377147258E+02  0.72388410821E+03  0.73201893509E+03  0.80297448889E+02 0.  0.
        -13    1    5    5    0    0  0.40359196526E+01 -0.18115523404E+02  0.23028746235E+03  0.23103414499E+03  0.00000000000E+00 0.  1.
         14    1    5    5    0    0 -0.71362156203E+02  0.47492670662E+02  0.49359664586E+03  0.50098479010E+03  0.00000000000E+00 0. -1.
         11    1    3    3    0    0 -0.71105488292E+02  0.24722749512E+02 -0.30919263264E+03  0.31822521724E+03  0.00000000000E+00 0. -1.
        -12    1    3    3    0    0 -0.11389085325E+02 -0.38421606804E+02 -0.11828863734E+03  0.12489248519E+03  0.00000000000E+00 0.  1.
          5    1    4    4  501    0  0.74185611786E+02 -0.50040439688E+02 -0.43305379688E+03  0.44222235808E+03  0.41800000000E+01 0. -1.
         -5    1    4    4    0  501  0.75635198381E+02  0.34362149721E+02 -0.13433231744E+03  0.15800026733E+03  0.41800000000E+01 0. -1.
</event>
<event>
11    1  0.6930157E-009  0.1731376E+03  0.7561462E-02  0.1075333E+00
         22   -1    0    0    0    0  0.00000000000E+00  0.00000000000E+00  0.18168211079E+03  0.18168211079E+03  0.00000000000E+00 0.  1.
         22   -1    0    0    0    0 -0.00000000000E+00 -0.00000000000E+00 -0.12092727799E+04  0.12092727799E+04  0.00000000000E+00 0.  1.
         24    2    1    2    0    0  0.86968489483E+02  0.75519335545E+01 -0.10362583928E+04  0.10430773704E+04  0.80983913170E+02 0.  0.
         25    2    1    2    0    0 -0.18063816987E+03  0.20675313769E+01 -0.18079821173E+02  0.22047421499E+03  0.12509027318E+03 0.  0.
        -24    2    1    2    0    0  0.93669680384E+02 -0.96194649313E+01  0.26747544791E+02  0.12740330534E+03  0.81545250821E+02 0.  0.
        -13    1    3    3    0    0  0.91230907834E+02 -0.18738924318E+01 -0.10180835191E+04  0.10221646844E+04  0.00000000000E+00 0.  1.
         14    1    3    3    0    0 -0.42624183508E+01  0.94258259863E+01 -0.18174873617E+02  0.20912686023E+02  0.00000000000E+00 0. -1.
         11    1    5    5    0    0  0.13103925146E+02  0.19003570571E+02 -0.19482202801E+02  0.30206038712E+02  0.00000000000E+00 0. -1.
        -12    1    5    5    0    0  0.80565755238E+02 -0.28623035502E+02  0.46229747592E+02  0.97197266633E+02  0.00000000000E+00 0.  1.
          5    1    4    4  501    0 -0.39494615464E+02  0.34921215500E+02 -0.49158418860E+02  0.72203452046E+02  0.41800000000E+01 0.  1.
         -5    1    4    4    0  501 -0.14114355440E+03 -0.32853684123E+02  0.31078597686E+02  0.14827076294E+03  0.41800000000E+01 0.  1.
</event>
<event>
11    1  0.6930157E-009  0.2020746E+03  0.7561462E-02  0.1053066E+00
         22   -1    0    0    0    0  0.00000000000E+00  0.00000000000E+00  0.22498638155E+04  0.22498638155E+04  0.00000000000E+00 0. -1.
         22   -1    0    0    0    0 -0.00000000000E+00 -0.00000000000E+00 -0.39313763885E+03  0.39313763885E+03  0.00000000000E+00 0.  1.
        -24    2    1    2    0    0  0.10244198701E+03 -0.12604316824E+03 -0.31800215534E+03  0.36723942039E+03  0.85779835200E+02 0.  0.
         25    2    1    2    0    0 -0.53594653818E+02  0.12625733816E+03  0.12479857998E+03  0.22368864186E+03  0.12509444661E+03 0.  0.
         24    2    1    2    0    0 -0.48847333191E+02 -0.21416991391E+00  0.20499297520E+04  0.20520733921E+04  0.80044428697E+02 0.  0.
        -11    1    5    5    0    0 -0.22121620089E+02  0.24896897406E+02  0.31493744379E+03  0.31669356652E+03  0.00000000000E+00 0.  1.
         12    1    5    5    0    0 -0.26725713102E+02 -0.25111067320E+02  0.17349923082E+04  0.17353798256E+04  0.00000000000E+00 0. -1.
         13    1    3    3    0    0  0.32897472606E+01  0.70471960128E+01  0.80637355975E+00  0.78189287629E+01  0.00000000000E+00 0. -1.
        -14    1    3    3    0    0  0.99152239748E+02 -0.13309036426E+03 -0.31880852890E+03  0.35942049163E+03  0.00000000000E+00 0.  1.
          5    1    4    4  501    0 -0.27924045020E+02 -0.58217292305E+01  0.74670851049E+02  0.80042821151E+02  0.41800000000E+01 0. -1.
         -5    1    4    4    0  501 -0.25670608798E+02  0.13207906739E+03  0.50127728935E+02  0.14364582071E+03  0.41800000000E+01 0. -1.
</event>
<event>
11    1  0.6930157E-009  0.1329368E+03  0.7561462E-02  0.1115712E+00
         22   -1    0    0    0    0  0.00000000000E+00  0.00000000000E+00  0.45398446071E+03  0.45398446071E+03  0.00000000000E+00 0.  1.
         22   -1    0    0    0    0 -0.00000000000E+00 -0.00000000000E+00 -0.50591664232E+03  0.50591664232E+03  0.00000000000E+00 0. -1.
         24    2    1    2    0    0  0.28552137269E+02  0.23975106896E+02 -0.42154077924E+03  0.43075572015E+03  0.80397957587E+02 0.  0.
         25    2    1    2    0    0  0.18288845178E+02 -0.25206449271E+02 -0.18511186530E+02  0.13022961783E+03  0.12508893792E+03 0.  0.
        -24    2    1    2    0    0 -0.46840982448E+02  0.12313423753E+01  0.38811978416E+03  0.39891576505E+03  0.79380267765E+02 0.  0.
        -13    1    3    3    0    0  0.33241371914E+01 -0.27117864901E+02 -0.81077067743E+02  0.85556527505E+02  0.00000000000E+00 0.  1.
         14    1    3    3    0    0  0.25228000078E+02  0.51092971796E+02 -0.34046371150E+03  0.34519919265E+03  0.00000000000E+00 0. -1.
         11    1    5    5    0    0  0.15065255386E+01 -0.13208507457E+02  0.81140408729E+01  0.15574721434E+02  0.00000000000E+00 0. -1.
        -12    1    5    5    0    0 -0.48347507986E+02  0.14439849833E+02  0.38000574329E+03  0.38334104362E+03  0.00000000000E+00 0.  1.
          5    1    4    4  501    0  0.30640818793E+02  0.10381405920E+02 -0.63508802794E+02  0.71396595139E+02  0.41800000000E+01 0.  1.
         -5    1    4    4    0  501 -0.12351973615E+02 -0.35587855191E+02  0.44997616264E+02  0.58833022689E+02  0.41800000000E+01 0.  1.
</event>
<event>
11    1  0.6930157E-009  0.1538809E+03  0.7561462E-02  0.1092978E+00
         22   -1    0    0    0    0  0.00000000000E+00  0.00000000000E+00  0.29787718238E+03  0.29787718238E+03  0.00000000000E+00 0.  1.
         22   -1    0    0    0    0 -0.00000000000E+00 -0.00000000000E+00 -0.11870996048E+04  0.11870996048E+04  0.00000000000E+00 0. -1.
         24    2    1    2    0    0  0.26721692301E+02  0.42439649888E+02 -0.11165037364E+04  0.11205723404E+04  0.81157894686E+02 0.  0.
         25    2    1    2    0    0  0.15494488234E+02 -0.11112555106E+03  0.11228099816E+03  0.20209658433E+03  0.12508812728E+03 0.  0.
        -24    2    1    2    0    0 -0.42216180535E+02  0.68685901176E+02  0.11500031583E+03  0.16230786247E+03  0.81356073288E+02 0.  0.
        -11    1    3    3    0    0 -0.27137578036E+02  0.28876926083E+02 -0.50413290403E+03  0.50568795708E+03  0.00000000000E+00 0.  1.
         12    1    3    3    0    0  0.53859270337E+02  0.13562723805E+02 -0.61237083238E+03  0.61488438330E+03  0.00000000000E+00 0. -1.
         13    1    5    5    0    0  0.19788779142E+02  0.26334479100E+01  0.65812297627E+01  0.21020071670E+02  0.00000000000E+00 0. -1.
        -14    1    5    5    0    0 -0.62004959677E+02  0.66052453266E+02  0.10841908607E+03  0.14128779080E+03  0.00000000000E+00 0.  1.
          5    1    4    4  501    0  0.25413917742E+02  0.99729386849E+01 -0.10274658199E+02  0.29468079716E+02  0.41800000000E+01 0. -1.
         -5    1    4    4    0  501 -0.99194295083E+01 -0.12109848975E+03  0.12255565636E+03  0.17262850462E+03  0.41800000000E+01 0. -1.
</event>
<event>
11    1  0.6930157E-009  0.1317195E+03  0.7561462E-02  0.1117174E+00
         22   -1    0    0    0    0  0.00000000000E+00  0.00000000000E+00  0.19089750448E+04  0.19089750448E+04  0.00000000000E+00 0. -1.
         22   -1    0    0    0    0 -0.00000000000E+00 -0.00000000000E+00 -0.33702729866E+03  0.33702729866E+03  0.00000000000E+00 0.  1.
        -24    2    1    2    0    0 -0.12385616457E+02  0.19105988213E+01 -0.32162632387E+03  0.33246996714E+03  0.83281048047E+02 0.  0.
         25    2    1    2    0    0 -0.30456075937E+02 -0.70812280299E+01  0.48523086994E+03  0.50206928597E+03  0.12508738717E+03 0.  0.
         24    2    1    2    0    0  0.42841692395E+02  0.51706292086E+01  0.14083432001E+04  0.14114630903E+04  0.83278689890E+02 0.  0.
        -11    1    5    5    0    0  0.29512692332E+02 -0.59123520241E+01  0.14946474970E+03  0.15246529545E+03  0.00000000000E+00 0.  1.
         12    1    5    5    0    0  0.13329000062E+02  0.11082981233E+02  0.12588784504E+04  0.12589977949E+04  0.00000000000E+00 0. -1.
         13    1    3    3    0    0 -0.38211147315E+02 -0.25757024660E+02 -0.19018153705E+03  0.19568478002E+03  0.00000000000E+00 0. -1.
        -14    1    3    3    0    0  0.25825530858E+02  0.27667623482E+02 -0.13144478682E+03  0.13678518712E+03  0.00000000000E+00 0.  1.
          5    1    4    4  501    0  0.41647758057E+02  0.17824210902E+01  0.79486202536E+02  0.89851219077E+02  0.41800000000E+01 0.  1.
         -5    1    4    4    0  501 -0.72103833994E+02 -0.88636491202E+01  0.40574466740E+03  0.41221806690E+03  0.41800000000E+01 0.  1.
</event>
<event>
11    1  0.6930157E-009  0.2946393E+03  0.7561462E-02  0.1002486E+00
         22   -1    0    0    0    0  0.00000000000E+00  0.00000000000E+00  0.29444609873E+03  0.29444609873E+03  0.00000000000E+00 0. -1.
         22   -1    0    0    0    0 -0.00000000000E+00 -0.00000000000E+00 -0.76456464966E+03  0.76456464966E+03  0.00000000000E+00 0.  1.
        -24    2    1    2    0    0  0.12255881278E+03 -0.31523231715E+03 -0.35526032701E+03  0.49728365874E+03  0.81786679491E+02 0.  0.
         25    2    1    2    0    0 -0.13402887651E+03  0.17218908699E+03 -0.24420703643E+03  0.35056559237E+03  0.12508531686E+03 0.  0.
         24    2    1    2    0    0  0.11470063727E+02  0.14304323016E+03  0.12934881250E+03  0.21116149728E+03  0.85235758822E+02 0.  0.
        -11    1    5    5    0    0 -0.32858088662E+02  0.62283875849E+02  0.32706194995E+02  0.77644255244E+02  0.00000000000E+00 0.  1.
         12    1    5    5    0    0  0.44328152388E+02  0.80759354314E+02  0.96642617506E+02  0.13351724204E+03  0.00000000000E+00 0. -1.
         11    1    3    3    0    0  0.66417085632E+02 -0.26274610154E+03 -0.28169759566E+03  0.39089676200E+03  0.00000000000E+00 0. -1.
        -12    1    3    3    0    0  0.56141727150E+02 -0.52486215613E+02 -0.73562731344E+02  0.10638689675E+03  0.00000000000E+00 0.  1.
          5    1    4    4  501    0 -0.14565380131E+03  0.15413861128E+03 -0.16596685549E+03  0.26932547381E+03  0.41800000000E+01 0. -1.
         -5    1    4    4    0  501  0.11624924796E+02  0.18050475710E+02 -0.78240180939E+02  0.81240118558E+02  0.41800000000E+01 0. -1.
</event>
<event>
11    1  0.6930157E-009  0.1704092E+03  0.7561462E-02  0.1077676E+00
         22   -1    0    0    0    0  0.00000000000E+00  0.00000000000E+00  0.24644661729E+04  0.24644661729E+04  0.00000000000E+00 0. -1.
         22   -1    0    0    0    0 -0.00000000000E+00 -0.00000000000E+00 -0.92250642744E+03  0.92250642744E+03  0.00000000000E+00 0.  1.
         24    2    1    2    0    0 -0.48017319782E+02 -0.10486425939E+03 -0.89980393429E+03  0.91071074463E+03  0.80279289450E+02 0.  0.
         25    2    1    2    0    0  0.10102042106E+03  0.13454021673E+03  0.67806631313E+03  0.70973853770E+03  0.12509465018E+03 0.  0.
        -24    2    1    2    0    0 -0.53003101279E+02 -0.29675957339E+02  0.17636973667E+04  0.17665233181E+04  0.79285817498E+02 0.  0.
        -11    1    3    3    0    0 -0.55003425228E+02 -0.25453861701E+02 -0.36479875414E+03  0.36979914397E+03  0.00000000000E+00 0.  1.
         12    1    3    3    0    0  0.69861054463E+01 -0.79410397687E+02 -0.53500518016E+03  0.54091160066E+03  0.00000000000E+00 0. -1.
         11    1    5    5    0    0 -0.64273195185E+02 -0.45672866945E+02  0.15188458131E+04  0.15208910738E+04  0.00000000000E+00 0. -1.
        -12    1    5    5    0    0  0.11270093907E+02  0.15996909606E+02  0.24485155357E+03  0.24563224426E+03  0.00000000000E+00 0.  1.
          5    1    4    4  501    0  0.27784151780E+02  0.10246540052E+03  0.21520027384E+03  0.23999947427E+03  0.41800000000E+01 0. -1.
         -5    1    4    4    0  501  0.73236269280E+02  0.32074816211E+02  0.46286603930E+03  0.46973906343E+03  0.41800000000E+01 0. -1.
</event>
<event>
11    1  0.6930157E-009  0.2681971E+03  0.7561462E-02  0.1014628E+00
         22   -1    0    0    0    0  0.00000000000E+00  0.00000000000E+00  0.69472261533E+03  0.69472261533E+03  0.00000000000E+00 0. -1.
         22   -1    0    0    0    0 -0.00000000000E+00 -0.00000000000E+00 -0.93842055297E+03  0.93842055297E+03  0.00000000000E+00 0. -1.
         24    2    1    2    0    0  0.38457030951E+02 -0.38943133076E+02 -0.22917476747E+03  0.24921369646E+03  0.81184244879E+02 0.  0.
         25    2    1    2    0    0  0.16219229466E+03  0.16624818539E+03 -0.64963221922E+03  0.70115216599E+03  0.12509012761E+03 0.  0.
        -24    2    1    2    0    0 -0.20064932561E+03 -0.12730505231E+03  0.63510904905E+03  0.68277730585E+03  0.79715851553E+02 0.  0.
        -11    1    3    3    0    0  0.78666384084E+01  0.12836800532E+02 -0.32249733233E+01  0.15397009472E+02  0.00000000000E+00 0.  1.
         12    1    3    3    0    0  0.30590392542E+02 -0.51779933609E+02 -0.22594979415E+03  0.23381668699E+03  0.00000000000E+00 0. -1.
         11    1    5    5    0    0 -0.87960833694E+02 -0.20130498411E+02  0.30125966130E+03  0.31448327261E+03  0.00000000000E+00 0. -1.
        -12    1    5    5    0    0 -0.11268849192E+03 -0.10717455390E+03  0.33384938776E+03  0.36829403324E+03  0.00000000000E+00 0.  1.
          5    1    4    4  501    0  0.96718871294E+02  0.45148568482E+02 -0.42010787153E+03  0.43347552344E+03  0.41800000000E+01 0. -1.
         -5    1    4    4    0  501  0.65473423368E+02  0.12109961690E+03 -0.22952434769E+03  0.26767664255E+03  0.41800000000E+01 0. -1.
</event>
<event>
11    1  0.6930157E-009  0.1604452E+03  0.7561462E-02  0.1086659E+00
         22   -1    0    0    0    0  0.00000000000E+00  0.00000000000E+00  0.57587307236E+03  0.57587307236E+03  0.00000000000E+00 0.  1.
         22   -1    0    0    0    0 -0.00000000000E+00 -0.00000000000E+00 -0.19846713743E+03  0.19846713743E+03  0.00000000000E+00 0. -1.
         24    2    1    2    0    0  0.32166659833E+01 -0.10976840469E+02 -0.12955177965E+03  0.15322686557E+03  0.81018335917E+02 0.  0.
         25    2    1    2    0    0  0.57537787019E+02  0.89550778366E+02  0.94867940493E+02  0.18967794380E+03  0.12509139615E+03 0.  0.
        -24    2    1    2    0    0 -0.60754453003E+02 -0.78573937897E+02  0.41208977408E+03  0.43143540042E+03  0.80334024866E+02 0.  0.
        -11    1    3    3    0    0  0.92110084512E+01 -0.28884650233E+02 -0.96053717361E+01  0.31802969389E+02  0.00000000000E+00 0.  1.
         12    1    3    3    0    0 -0.59943424679E+01  0.17907809763E+02 -0.11994640791E+03  0.12142389618E+03  0.00000000000E+00 0. -1.
         13    1    5    5    0    0 -0.22739874209E+02 -0.24191552312E+02  0.33830768550E+02  0.47400991371E+02  0.00000000000E+00 0. -1.
        -14    1    5    5    0    0 -0.38014578794E+02 -0.54382385585E+02  0.37825900553E+03  0.38403440905E+03  0.00000000000E+00 0.  1.
          5    1    4    4  501    0 -0.80604832509E+01 -0.19563701760E+02  0.50289423458E+02  0.54719359724E+02  0.41800000000E+01 0. -1.
         -5    1    4    4    0  501  0.65598270270E+02  0.10911448013E+03  0.44578517035E+02  0.13495858408E+03  0.41800000000E+01 0. -1.
</event>
<event>
11    1  0.6930157E-009  0.1313157E+03  0.7561462E-02  0.1117663E+00
         22   -1    0    0    0    0  0.00000000000E+00  0.00000000000E+00  0.27463350658E+03  0.27463350658E+03  0.00000000000E+00 0. -1.
         22   -1    0    0    0    0 -0.00000000000E+00 -0.00000000000E+00 -0.61621902834E+03  0.61621902834E+03  0.00000000000E+00 0.  1.
         24    2    1    2    0    0 -0.18484739547E+02  0.45987038347E+01 -0.40672663066E+03  0.41489475240E+03  0.79676030322E+02 0.  0.
         25    2    1    2    0    0  0.55996211004E+02 -0.15963613073E+02 -0.17314629202E+03  0.22140002079E+03  0.12509163911E+03 0.  0.
        -24    2    1    2    0    0 -0.37511471457E+02  0.11364909238E+02  0.23828740092E+03  0.25455776173E+03  0.80513955101E+02 0.  0.
        -11    1    3    3    0    0 -0.27337700162E+02  0.18955214969E+02 -0.38902280016E+03  0.39044255541E+03  0.00000000000E+00 0.  1.
         12    1    3    3    0    0  0.88529606154E+01 -0.14356511135E+02 -0.17703830498E+02  0.24452196996E+02  0.00000000000E+00 0. -1.
         11    1    5    5    0    0 -0.46109719066E+01  0.36612169246E+02  0.17531296005E+03  0.17915453096E+03  0.00000000000E+00 0. -1.
        -12    1    5    5    0    0 -0.32900499551E+02 -0.25247260008E+02  0.62974440863E+02  0.75403230771E+02  0.00000000000E+00 0.  1.
          5    1    4    4  501    0  0.82586701749E+02 -0.42584712676E+02 -0.15154574746E+03  0.17781340510E+03  0.41800000000E+01 0.  1.
         -5    1    4    4    0  501 -0.26590490744E+02  0.26621099603E+02 -0.21600544567E+02  0.43586615694E+02  0.41800000000E+01 0.  1.
</event>
<event>
11    1  0.6930157E-009  0.1363694E+03  0.7561462E-02  0.1111682E+00
         22   -1    0    0    0    0  0.00000000000E+00  0.00000000000E+00  0.94708395280E+03  0.94708395280E+03  0.00000000000E+00 0. -1.
         22   -1    0    0    0    0 -0.00000000000E+00 -0.00000000000E+00 -0.39968545566E+03  0.39968545566E+03  0.00000000000E+00 0.  1.
        -24    2    1    2    0    0  0.33309667473E+02 -0.41765617612E+02 -0.31443647325E+03  0.32899976250E+03  0.80725753380E+02 0.  0.
         25    2    1    2    0    0 -0.24146198589E+02  0.59979444233E+02 -0.10708126053E+02  0.14121723332E+03  0.12508825039E+03 0.  0.
         24    2    1    2    0    0 -0.91634688839E+01 -0.18213826621E+02  0.87254309644E+03  0.87655241265E+03  0.81221698642E+02 0.  0.
        -13    1    5    5    0    0  0.17437514163E+02 -0.33172308156E+02  0.21075843755E+03  0.21406444807E+03  0.00000000000E+00 0.  1.
         14    1    5    5    0    0 -0.26600983046E+02  0.14958481535E+02  0.66178465888E+03  0.66248796457E+03  0.00000000000E+00 0. -1.
         11    1    3    3    0    0  0.25075307804E+02 -0.41053100401E+02 -0.73019014650E+02  0.87440863528E+02  0.00000000000E+00 0. -1.
        -12    1    3    3    0    0  0.82343596696E+01 -0.71251721094E+00 -0.24141745860E+03  0.24155889898E+03  0.00000000000E+00 0.  1.
          5    1    4    4  501    0  0.38811477847E+02  0.25547106748E+02  0.32952016127E+02  0.57116488361E+02  0.41800000000E+01 0.  1.
         -5    1    4    4    0  501 -0.62957676437E+02  0.34432337485E+02 -0.43660142180E+02  0.84100744956E+02  0.41800000000E+01 0.  1.
</event>
<event>
11    1  0.6930157E-009  0.1434706E+03  0.7561462E-02  0.1103744E+00
         22   -1    0    0    0    0  0.00000000000E+00  0.00000000000E+00  0.13817946532E+03  0.13817946532E+03  0.00000000000E+00 0. -1.
         22   -1    0    0    0    0 -0.00000000000E+00 -0.00000000000E+00 -0.20825757810E+04  0.20825757810E+04  0.00000000000E+00 0. -1.
         24    2    1    2    0    0 -0.61011957778E+02 -0.33752426736E+02 -0.16147716285E+04  0.16182563381E+04  0.80027984846E+02 0.  0.
         25    2    1    2    0    0  0.26023954328E+02  0.98730860257E+02 -0.43039282171E+03  0.45968591944E+03  0.12509250411E+03 0.  0.
        -24    2    1    2    0    0  0.34988003450E+02 -0.64978433521E+02  0.10076813448E+03  0.14281298881E+03  0.69245762602E+02 0.  0.
        -11    1    3    3    0    0 -0.63498740447E+02 -0.46806301096E+02 -0.92527098640E+03  0.92862765312E+03  0.00000000000E+00 0.  1.
         12    1    3    3    0    0  0.24867826693E+01  0.13053874360E+02 -0.68950064209E+03  0.68962868499E+03  0.00000000000E+00 0. -1.
         11    1    5    5    0    0  0.18673511510E+02 -0.50887805456E+02  0.10736199603E+03  0.12026997533E+03  0.00000000000E+00 0. -1.
        -12    1    5    5    0    0  0.16314491940E+02 -0.14090628065E+02 -0.65938615458E+01  0.22543013477E+02  0.00000000000E+00 0.  1.
          5    1    4    4  501    0  0.36829270561E+02  0.13987045671E+02 -0.30701122630E+03  0.30955677684E+03  0.41800000000E+01 0. -1.
         -5    1    4    4    0  501 -0.10805316234E+02  0.84743814586E+02 -0.12338159541E+03  0.15012914259E+03  0.41800000000E+01 0. -1.
</event>
<event>
11    1  0.6930157E-009  0.1622484E+03  0.7561462E-02  0.1084981E+00
         22   -1    0    0    0    0  0.00000000000E+00  0.00000000000E+00  0.38689761040E+03  0.38689761040E+03  0.00000000000E+00 0.  1.
         22   -1    0    0    0    0 -0.00000000000E+00 -0.00000000000E+00 -0.47819309356E+03  0.47819309356E+03  0.00000000000E+00 0. -1.
        -24    2    1    2    0    0 -0.26842678156E+01  0.34873604299E+02 -0.38123112989E+03  0.38983002236E+03  0.73531614741E+02 0.  0.
         25    2    1    2    0    0 -0.87895213649E+02 -0.80296179638E+02  0.14611853664E+02  0.17329883182E+03  0.12508370715E+03 0.  0.
         24    2    1    2    0    0  0.90579481465E+02  0.45422575339E+02  0.27532379307E+03  0.30196184978E+03  0.71483668630E+02 0.  0.
        -11    1    5    5    0    0  0.89363408627E+02  0.37903090983E+02  0.27754282010E+03  0.29402802604E+03  0.00000000000E+00 0.  1.
         12    1    5    5    0    0  0.12160728377E+01  0.75194843552E+01 -0.22190270359E+01  0.79338237377E+01  0.00000000000E+00 0. -1.
         13    1    3    3    0    0  0.26923117075E+01  0.57769149041E+02 -0.26321804676E+03  0.26949631401E+03  0.00000000000E+00 0. -1.
        -14    1    3    3    0    0 -0.53765795231E+01 -0.22895544742E+02 -0.11801308313E+03  0.12033370836E+03  0.00000000000E+00 0.  1.
          5    1    4    4  501    0 -0.94680024356E+02 -0.41136221275E+01  0.18305698136E+02  0.96611592903E+02  0.41800000000E+01 0. -1.
         -5    1    4    4    0  501  0.67848107069E+01 -0.76182557510E+02 -0.36938444723E+01  0.76687238913E+02  0.41800000000E+01 0. -1.
</event>
<event>
11    1  0.6930157E-009  0.1280761E+03  0.7561462E-02  0.1121656E+00
         22   -1    0    0    0    0  0.00000000000E+00  0.00000000000E+00  0.44962174954E+03  0.44962174954E+03  0.00000000000E+00 0.  1.
         22   -1    0    0    0    0 -0.00000000000E+00 -0.00000000000E+00 -0.43344292905E+03  0.43344292905E+03  0.00000000000E+00 0. -1.
        -24    2    1    2    0    0  0.15297066933E+02 -0.55214627600E+01 -0.37598420094E+03  0.38459609598E+03  0.79281466175E+02 0.  0.
         25    2    1    2    0    0 -0.32902519823E+02  0.24832530311E+02  0.42055980860E+02  0.13825588941E+03  0.12508698996E+03 0.  0.
         24    2    1    2    0    0  0.17605452891E+02 -0.19311067551E+02  0.35010704057E+03  0.36021269321E+03  0.80593890512E+02 0.  0.
        -11    1    5    5    0    0  0.13571517128E+02 -0.35924058444E+02  0.33560378643E+03  0.33779376181E+03  0.00000000000E+00 0.  1.
         12    1    5    5    0    0  0.40339357625E+01  0.16612990893E+02  0.14503254137E+02  0.22418931391E+02  0.00000000000E+00 0. -1.
         11    1    3    3    0    0  0.45016036039E+02 -0.90267428176E+00 -0.14977599199E+03  0.15639727011E+03  0.00000000000E+00 0. -1.
        -12    1    3    3    0    0 -0.29718969106E+02 -0.46187884783E+01 -0.22620820895E+03  0.22819882587E+03  0.00000000000E+00 0.  1.
          5    1    4    4  501    0 -0.21321393508E+02 -0.51286480125E+01 -0.42335662834E+02  0.47861107375E+02  0.41800000000E+01 0. -1.
         -5    1    4    4    0  501 -0.11581126316E+02  0.29961178324E+02  0.84391643694E+02  0.90394782032E+02  0.41800000000E+01 0. -1.
</event>
<event>
11    1  0.6930157E-009  0.2432011E+03  0.7561462E-02  0.1027585E+00
         22   -1    0    0    0    0  0.00000000000E+00  0.00000000000E+00  0.27502309930E+03  0.27502309930E+03  0.00000000000E+00 0. -1.
         22   -1    0    0    0    0 -0.00000000000E+00 -0.00000000000E+00 -0.13725427217E+04  0.13725427217E+04  0.00000000000E+00 0. -1.
         24    2    1    2    0    0 -0.17270915961E+03 -0.12056798642E+03 -0.10018371627E+04  0.10269426220E+04  0.81045390133E+02 0.  0.
         25    2    1    2    0    0  0.13628280231E+03  0.15480355892E+03 -0.30629158695E+03  0.38987117022E+03  0.12509136289E+03 0.  0.
        -24    2    1    2    0    0  0.36426357297E+02 -0.34235572502E+02  0.21060912719E+03  0.23075202878E+03  0.79945859160E+02 0.  0.
        -13    1    3    3    0    0 -0.53438461042E+02  0.25777506907E+01 -0.20441733813E+03  0.21130253677E+03  0.00000000000E+00 0.  1.
         14    1    3    3    0    0 -0.11927069856E+03 -0.12314573711E+03 -0.79741982453E+03  0.81564008525E+03  0.00000000000E+00 0. -1.
         13    1    5    5    0    0 -0.13261437560E+02 -0.29384640637E+02  0.14368941041E+03  0.14726156829E+03  0.00000000000E+00 0. -1.
        -14    1    5    5    0    0  0.49687794857E+02 -0.48509318649E+01  0.66919716784E+02  0.83490460486E+02  0.00000000000E+00 0.  1.
          5    1    4    4  501    0  0.17999424247E+02  0.99272213314E+02 -0.81237576055E+02  0.12959925838E+03  0.41800000000E+01 0.  1.
         -5    1    4    4    0  501  0.11828337806E+03  0.55531345607E+02 -0.22505401090E+03  0.26027191184E+03  0.41800000000E+01 0.  1.
</event>
<event>
11    1  0.6930157E-009  0.1546776E+03  0.7561462E-02  0.1092193E+00
         22   -1    0    0    0    0  0.00000000000E+00  0.00000000000E+00  0.86125415340E+03  0.86125415340E+03  0.00000000000E+00 0. -1.
         22   -1    0    0    0    0 -0.00000000000E+00 -0.00000000000E+00 -0.49760232203E+02  0.49760232203E+02  0.00000000000E+00 0.  1.
        -24    2    1    2    0    0  0.90303748456E+02 -0.24486457738E+02  0.13023394254E+03  0.17937409722E+03  0.80373088561E+02 0.  0.
         25    2    1    2    0    0 -0.77122774361E+02  0.42429280255E+02  0.25394890288E+03  0.29645478920E+03  0.12508889087E+03 0.  0.
         24    2    1    2    0    0 -0.13180974095E+02 -0.17942822517E+02  0.42731107578E+03  0.43518549919E+03  0.79347213326E+02 0.  0.
        -13    1    5    5    0    0 -0.12939394128E+02 -0.70873504385E+01  0.10206581867E+02  0.17939698159E+02  0.00000000000E+00 0.  1.
         14    1    5    5    0    0 -0.24157996707E+00 -0.10855472078E+02  0.41710449392E+03  0.41724580103E+03  0.00000000000E+00 0. -1.
         13    1    3    3    0    0  0.54495229904E+02  0.25128571225E+02  0.81172408834E+02  0.10094619919E+03  0.00000000000E+00 0. -1.
        -14    1    3    3    0    0  0.35808518552E+02 -0.49615028964E+02  0.49061533708E+02  0.78427898032E+02  0.00000000000E+00 0.  1.
          5    1    4    4  501    0 -0.50684346062E+01  0.60727314507E+02  0.48706778548E+02  0.78123737962E+02  0.41800000000E+01 0. -1.
         -5    1    4    4    0  501 -0.72054339755E+02 -0.18298034252E+02  0.20524212433E+03  0.21833105123E+03  0.41800000000E+01 0. -1.
</event>
<event>
11    1  0.6930157E-009  0.1317705E+03  0.7561462E-02  0.1117113E+00
         22   -1    0    0    0    0  0.00000000000E+00  0.00000000000E+00  0.37770930192E+03  0.37770930192E+03  0.00000000000E+00 0. -1.
         22   -1    0    0    0    0 -0.00000000000E+00 -0.00000000000E+00 -0.44026556083E+03  0.44026556083E+03  0.00000000000E+00 0.  1.
        -24    2    1    2    0    0  0.13749941462E+02  0.16233447961E+02 -0.34919114517E+03  0.35970475099E+03  0.83668789295E+02 0.  0.
         25    2    1    2    0    0 -0.62401739827E+01 -0.55606671702E+02 -0.16815471796E+02  0.13806397351E+03  0.12509140250E+03 0.  0.
         24    2    1    2    0    0 -0.75097674789E+01  0.39373223741E+02  0.30345035805E+03  0.32020613824E+03  0.94038310317E+02 0.  0.
        -13    1    5    5    0    0  0.18318566885E+02 -0.90264515770E+01  0.12103055810E+02  0.23738801165E+02  0.00000000000E+00 0.  1.
         14    1    5    5    0    0 -0.25828334364E+02  0.48399675317E+02  0.29134730224E+03  0.29646733707E+03  0.00000000000E+00 0. -1.
         11    1    3    3    0    0 -0.31484520561E+02  0.18350244167E+02 -0.21531926503E+03  0.21838130045E+03  0.00000000000E+00 0. -1.
        -12    1    3    3    0    0  0.45234462022E+02 -0.21167962058E+01 -0.13387188014E+03  0.14132345054E+03  0.00000000000E+00 0.  1.
          5    1    4    4  501    0  0.55431999998E+02 -0.10678647717E+02 -0.23639362824E+02  0.61343557246E+02  0.41800000000E+01 0. -1.
         -5    1    4    4    0  501 -0.61672173981E+02 -0.44928023985E+02  0.68238910275E+01  0.76720416263E+02  0.41800000000E+01 0. -1.
</event>
<event>
11    1  0.6930157E-009  0.1876236E+03  0.7561462E-02  0.1063638E+00
         22   -1    0    0    0    0  0.00000000000E+00  0.00000000000E+00  0.41406983357E+03  0.41406983357E+03  0.00000000000E+00 0.  1.
         22   -1    0    0    0    0 -0.00000000000E+00 -0.00000000000E+00 -0.87739756057E+03  0.87739756057E+03  0.00000000000E+00 0. -1.
        -24    2    1    2    0    0 -0.13403027945E+03 -0.26458619128E+02 -0.76859445348E+03  0.78476476601E+03  0.80337598414E+02 0.  0.
         25    2    1    2    0    0  0.19997954386E+03  0.80530132535E+02  0.95782004104E+02  0.26702041747E+03  0.12509512710E+03 0.  0.
         24    2    1    2    0    0 -0.65949264409E+02 -0.54071513407E+02  0.20948472237E+03  0.23968221067E+03  0.79313801876E+02 0.  0.
        -11    1    5    5    0    0 -0.82119255151E+02 -0.48525860952E+02  0.19575186736E+03  0.21775473547E+03  0.00000000000E+00 0.  1.
         12    1    5    5    0    0  0.16169990742E+02 -0.55456524548E+01  0.13732855014E+02  0.21927475198E+02  0.00000000000E+00 0. -1.
         11    1    3    3    0    0 -0.48055399989E+02 -0.13499529264E+02 -0.49914723750E+03  0.50163684420E+03  0.00000000000E+00 0. -1.
        -12    1    3    3    0    0 -0.85974879463E+02 -0.12959089864E+02 -0.26944721598E+03  0.28312792181E+03  0.00000000000E+00 0.  1.
          5    1    4    4  501    0  0.19380459214E+03  0.29793085867E+02  0.88702221031E+02  0.21525195543E+03  0.41800000000E+01 0. -1.
         -5    1    4    4    0  501  0.61749517214E+01  0.50737046669E+02  0.70797830733E+01  0.51768462038E+02  0.41800000000E+01 0. -1.
</event>
<event>
11    1  0.6930157E-009  0.1367280E+03  0.7561462E-02  0.1111268E+00
         22   -1    0    0    0    0  0.00000000000E+00  0.00000000000E+00  0.22421211031E+03  0.22421211031E+03  0.00000000000E+00 0.  1.
         22   -1    0    0    0    0 -0.00000000000E+00 -0.00000000000E+00 -0.64396319295E+03  0.64396319295E+03  0.00000000000E+00 0.  1.
        -24    2    1    2    0    0  0.43076818253E+02 -0.32618300097E+02 -0.55317387191E+03  0.56123286236E+03  0.77855169752E+02 0.  0.
         25    2    1    2    0    0 -0.44649799248E+02  0.67771360371E+02  0.13204306929E+00  0.14911032277E+03  0.12508920442E+03 0.  0.
         24    2    1    2    0    0  0.15729809955E+01 -0.35153060274E+02  0.13329074620E+03  0.15783211814E+03  0.76852733068E+02 0.  0.
        -13    1    5    5    0    0 -0.37416738153E+02 -0.12968736499E+02  0.59394742088E+02  0.71385823579E+02  0.00000000000E+00 0.  1.
         14    1    5    5    0    0  0.38989719148E+02 -0.22184323775E+02  0.73896004109E+02  0.86446294564E+02  0.00000000000E+00 0. -1.
         11    1    3    3    0    0  0.27358756217E+02 -0.50253531559E+02 -0.22330077002E+03  0.23051497320E+03  0.00000000000E+00 0. -1.
        -12    1    3    3    0    0  0.15718062036E+02  0.17635231462E+02 -0.32987310188E+03  0.33071788916E+03  0.00000000000E+00 0.  1.
          5    1    4    4  501    0 -0.33602326907E+01 -0.35558213518E+02 -0.99250801346E+01  0.37304923643E+02  0.41800000000E+01 0.  1.
         -5    1    4    4    0  501 -0.41289566558E+02  0.10332957389E+03  0.10057123204E+02  0.11180539913E+03  0.41800000000E+01 0.  1.
</event>
<event>
11    1  0.6930157E-009  0.1361062E+03  0.7561462E-02  0.1111986E+00
         22   -1    0    0    0    0  0.00000000000E+00  0.00000000000E+00  0.86396872083E+03  0.86396872083E+03  0.00000000000E+00 0. -1.
         22   -1    0    0    0    0 -0.00000000000E+00 -0.00000000000E+00 -0.21839067051E+03  0.21839067051E+03  0.00000000000E+00 0.  1.
         24    2    1    2    0    0  0.38542932798E+02 -0.36328161549E+02 -0.18744200615E+03  0.21079966223E+03  0.80602102544E+02 0.  0.
         25    2    1    2    0    0 -0.66167352825E+02  0.36744650013E+02  0.32152389835E+03  0.35320303063E+03  0.12508587351E+03 0.  0.
        -24    2    1    2    0    0  0.27624420027E+02 -0.41648846347E+00  0.51149615812E+03  0.51835669847E+03  0.79385546760E+02 0.  0.
        -13    1    3    3    0    0  0.49996914324E+02 -0.53965849993E+02 -0.12656331454E+03  0.14639083645E+03  0.00000000000E+00 0.  1.
         14    1    3    3    0    0 -0.11453981526E+02  0.17637688444E+02 -0.60878691611E+02  0.64408825782E+02  0.00000000000E+00 0. -1.
         11    1    5    5    0    0  0.30688739749E+02 -0.28792378728E+02  0.42908019634E+03  0.43113874184E+03  0.00000000000E+00 0. -1.
        -12    1    5    5    0    0 -0.30643197223E+01  0.28375890264E+02  0.82415961777E+02  0.87217956634E+02  0.00000000000E+00 0.  1.
          5    1    4    4  501    0 -0.20113354121E+01 -0.25048070194E+02  0.20447649515E+03  0.20605717837E+03  0.41800000000E+01 0. -1.
         -5    1    4    4    0  501 -0.64156017412E+02  0.61792720207E+02  0.11704740321E+03  0.14714585226E+03  0.41800000000E+01 0. -1.
</event>
<event>
11    1  0.6930157E-009  0.1546242E+03  0.7561462E-02  0.1092245E+00
         22   -1    0    0    0    0  0.00000000000E+00  0.00000000000E+00  0.14648439373E+04  0.14648439373E+04  0.00000000000E+00 0. -1.
         22   -1    0    0    0    0 -0.00000000000E+00 -0.00000000000E+00 -0.18234923109E+03  0.18234923109E+03  0.00000000000E+00 0. -1.
         24    2    1    2    0    0  0.17626977958E+02  0.10614340324E+03 -0.91637777089E+02  0.16242258961E+03  0.80040508634E+02 0.  0.
         25    2    1    2    0    0  0.59081564824E+02 -0.46873029309E+02  0.49511746042E+02  0.15423169889E+03  0.12509313238E+03 0.  0.
        -24    2    1    2    0    0 -0.76708542782E+02 -0.59270373935E+02  0.13246207372E+04  0.13305388798E+04  0.79476006330E+02 0.  0.
        -11    1    3    3    0    0  0.19343990810E+02  0.13902471573E+02  0.93932111439E+01  0.25606661475E+02  0.00000000000E+00 0.  1.
         12    1    3    3    0    0 -0.17170128520E+01  0.92240931671E+02 -0.10103098823E+03  0.13681592814E+03  0.00000000000E+00 0. -1.
         11    1    5    5    0    0 -0.80739492137E+02 -0.56236094329E+02  0.13201080396E+04  0.13237698441E+04  0.00000000000E+00 0. -1.
        -12    1    5    5    0    0  0.40309493550E+01 -0.30342796052E+01  0.45126976061E+01  0.67690357592E+01  0.00000000000E+00 0.  1.
          5    1    4    4  501    0  0.67900082242E+02  0.24611199468E+02  0.36091768606E+02  0.80846895233E+02  0.41800000000E+01 0. -1.
         -5    1    4    4    0  501 -0.88185174187E+01 -0.71484228778E+02  0.13419977436E+02  0.73384803657E+02  0.41800000000E+01 0. -1.
</event>
<event>
11    1  0.6930157E-009  0.1427223E+03  0.7561462E-02  0.1104556E+00
         22   -1    0    0    0    0  0.00000000000E+00  0.00000000000E+00  0.10974381306E+04  0.10974381306E+04  0.00000000000E+00 0. -1.
         22   -1    0    0    0    0 -0.00000000000E+00 -0.00000000000E+00 -0.19486257856E+03  0.19486257856E+03  0.00000000000E+00 0. -1.
         24    2    1    2    0    0 -0.61319458183E+01  0.34717057383E+02 -0.15296343105E+03  0.17885710342E+03  0.85727343214E+02 0.  0.
         25    2    1    2    0    0 -0.53394178237E+02  0.46176678168E+01  0.15417994430E+03  0.20565033172E+03  0.12509333551E+03 0.  0.
        -24    2    1    2    0    0  0.59526124056E+02 -0.39334725200E+02  0.90135903876E+03  0.90779327399E+03  0.80931647040E+02 0.  0.
        -11    1    3    3    0    0 -0.12220579094E+02 -0.75238813164E+00  0.75328855926E+01  0.14375430660E+02  0.00000000000E+00 0.  1.
         12    1    3    3    0    0  0.60886332761E+01  0.35469445515E+02 -0.16049631664E+03  0.16448167276E+03  0.00000000000E+00 0. -1.
         11    1    5    5    0    0  0.28951438084E+02 -0.32700691659E+02  0.81092602650E+03  0.81210131231E+03  0.00000000000E+00 0. -1.
        -12    1    5    5    0    0  0.30574685972E+02 -0.66340335412E+01  0.90433012261E+02  0.95691961678E+02  0.00000000000E+00 0.  1.
          5    1    4    4  501    0  0.28796191691E+01  0.27956652045E+01 -0.20902046305E+02  0.21690456202E+02  0.41800000000E+01 0.  1.
         -5    1    4    4    0  501 -0.56273797407E+02  0.18220026123E+01  0.17508199060E+03  0.18395987552E+03  0.41800000000E+01 0.  1.
</event>
<event>
11    1  0.6930157E-009  0.1379348E+03  0.7561462E-02  0.1109887E+00
         22   -1    0    0    0    0  0.00000000000E+00  0.00000000000E+00  0.36574655711E+03  0.36574655711E+03  0.00000000000E+00 0.  1.
         22   -1    0    0    0    0 -0.00000000000E+00 -0.00000000000E+00 -0.25277008164E+03  0.25277008164E+03  0.00000000000E+00 0. -1.
         24    2    1    2    0    0  0.18969252540E+02  0.52357833791E+02 -0.17303759492E+03  0.19818884457E+03  0.78966027866E+02 0.  0.
         25    2    1    2    0    0 -0.53381264601E+02 -0.60369859073E+02  0.33317022359E+02  0.15249764396E+03  0.12510566790E+03 0.  0.
        -24    2    1    2    0    0  0.34412012061E+02  0.80120252821E+01  0.25269704803E+03  0.26783015022E+03  0.81417517504E+02 0.  0.
        -11    1    3    3    0    0 -0.49828630052E+01  0.38296300764E+02 -0.21648385874E+02  0.44272883201E+02  0.00000000000E+00 0.  1.
         12    1    3    3    0    0  0.23952115545E+02  0.14061533027E+02 -0.15138920904E+03  0.15391596137E+03  0.00000000000E+00 0. -1.
         11    1    5    5    0    0 -0.26497609362E+02  0.29753613188E+01  0.59624320116E+02  0.65314895898E+02  0.00000000000E+00 0. -1.
        -12    1    5    5    0    0  0.60909621423E+02  0.50366639633E+01  0.19307272792E+03  0.20251525432E+03  0.00000000000E+00 0.  1.
          5    1    4    4  501    0  0.17085701096E+02 -0.38704183406E+02  0.60387082333E+02  0.73851249872E+02  0.41800000000E+01 0. -1.
         -5    1    4    4    0  501 -0.70466965697E+02 -0.21665675668E+02 -0.27070059974E+02  0.78646394092E+02  0.41800000000E+01 0. -1.
</event>
<event>
11    1  0.6930157E-009  0.3445455E+03  0.7561462E-02  0.9829229E-01
         22   -1    0    0    0    0  0.00000000000E+00  0.00000000000E+00  0.24390832922E+04  0.24390832922E+04  0.00000000000E+00 0. -1.
         22   -1    0    0    0    0 -0.00000000000E+00 -0.00000000000E+00 -0.47539783711E+03  0.47539783711E+03  0.00000000000E+00 0. -1.
        -24    2    1    2    0    0 -0.17493264338E+03 -0.30328612102E+03 -0.35161099259E+03  0.50319283092E+03  0.83599246789E+02 0.  0.
         25    2    1    2    0    0  0.12197252281E+03  0.16026639888E+03  0.27096106482E+03  0.36004144367E+03  0.12508927845E+03 0.  0.
         24    2    1    2    0    0  0.52960120569E+02  0.14301972214E+03  0.20443353828E+04  0.20512468547E+04  0.71042847056E+02 0.  0.
        -13    1    5    5    0    0  0.95960854637E+00  0.53448644018E+02  0.38649784589E+03  0.39017722034E+03  0.00000000000E+00 0.  1.
         14    1    5    5    0    0  0.52000512023E+02  0.89571078121E+02  0.16578375370E+04  0.16610696344E+04  0.00000000000E+00 0. -1.
         13    1    3    3    0    0 -0.18324559615E+03 -0.29649524360E+03 -0.33516275001E+03  0.48355190722E+03  0.00000000000E+00 0. -1.
        -14    1    3    3    0    0  0.83129527708E+01 -0.67908774154E+01 -0.16448242581E+02  0.19640923701E+02  0.00000000000E+00 0.  1.
          5    1    4    4  501    0  0.29832820312E+02  0.42468016655E+02  0.18046597757E+01  0.52098548956E+02  0.41800000000E+01 0. -1.
         -5    1    4    4    0  501  0.92139702495E+02  0.11779838222E+03  0.26915640504E+03  0.30794289471E+03  0.41800000000E+01 0. -1.
</event>
<event>
11    1  0.6930157E-009  0.1309008E+03  0.7561462E-02  0.1118167E+00
         22   -1    0    0    0    0  0.00000000000E+00  0.00000000000E+00  0.15228159283E+04  0.15228159283E+04  0.00000000000E+00 0. -1.
         22   -1    0    0    0    0 -0.00000000000E+00 -0.00000000000E+00 -0.63362927038E+02  0.63362927038E+02  0.00000000000E+00 0.  1.
        -24    2    1    2    0    0  0.20823762878E+01 -0.39135955381E+02 -0.18308826212E+02  0.85983394155E+02  0.74309970115E+02 0.  0.
         25    2    1    2    0    0  0.91750747071E+01  0.31786534537E+02  0.42149898767E+03  0.44090739929E+03  0.12507346788E+03 0.  0.
         24    2    1    2    0    0 -0.11257450995E+02  0.73494208441E+01  0.10562628398E+04  0.10592880619E+04  0.78862330221E+02 0.  0.
        -11    1    5    5    0    0  0.22611566697E+02  0.34501188376E+01  0.10720021142E+03  0.10961328203E+03  0.00000000000E+00 0.  1.
         12    1    5    5    0    0 -0.33869017692E+02  0.38993020066E+01  0.94906262841E+03  0.94967477989E+03  0.00000000000E+00 0. -1.
         13    1    3    3    0    0  0.20805313718E+01  0.20531003210E+02 -0.16275187838E+02  0.26281789185E+02  0.00000000000E+00 0. -1.
        -14    1    3    3    0    0  0.18449160393E-02 -0.59666958591E+02 -0.20336383740E+01  0.59701604970E+02  0.00000000000E+00 0.  1.
          5    1    4    4  501    0 -0.14977853530E+02 -0.13361384290E+02  0.36081993691E+03  0.36140193962E+03  0.41800000000E+01 0. -1.
         -5    1    4    4    0  501  0.24152928237E+02  0.45147918827E+02  0.60679050761E+02  0.79505459675E+02  0.41800000000E+01 0. -1.
</event>
<event>
11    1  0.6930157E-009  0.1684100E+03  0.7561462E-02  0.1079424E+00
         22   -1    0    0    0    0  0.00000000000E+00  0.00000000000E+00  0.29326214645E+02  0.29326214645E+02  0.00000000000E+00 0.  1.
         22   -1    0    0    0    0 -0.00000000000E+00 -0.00000000000E+00 -0.25707634188E+04  0.25707634188E+04  0.00000000000E+00 0. -1.
         24    2    1    2    0    0 -0.15691730352E+03  0.43266474966E+02 -0.13956704293E+04  0.14069556185E+04  0.71645915147E+02 0.  0.
         25    2    1    2    0    0  0.94247831262E+02  0.53578309679E+02 -0.37818884710E+03  0.41282936945E+03  0.12509194714E+03 0.  0.
        -24    2    1    2    0    0  0.62669472260E+02 -0.96844784645E+02 -0.76757792773E+03  0.78030464550E+03  0.79956798184E+02 0.  0.
        -13    1    3    3    0    0 -0.10244717425E+03  0.22150618078E+00 -0.64545530014E+03  0.65353501593E+03  0.00000000000E+00 0.  1.
         14    1    3    3    0    0 -0.54470129276E+02  0.43044968785E+02 -0.75021512915E+03  0.75342060254E+03  0.00000000000E+00 0. -1.
         13    1    5    5    0    0  0.81029417898E+02 -0.88789896625E+02 -0.64715281683E+03  0.65822198431E+03  0.00000000000E+00 0. -1.
        -14    1    5    5    0    0 -0.18359945638E+02 -0.80548880200E+01 -0.12042511091E+03  0.12208266118E+03  0.00000000000E+00 0.  1.
          5    1    4    4  501    0  0.50438166489E+02  0.92590323558E+02 -0.21823595143E+03  0.24240746596E+03  0.41800000000E+01 0.  1.
         -5    1    4    4    0  501  0.43809664773E+02 -0.39012013879E+02 -0.15995289567E+03  0.17042190349E+03  0.41800000000E+01 0.  1.
</event>
<event>
11    1  0.6930157E-009  0.2563527E+03  0.7561462E-02  0.1020568E+00
         22   -1    0    0    0    0  0.00000000000E+00  0.00000000000E+00  0.13744671674E+04  0.13744671674E+04  0.00000000000E+00 0. -1.
         22   -1    0    0    0    0 -0.00000000000E+00 -0.00000000000E+00 -0.21363425134E+03  0.21363425134E+03  0.00000000000E+00 0.  1.
         24    2    1    2    0    0  0.32003763936E+02 -0.24405934153E+02 -0.95764720993E+02  0.13245434849E+03  0.82178963966E+02 0.  0.
         25    2    1    2    0    0 -0.56004462765E+02  0.24343417997E+03  0.13608283298E+03  0.31074088977E+03  0.12507862852E+03 0.  0.
        -24    2    1    2    0    0  0.24000698830E+02 -0.21902824582E+03  0.11205148041E+04  0.11449061805E+04  0.81898290273E+02 0.  0.
        -11    1    3    3    0    0  0.55430842068E+02 -0.33838434980E+02 -0.58301072372E+02  0.87273323381E+02  0.00000000000E+00 0.  1.
         12    1    3    3    0    0 -0.23427078132E+02  0.94325008266E+01 -0.37463648621E+02  0.45181025107E+02  0.00000000000E+00 0. -1.
         11    1    5    5    0    0 -0.97061811330E+01 -0.18135638170E+03  0.79434972845E+03  0.81484712568E+03  0.00000000000E+00 0. -1.
        -12    1    5    5    0    0  0.33706879963E+02 -0.37671864121E+02  0.32616507564E+03  0.33005905482E+03  0.00000000000E+00 0.  1.
          5    1    4    4  501    0 -0.86383704070E+02  0.98223832106E+02  0.60210262432E+02  0.14405836881E+03  0.41800000000E+01 0. -1.
         -5    1    4    4    0  501  0.30379241304E+02  0.14521034787E+03  0.75872570550E+02  0.16668252095E+03  0.41800000000E+01 0. -1.
</event>
<event>
11    1  0.6930157E-009  0.1358483E+03  0.7561462E-02  0.1112285E+00
         22   -1    0    0    0    0  0.00000000000E+00  0.00000000000E+00  0.79687590741E+03  0.79687590741E+03  0.00000000000E+00 0. -1.
         22   -1    0    0    0    0 -0.00000000000E+00 -0.00000000000E+00 -0.16707340730E+03  0.16707340730E+03  0.00000000000E+00 0. -1.
         24    2    1    2    0    0  0.51713478190E+02 -0.10086562324E+02 -0.12256320333E+03  0.15694452347E+03  0.82666934570E+02 0.  0.
         25    2    1    2    0    0 -0.54115055748E+02  0.16525748817E+02  0.16601185124E+03  0.21542657797E+03  0.12508851310E+03 0.  0.
        -24    2    1    2    0    0  0.24015775580E+01 -0.64391864933E+01  0.58635385219E+03  0.59157821327E+03  0.78145452474E+02 0.  0.
        -13    1    3    3    0    0  0.15531863317E+02 -0.42812061083E+02 -0.80678785332E+02  0.92645441091E+02  0.00000000000E+00 0.  1.
         14    1    3    3    0    0  0.36181614873E+02  0.32725498760E+02 -0.41884417995E+02  0.64299082378E+02  0.00000000000E+00 0. -1.
         13    1    5    5    0    0  0.23912987679E+02 -0.29162059179E+02  0.45452317527E+03  0.45608505077E+03  0.00000000000E+00 0. -1.
        -14    1    5    5    0    0 -0.21511410121E+02  0.22722872685E+02  0.13183067692E+03  0.13549316250E+03  0.00000000000E+00 0.  1.
          5    1    4    4  501    0 -0.29955956753E+02 -0.53730787206E+02  0.61099986316E+02  0.86804594155E+02  0.41800000000E+01 0. -1.
         -5    1    4    4    0  501 -0.24159098996E+02  0.70256536023E+02  0.10491186492E+03  0.12862198381E+03  0.41800000000E+01 0. -1.
</event>
<event>
11    1  0.6930157E-009  0.1679696E+03  0.7561462E-02  0.1079812E+00
         22   -1    0    0    0    0  0.00000000000E+00  0.00000000000E+00  0.37610059365E+04  0.37610059365E+04  0.00000000000E+00 0. -1.
         22   -1    0    0    0    0 -0.00000000000E+00 -0.00000000000E+00 -0.24114915450E+04  0.24114915450E+04  0.00000000000E+00 0.  1.
         24    2    1    2    0    0 -0.52522370079E+02 -0.99157795856E+02 -0.21212804407E+04  0.21258022240E+04  0.81323550105E+02 0.  0.
         25    2    1    2    0    0  0.91416470315E+02  0.76179699039E+02 -0.26145602785E+03  0.31331638538E+03  0.12509030841E+03 0.  0.
        -24    2    1    2    0    0 -0.38894100237E+02  0.22978096817E+02  0.37322508600E+04  0.37333788721E+04  0.79878513303E+02 0.  0.
        -13    1    3    3    0    0 -0.70955483200E+02 -0.95584086470E+02 -0.19006354305E+04  0.19043597449E+04  0.00000000000E+00 0.  1.
         14    1    3    3    0    0  0.18433113122E+02 -0.35737093860E+01 -0.22064501014E+03  0.22144247912E+03  0.00000000000E+00 0. -1.
         13    1    5    5    0    0 -0.41825664403E+02  0.21216982186E+02  0.37256457124E+04  0.37259408907E+04  0.00000000000E+00 0. -1.
        -14    1    5    5    0    0  0.29315641660E+01  0.17611146308E+01  0.66051476546E+01  0.74379814964E+01  0.00000000000E+00 0.  1.
          5    1    4    4  501    0  0.31403728492E+02  0.40288458325E+02 -0.99144395589E+01  0.52202706340E+02  0.41800000000E+01 0. -1.
         -5    1    4    4    0  501  0.60012741823E+02  0.35891240714E+02 -0.25154158829E+03  0.26111367904E+03  0.41800000000E+01 0. -1.
</event>
<event>
11    1  0.6930157E-009  0.2490748E+03  0.7561462E-02  0.1024393E+00
         22   -1    0    0    0    0  0.00000000000E+00  0.00000000000E+00  0.56222613074E+03  0.56222613074E+03  0.00000000000E+00 0.  1.
         22   -1    0    0    0    0 -0.00000000000E+00 -0.00000000000E+00 -0.13898863008E+04  0.13898863008E+04  0.00000000000E+00 0. -1.
        -24    2    1    2    0    0  0.21287437111E+02  0.75186497147E+01 -0.10144193187E+04  0.10179100429E+04  0.81145648597E+02 0.  0.
         25    2    1    2    0    0 -0.39126378120E+02 -0.22152049510E+03 -0.30046013654E+03  0.39563378475E+03  0.12509034645E+03 0.  0.
         24    2    1    2    0    0  0.17838941009E+02  0.21400184539E+03  0.48721928516E+03  0.53856860386E+03  0.80984514449E+02 0.  0.
        -13    1    5    5    0    0  0.33975953631E+02  0.20728525737E+03  0.46544064769E+03  0.51064326086E+03  0.00000000000E+00 0.  1.
         14    1    5    5    0    0 -0.16137012622E+02  0.67165880245E+01  0.21778637474E+02  0.27925342993E+02  0.00000000000E+00 0. -1.
         13    1    3    3    0    0  0.35904439757E+02  0.16709647419E+02 -0.96001514297E+03  0.96083162721E+03  0.00000000000E+00 0. -1.
        -14    1    3    3    0    0 -0.14617002646E+02 -0.91909977038E+01 -0.54404175717E+02  0.57078415715E+02  0.00000000000E+00 0.  1.
          5    1    4    4  501    0 -0.49851156274E+02 -0.12307906182E+03 -0.83000863776E+02  0.15665314879E+03  0.41800000000E+01 0. -1.
         -5    1    4    4    0  501  0.10724778154E+02 -0.98441433289E+02 -0.21745927276E+03  0.23898063596E+03  0.41800000000E+01 0. -1.
</event>
<event>
11    1  0.6930157E-009  0.2020932E+03  0.7561462E-02  0.1053053E+00
         22   -1    0    0    0    0  0.00000000000E+00  0.00000000000E+00  0.21086933250E+04  0.21086933250E+04  0.00000000000E+00 0.  1.
         22   -1    0    0    0    0 -0.00000000000E+00 -0.00000000000E+00 -0.70669036322E+03  0.70669036322E+03  0.00000000000E+00 0.  1.
        -24    2    1    2    0    0 -0.18162164833E+02  0.10986614532E+03 -0.67634271358E+03  0.68966441145E+03  0.76138689833E+02 0.  0.
         25    2    1    2    0    0  0.93123451295E+01  0.75006536361E+02  0.27802666591E+03  0.31409937315E+03  0.12508752529E+03 0.  0.
         24    2    1    2    0    0  0.88498197039E+01 -0.18487268168E+03  0.18003190095E+04  0.18116199036E+04  0.81005627172E+02 0.  0.
        -13    1    5    5    0    0 -0.41650448536E+01 -0.14096185276E+03  0.15966099333E+04  0.16028259015E+04  0.00000000000E+00 0.  1.
         14    1    5    5    0    0  0.13014864557E+02 -0.43910828923E+02  0.20370907622E+03  0.20879400214E+03  0.00000000000E+00 0. -1.
         11    1    3    3    0    0 -0.40364460028E+02  0.52421955293E+02 -0.23831509160E+03  0.24732859502E+03  0.00000000000E+00 0. -1.
        -12    1    3    3    0    0  0.22202295195E+02  0.57444190026E+02 -0.43802762199E+03  0.44233581644E+03  0.00000000000E+00 0.  1.
          5    1    4    4  501    0  0.12025994822E+02  0.51353872893E+02  0.22602914601E+02  0.57534415448E+02  0.41800000000E+01 0. -1.
         -5    1    4    4    0  501 -0.27136496925E+01  0.23652663469E+02  0.25542375131E+03  0.25656495770E+03  0.41800000000E+01 0. -1.
</event>
<event>
11    1  0.6930157E-009  0.1323545E+03  0.7561462E-02  0.1116409E+00
         22   -1    0    0    0    0  0.00000000000E+00  0.00000000000E+00  0.11008756493E+03  0.11008756493E+03  0.00000000000E+00 0.  1.
         22   -1    0    0    0    0 -0.00000000000E+00 -0.00000000000E+00 -0.17056230975E+04  0.17056230975E+04  0.00000000000E+00 0.  1.
         24    2    1    2    0    0 -0.18640286042E+02  0.20315862744E+02 -0.10333838701E+04  0.10367932239E+04  0.79358500524E+02 0.  0.
         25    2    1    2    0    0  0.61040240389E+02 -0.25365262639E+02 -0.64407203500E+03  0.65942544262E+03  0.12507525980E+03 0.  0.
        -24    2    1    2    0    0 -0.42399954348E+02  0.50493998959E+01  0.81920372563E+02  0.11949199588E+03  0.75790085562E+02 0.  0.
        -11    1    3    3    0    0  0.12788833774E+02 -0.92062585047E+01 -0.74837690382E+03  0.74854278411E+03  0.00000000000E+00 0.  1.
         12    1    3    3    0    0 -0.31429119815E+02  0.29522121248E+02 -0.28500696627E+03  0.28825043979E+03  0.00000000000E+00 0. -1.
         13    1    5    5    0    0  0.14718778137E+01  0.33865139373E+02  0.25396894158E+02  0.42355829846E+02  0.00000000000E+00 0. -1.
        -14    1    5    5    0    0 -0.43871832161E+02 -0.28815739477E+02  0.56523478405E+02  0.77136166030E+02  0.00000000000E+00 0.  1.
          5    1    4    4  501    0  0.28089812044E+02 -0.99558260777E+01 -0.60548112993E+03  0.60622852713E+03  0.41800000000E+01 0.  1.
         -5    1    4    4    0  501  0.32950428345E+02 -0.15409436562E+02 -0.38590905074E+02  0.53196915490E+02  0.41800000000E+01 0.  1.
</event>
<event>
11    1  0.6930157E-009  0.1359723E+03  0.7561462E-02  0.1112141E+00
         22   -1    0    0    0    0  0.00000000000E+00  0.00000000000E+00  0.62874158796E+03  0.62874158796E+03  0.00000000000E+00 0.  1.
         22   -1    0    0    0    0 -0.00000000000E+00 -0.00000000000E+00 -0.13739506450E+04  0.13739506450E+04  0.00000000000E+00 0.  1.
        -24    2    1    2    0    0 -0.26646728768E+02 -0.12238344980E+02 -0.12364831863E+04  0.12391758989E+04  0.76199823365E+02 0.  0.
         25    2    1    2    0    0 -0.21087347984E+02  0.36860086439E+02 -0.99132087546E+02  0.16519655055E+03  0.12513747367E+03 0.  0.
         24    2    1    2    0    0  0.47734076753E+02 -0.24621741459E+02  0.59040621681E+03  0.59831978353E+03  0.80760697678E+02 0.  0.
        -11    1    5    5    0    0 -0.91349841017E+00 -0.26466976131E+02  0.42688474706E+03  0.42770541565E+03  0.00000000000E+00 0.  1.
         12    1    5    5    0    0  0.48647575163E+02  0.18452346710E+01  0.16352146974E+03  0.17061436788E+03  0.00000000000E+00 0. -1.
         13    1    3    3    0    0 -0.12219141077E+02  0.31330634987E+02 -0.38901624416E+03  0.39046709761E+03  0.00000000000E+00 0. -1.
        -14    1    3    3    0    0 -0.14427587691E+02 -0.43568979967E+02 -0.84746694215E+03  0.84870880126E+03  0.00000000000E+00 0.  1.
          5    1    4    4  501    0 -0.45987425239E+02 -0.16145143026E+02 -0.94366278295E+02  0.10629193668E+03  0.41800000000E+01 0. -1.
         -5    1    4    4    0  501  0.24900077254E+02  0.53005229465E+02 -0.47658092505E+01  0.58904613875E+02  0.41800000000E+01 0. -1.
</event>
<event>
11    1  0.6930157E-009  0.3044648E+03  0.7561462E-02  0.9983191E-01
         22   -1    0    0    0    0  0.00000000000E+00  0.00000000000E+00  0.38620192821E+03  0.38620192821E+03  0.00000000000E+00 0. -1.
         22   -1    0    0    0    0 -0.00000000000E+00 -0.00000000000E+00 -0.48035737467E+03  0.48035737467E+03  0.00000000000E+00 0. -1.
        -24    2    1    2    0    0 -0.16996036430E+03 -0.20493378911E+03 -0.20246424341E+03  0.34507825691E+03  0.84869606910E+02 0.  0.
         25    2    1    2    0    0  0.12368488867E+03  0.28374190289E+03 -0.33026684358E+02  0.33547747698E+03  0.12508779532E+03 0.  0.
         24    2    1    2    0    0  0.46275475629E+02 -0.78808113780E+02  0.14133548131E+03  0.18600356899E+03  0.79179990885E+02 0.  0.
        -13    1    5    5    0    0  0.67629625640E+02 -0.68651848159E+02  0.12192446592E+03  0.15541048198E+03  0.00000000000E+00 0.  1.
         14    1    5    5    0    0 -0.21354150011E+02 -0.10156265622E+02  0.19411015389E+02  0.30593087005E+02  0.00000000000E+00 0. -1.
         11    1    3    3    0    0 -0.16537704774E+03 -0.18317084070E+03 -0.15175939625E+03  0.28971026760E+03  0.00000000000E+00 0. -1.
        -12    1    3    3    0    0 -0.45833165611E+01 -0.21762948408E+02 -0.50704847163E+02  0.55367989307E+02  0.00000000000E+00 0.  1.
          5    1    4    4  501    0  0.28945602134E+02  0.10796018518E+03  0.45651938508E+02  0.12080902846E+03  0.41800000000E+01 0.  1.
         -5    1    4    4    0  501  0.94739286537E+02  0.17578171771E+03 -0.78678622866E+02  0.21466844852E+03  0.41800000000E+01 0.  1.
</event>
<event>
11    1  0.6930157E-009  0.1648251E+03  0.7561462E-02  0.1082625E+00
         22   -1    0    0    0    0  0.00000000000E+00  0.00000000000E+00  0.15492362323E+03  0.15492362323E+03  0.00000000000E+00 0. -1.
         22   -1    0    0    0    0 -0.00000000000E+00 -0.00000000000E+00 -0.31385153942E+04  0.31385153942E+04  0.00000000000E+00 0. -1.
         24    2    1    2    0    0 -0.64553212380E+02 -0.86621467238E+02 -0.28267817632E+04  0.28299601578E+04  0.79428977712E+02 0.  0.
         25    2    1    2    0    0  0.72894097590E+02  0.67617631133E+02 -0.27590275985E+03  0.31883475255E+03  0.12509025956E+03 0.  0.
        -24    2    1    2    0    0 -0.83408852098E+01  0.19003836105E+02  0.11909275202E+03  0.14464410709E+03  0.79423661335E+02 0.  0.
        -11    1    3    3    0    0 -0.24378365663E+01  0.14004391419E+02 -0.19169499282E+03  0.19222132114E+03  0.00000000000E+00 0.  1.
         12    1    3    3    0    0 -0.62115375814E+02 -0.10062585866E+03 -0.26350867704E+04  0.26377388367E+04  0.00000000000E+00 0. -1.
         13    1    5    5    0    0 -0.35946148204E+02  0.34199912630E+02  0.61752690195E+02  0.79215871774E+02  0.00000000000E+00 0. -1.
        -14    1    5    5    0    0  0.27605262994E+02 -0.15196076525E+02  0.57340061824E+02  0.65428235317E+02  0.00000000000E+00 0.  1.
          5    1    4    4  501    0  0.30995937007E+02  0.20713831210E+02 -0.17769994556E+01  0.37555838978E+02  0.41800000000E+01 0. -1.
         -5    1    4    4    0  501  0.41898160583E+02  0.46903799923E+02 -0.27412576039E+03  0.28127891357E+03  0.41800000000E+01 0. -1.
</event>
<event>
11    1  0.6930157E-009  0.1992793E+03  0.7561462E-02  0.1055034E+00
         22   -1    0    0    0    0  0.00000000000E+00  0.00000000000E+00  0.22584702338E+03  0.22584702338E+03  0.00000000000E+00 0. -1.
         22   -1    0    0    0    0 -0.00000000000E+00 -0.00000000000E+00 -0.29659171429E+04  0.29659171429E+04  0.00000000000E+00 0.  1.
        -24    2    1    2    0    0 -0.21031403067E+02 -0.15125664990E+03 -0.22445107698E+04  0.22511572227E+04  0.80989825605E+02 0.  0.
         25    2    1    2    0    0 -0.20824588708E+02  0.17010094740E+03 -0.69206937079E+03  0.72386123018E+03  0.12508825191E+03 0.  0.
         24    2    1    2    0    0  0.41855991775E+02 -0.18844297499E+02  0.19651002105E+03  0.21674571335E+03  0.79091619581E+02 0.  0.
        -13    1    5    5    0    0  0.19366614464E+02 -0.16697579297E+02  0.78656222090E+01  0.26753372178E+02  0.00000000000E+00 0.  1.
         14    1    5    5    0    0  0.22489377312E+02 -0.21467182022E+01  0.18864439884E+03  0.18999234118E+03  0.00000000000E+00 0. -1.
         11    1    3    3    0    0 -0.46905855638E+02 -0.78545857080E+02 -0.96724067793E+03  0.97155758450E+03  0.00000000000E+00 0. -1.
        -12    1    3    3    0    0  0.25874452570E+02 -0.72710792822E+02 -0.12772700918E+04  0.12795996382E+04  0.00000000000E+00 0.  1.
          5    1    4    4  501    0  0.13830139822E+02  0.34336825012E+02 -0.32118845689E+02  0.49187223624E+02  0.41800000000E+01 0. -1.
         -5    1    4    4    0  501 -0.34654728530E+02  0.13576412239E+03 -0.65995052511E+03  0.67467400656E+03  0.41800000000E+01 0. -1.
</event>
<event>
11    1  0.6930157E-009  0.1508160E+03  0.7561462E-02  0.1096048E+00
         22   -1    0    0    0    0  0.00000000000E+00  0.00000000000E+00  0.53224564587E+03  0.53224564587E+03  0.00000000000E+00 0. -1.
         22   -1    0    0    0    0 -0.00000000000E+00 -0.00000000000E+00 -0.14627328924E+04  0.14627328924E+04  0.00000000000E+00 0.  1.
        -24    2    1    2    0    0 -0.53425414501E+00 -0.84169392055E+02 -0.14295551155E+04  0.14342200518E+04  0.79212099160E+02 0.  0.
         25    2    1    2    0    0 -0.30070718956E+02  0.97999256152E+02  0.38450135283E+03  0.41712920722E+03  0.12508949935E+03 0.  0.
         24    2    1    2    0    0  0.30604973101E+02 -0.13829864097E+02  0.11456651616E+03  0.14362927926E+03  0.79849569287E+02 0.  0.
        -13    1    5    5    0    0  0.39096356933E+02 -0.20841358525E+02  0.20320810846E+02  0.48742411758E+02  0.00000000000E+00 0.  1.
         14    1    5    5    0    0 -0.84913838316E+01  0.70114944283E+01  0.94245705315E+02  0.94886867499E+02  0.00000000000E+00 0. -1.
         11    1    3    3    0    0 -0.22061962073E+02 -0.68510926404E+02 -0.12982528619E+04  0.13002465038E+04  0.00000000000E+00 0. -1.
        -12    1    3    3    0    0  0.21527707928E+02 -0.15658465651E+02 -0.13130225362E+03  0.13397354799E+03  0.00000000000E+00 0.  1.
          5    1    4    4  501    0 -0.51414411584E+02 -0.89770122930E+01  0.13457637201E+03  0.14440325748E+03  0.41800000000E+01 0. -1.
         -5    1    4    4    0  501  0.21343692628E+02  0.10697626845E+03  0.24992498082E+03  0.27272594974E+03  0.41800000000E+01 0. -1.
</event>
<event>
11    1  0.6930157E-009  0.2540155E+03  0.7561462E-02  0.1021782E+00
         22   -1    0    0    0    0  0.00000000000E+00  0.00000000000E+00  0.48492293352E+03  0.48492293352E+03  0.00000000000E+00 0. -1.
         22   -1    0    0    0    0 -0.00000000000E+00 -0.00000000000E+00 -0.12925639550E+04  0.12925639550E+04  0.00000000000E+00 0.  1.
        -24    2    1    2    0    0  0.42506033583E+02  0.23219968298E+02 -0.46815929877E+03  0.47820583443E+03  0.84627189714E+02 0.  0.
         25    2    1    2    0    0 -0.18722470784E+03  0.14340140615E+03 -0.76661283026E+03  0.81176264506E+03  0.12508519450E+03 0.  0.
         24    2    1    2    0    0  0.14471867426E+03 -0.16662137445E+03  0.42713110757E+03  0.48751840900E+03  0.80790091990E+02 0.  0.
        -11    1    5    5    0    0  0.10127454009E+03 -0.11370390439E+03  0.20690220399E+03  0.25689225828E+03  0.00000000000E+00 0.  1.
         12    1    5    5    0    0  0.43444134168E+02 -0.52917470060E+02  0.22022890357E+03  0.23062615073E+03  0.00000000000E+00 0. -1.
         11    1    3    3    0    0 -0.23828984009E+02 -0.57354792167E+01 -0.96463334894E+02  0.99528343600E+02  0.00000000000E+00 0. -1.
        -12    1    3    3    0    0  0.66335017592E+02  0.28955447514E+02 -0.37169596388E+03  0.37867749083E+03  0.00000000000E+00 0.  1.
          5    1    4    4  501    0 -0.93128059677E+02 -0.13447419886E+01 -0.23569563724E+03  0.25346508566E+03  0.41800000000E+01 0.  1.
         -5    1    4    4    0  501 -0.94096648163E+02  0.14474614814E+03 -0.53091719302E+03  0.55829755941E+03  0.41800000000E+01 0.  1.
</event>
<event>
11    1  0.6930157E-009  0.1462599E+03  0.7561462E-02  0.1100763E+00
         22   -1    0    0    0    0  0.00000000000E+00  0.00000000000E+00  0.65317597703E+03  0.65317597703E+03  0.00000000000E+00 0. -1.
         22   -1    0    0    0    0 -0.00000000000E+00 -0.00000000000E+00 -0.11983150253E+04  0.11983150253E+04  0.00000000000E+00 0.  1.
        -24    2    1    2    0    0 -0.37517295333E+02  0.65866261055E+02 -0.11578766787E+04  0.11630876821E+04  0.79678362279E+02 0.  0.
         25    2    1    2    0    0  0.55402633294E+02 -0.56262244223E+02  0.12203121190E+03  0.19175813690E+03  0.12507867320E+03 0.  0.
         24    2    1    2    0    0 -0.17885337961E+02 -0.96040168318E+01  0.49070641858E+03  0.49664518327E+03  0.73834452527E+02 0.  0.
        -13    1    5    5    0    0  0.28963830420E+01  0.12394459095E+02  0.13777683306E+02  0.18757297467E+02  0.00000000000E+00 0.  1.
         14    1    5    5    0    0 -0.20781721003E+02 -0.21998475926E+02  0.47692873527E+03  0.47788788580E+03  0.00000000000E+00 0. -1.
         11    1    3    3    0    0 -0.23702806507E+02  0.20326720685E+02 -0.11613076804E+03  0.12025536951E+03  0.00000000000E+00 0. -1.
        -12    1    3    3    0    0 -0.13814488825E+02  0.45539540370E+02 -0.10417459107E+04  0.10428323126E+04  0.00000000000E+00 0.  1.
          5    1    4    4  501    0  0.83018174075E+02 -0.61653973286E+02  0.12598084181E+03  0.16303948771E+03  0.41800000000E+01 0.  1.
         -5    1    4    4    0  501 -0.27615540781E+02  0.53917290626E+01 -0.39496299188E+01  0.28718649192E+02  0.41800000000E+01 0.  1.
</event>
<event>
11    1  0.6930157E-009  0.1695489E+03  0.7561462E-02  0.1078425E+00
         22   -1    0    0    0    0  0.00000000000E+00  0.00000000000E+00  0.62158066934E+03  0.62158066934E+03  0.00000000000E+00 0. -1.
         22   -1    0    0    0    0 -0.00000000000E+00 -0.00000000000E+00 -0.25225388995E+03  0.25225388995E+03  0.00000000000E+00 0.  1.
        -24    2    1    2    0    0  0.14080428823E+02  0.10022387631E+03 -0.11431323400E+03  0.17330440347E+03  0.81998883750E+02 0.  0.
         25    2    1    2    0    0 -0.14820434191E+02 -0.15846940832E+03 -0.38757676214E+01  0.20247083058E+03  0.12508883650E+03 0.  0.
         24    2    1    2    0    0  0.74000536808E+00  0.58245532009E+02  0.48751578100E+03  0.49805932524E+03  0.83656231853E+02 0.  0.
        -13    1    5    5    0    0  0.23597162860E+02  0.28771858477E+02  0.73651981674E+02  0.82518242467E+02  0.00000000000E+00 0.  1.
         14    1    5    5    0    0 -0.22857157492E+02  0.29473673532E+02  0.41386379933E+03  0.41554108278E+03  0.00000000000E+00 0. -1.
         13    1    3    3    0    0  0.25140426518E+02  0.99030833524E+01  0.22286066055E+00  0.27021505736E+02  0.00000000000E+00 0. -1.
        -14    1    3    3    0    0 -0.11059997695E+02  0.90320792961E+02 -0.11453609466E+03  0.14628289773E+03  0.00000000000E+00 0.  1.
          5    1    4    4  501    0  0.27570076290E+01 -0.14485368116E+03  0.42354408572E+02  0.15100184887E+03  0.41800000000E+01 0.  1.
         -5    1    4    4    0  501 -0.17577441820E+02 -0.13615727162E+02 -0.46230176193E+02  0.51468981707E+02  0.41800000000E+01 0.  1.
</event>
<event>
11    1  0.6930157E-009  0.1647560E+03  0.7561462E-02  0.1082687E+00
         22   -1    0    0    0    0  0.00000000000E+00  0.00000000000E+00  0.20174479908E+04  0.20174479908E+04  0.00000000000E+00 0.  1.
         22   -1    0    0    0    0 -0.00000000000E+00 -0.00000000000E+00 -0.42793939311E+03  0.42793939311E+03  0.00000000000E+00 0.  1.
        -24    2    1    2    0    0  0.84178462918E+02  0.66842765048E+02 -0.40491249348E+03  0.42747553851E+03  0.85013174199E+02 0.  0.
         25    2    1    2    0    0 -0.11465781026E+03  0.19889512378E+01  0.76433609478E+03  0.78294824426E+03  0.12509163848E+03 0.  0.
         24    2    1    2    0    0  0.30479347346E+02 -0.68831716285E+02  0.12300849964E+04  0.12349636011E+04  0.79744604813E+02 0.  0.
        -11    1    5    5    0    0  0.17501255501E+02 -0.75385433545E+02  0.11864262367E+04  0.11889476324E+04  0.00000000000E+00 0.  1.
         12    1    5    5    0    0  0.12978091845E+02  0.65537172593E+01  0.43658759702E+02  0.46015968713E+02  0.00000000000E+00 0. -1.
         11    1    3    3    0    0  0.26569936357E+02  0.31479734733E+02 -0.43946329424E+02  0.60234666818E+02  0.00000000000E+00 0. -1.
        -12    1    3    3    0    0  0.57608526561E+02  0.35363030315E+02 -0.36096616406E+03  0.36724087169E+03  0.00000000000E+00 0.  1.
          5    1    4    4  501    0 -0.38374055988E+02  0.29811660051E+02  0.57275477340E+03  0.57482763164E+03  0.41800000000E+01 0.  1.
         -5    1    4    4    0  501 -0.76283754276E+02 -0.27822708813E+02  0.19158132138E+03  0.20812061261E+03  0.41800000000E+01 0.  1.
</event>
<event>
11    1  0.6930157E-009  0.1422100E+03  0.7561462E-02  0.1105115E+00
         22   -1    0    0    0    0  0.00000000000E+00  0.00000000000E+00  0.38630198956E+03  0.38630198956E+03  0.00000000000E+00 0.  1.
         22   -1    0    0    0    0 -0.00000000000E+00 -0.00000000000E+00 -0.92636749113E+03  0.92636749113E+03  0.00000000000E+00 0.  1.
        -24    2    1    2    0    0  0.67323044600E+02 -0.38806734161E+02 -0.79245928216E+03  0.80035407986E+03  0.80849145427E+02 0.  0.
         25    2    1    2    0    0  0.30441838769E+01  0.54731987576E+02 -0.80366084784E+02  0.15846409777E+03  0.12508918889E+03 0.  0.
         24    2    1    2    0    0 -0.70367228477E+02 -0.15925253415E+02  0.33275986538E+03  0.35385130306E+03  0.96314360998E+02 0.  0.
        -13    1    5    5    0    0 -0.51108600786E+02 -0.53938838078E+02  0.16855654021E+03  0.18420856271E+03  0.00000000000E+00 0.  1.
         14    1    5    5    0    0 -0.19258627691E+02  0.38013584663E+02  0.16420332517E+03  0.16964274036E+03  0.00000000000E+00 0. -1.
         13    1    3    3    0    0  0.54326234329E+02 -0.52852717001E+02 -0.38187674620E+03  0.38932582590E+03  0.00000000000E+00 0. -1.
        -14    1    3    3    0    0  0.12996810271E+02  0.14045982840E+02 -0.41058253597E+03  0.41102825396E+03  0.00000000000E+00 0.  1.
          5    1    4    4  501    0  0.65930876294E+00 -0.15132640764E+02  0.26434000739E+02  0.30751590196E+02  0.41800000000E+01 0.  1.
         -5    1    4    4    0  501  0.23848751140E+01  0.69864628340E+02 -0.10680008552E+03  0.12771250757E+03  0.41800000000E+01 0.  1.
</event>
<event>
11    1  0.6930157E-009  0.1410575E+03  0.7561462E-02  0.1106383E+00
         22   -1    0    0    0    0  0.00000000000E+00  0.00000000000E+00  0.18270754529E+03  0.18270754529E+03  0.00000000000E+00 0. -1.
         22   -1    0    0    0    0 -0.00000000000E+00 -0.00000000000E+00 -0.59661495280E+03  0.59661495280E+03  0.00000000000E+00 0.  1.
        -24    2    1    2    0    0 -0.27770704584E+02 -0.60995596748E+02 -0.49980302712E+03  0.51032849154E+03  0.78360886342E+02 0.  0.
         25    2    1    2    0    0  0.21321129879E+02  0.40014989541E+02 -0.20064465250E+02  0.13455902952E+03  0.12509100564E+03 0.  0.
         24    2    1    2    0    0  0.64495747055E+01  0.20980607207E+02  0.10596008486E+03  0.13443497703E+03  0.79771176319E+02 0.  0.
        -13    1    5    5    0    0  0.27894932760E+02  0.10459175170E+02  0.44132558016E+01  0.30116414888E+02  0.00000000000E+00 0.  1.
         14    1    5    5    0    0 -0.21445358055E+02  0.10521432037E+02  0.10154682906E+03  0.10431856214E+03  0.00000000000E+00 0. -1.
         11    1    3    3    0    0 -0.23167684064E+02 -0.65402840750E+02 -0.22508786947E+03  0.23553942801E+03  0.00000000000E+00 0. -1.
        -12    1    3    3    0    0 -0.46030205204E+01  0.44072440026E+01 -0.27471515765E+03  0.27478906354E+03  0.00000000000E+00 0.  1.
          5    1    4    4  501    0 -0.37426413991E+02  0.37210234893E+02  0.26708649995E+02  0.59297237959E+02  0.41800000000E+01 0. -1.
         -5    1    4    4    0  501  0.58747543869E+02  0.28047546480E+01 -0.46773115245E+02  0.75261791561E+02  0.41800000000E+01 0. -1.
</event>
<event>
11    1  0.6930157E-009  0.1862302E+03  0.7561462E-02  0.1064712E+00
         22   -1    0    0    0    0  0.00000000000E+00  0.00000000000E+00  0.43283501089E+03  0.43283501089E+03  0.00000000000E+00 0. -1.
         22   -1    0    0    0    0 -0.00000000000E+00 -0.00000000000E+00 -0.81233344393E+03  0.81233344393E+03  0.00000000000E+00 0. -1.
         24    2    1    2    0    0 -0.64111881968E+02 -0.12223160615E+03 -0.65447002074E+03  0.67591816761E+03  0.97383069865E+02 0.  0.
         25    2    1    2    0    0  0.52417199539E+02  0.12781635830E+03 -0.81568065685E+02  0.20343319284E+03  0.12508849009E+03 0.  0.
        -24    2    1    2    0    0  0.11694682429E+02 -0.55847521493E+01  0.35653965339E+03  0.36581709437E+03  0.80831101972E+02 0.  0.
        -11    1    3    3    0    0  0.37537873312E+01 -0.95533852421E+02 -0.39367967564E+03  0.40512281458E+03  0.00000000000E+00 0.  1.
         12    1    3    3    0    0 -0.67865669300E+02 -0.26697753730E+02 -0.26079034510E+03  0.27079535303E+03  0.00000000000E+00 0. -1.
         11    1    5    5    0    0  0.28533502988E+02 -0.27084453423E+00  0.34130544070E+03  0.34249618684E+03  0.00000000000E+00 0. -1.
        -12    1    5    5    0    0 -0.16838820559E+02 -0.53139076150E+01  0.15234212684E+02  0.23320907531E+02  0.00000000000E+00 0.  1.
          5    1    4    4  501    0  0.72197236743E+02  0.81694745453E+02 -0.10174408799E+03  0.14918379359E+03  0.41800000000E+01 0.  1.
         -5    1    4    4    0  501 -0.19780037203E+02  0.46121612848E+02  0.20176022307E+02  0.54249399256E+02  0.41800000000E+01 0.  1.
</event>
<event>
11    1  0.6930157E-009  0.2568899E+03  0.7561462E-02  0.1020292E+00
         22   -1    0    0    0    0  0.00000000000E+00  0.00000000000E+00  0.89306167566E+03  0.89306167566E+03  0.00000000000E+00 0.  1.
         22   -1    0    0    0    0 -0.00000000000E+00 -0.00000000000E+00 -0.39350031396E+03  0.39350031396E+03  0.00000000000E+00 0.  1.
         24    2    1    2    0    0 -0.33936105653E+02 -0.10590798568E+03 -0.27592958758E+03  0.30882363224E+03  0.82865782031E+02 0.  0.
         25    2    1    2    0    0  0.22875171542E+03  0.17957882005E+03  0.23914843612E+03  0.39675475092E+03  0.12508580240E+03 0.  0.
        -24    2    1    2    0    0 -0.19481560976E+03 -0.73670834372E+02  0.53634251316E+03  0.58098360646E+03  0.80611078110E+02 0.  0.
        -11    1    3    3    0    0 -0.10472543259E+02 -0.11063226296E+03 -0.24972023492E+03  0.27333014378E+03  0.00000000000E+00 0.  1.
         12    1    3    3    0    0 -0.23463562394E+02  0.47242772872E+01 -0.26209352652E+02  0.35493488453E+02  0.00000000000E+00 0. -1.
         13    1    5    5    0    0 -0.66312471984E+02 -0.41875335073E+02  0.11393436848E+03  0.13831821264E+03  0.00000000000E+00 0. -1.
        -14    1    5    5    0    0 -0.12850313778E+03 -0.31795499299E+02  0.42240814468E+03  0.44266539382E+03  0.00000000000E+00 0.  1.
          5    1    4    4  501    0  0.16902432538E+02 -0.92962397895E+01 -0.70999464673E+01  0.20976032508E+02  0.41800000000E+01 0. -1.
         -5    1    4    4    0  501  0.21184928288E+03  0.18887505984E+03  0.24624838258E+03  0.37577871841E+03  0.41800000000E+01 0. -1.
</event>
<event>
11    1  0.6930157E-009  0.1362044E+03  0.7561462E-02  0.1111872E+00
         22   -1    0    0    0    0  0.00000000000E+00  0.00000000000E+00  0.45498393102E+03  0.45498393102E+03  0.00000000000E+00 0. -1.
         22   -1    0    0    0    0 -0.00000000000E+00 -0.00000000000E+00 -0.15502674243E+03  0.15502674243E+03  0.00000000000E+00 0. -1.
         24    2    1    2    0    0  0.51772528363E+01  0.23702782070E+02 -0.10982775722E+03  0.13592276488E+03  0.76316681874E+02 0.  0.
         25    2    1    2    0    0 -0.15571384140E+02 -0.68522215321E+02  0.21585897550E+03  0.25918490452E+03  0.12507579874E+03 0.  0.
        -24    2    1    2    0    0  0.10394131304E+02  0.44819433251E+02  0.19392597030E+03  0.21490300404E+03  0.80369145992E+02 0.  0.
        -11    1    3    3    0    0  0.57018750927E+01  0.13597995482E+02  0.85958497930E+01  0.17067673959E+02  0.00000000000E+00 0.  1.
         12    1    3    3    0    0 -0.52462225637E+00  0.10104786588E+02 -0.11842360701E+03  0.11885509092E+03  0.00000000000E+00 0. -1.
         11    1    5    5    0    0 -0.15052430403E+02  0.21094256369E+02  0.17164221498E+03  0.17358742258E+03  0.00000000000E+00 0. -1.
        -12    1    5    5    0    0  0.25446561707E+02  0.23725176882E+02  0.22283755316E+02  0.41315581464E+02  0.00000000000E+00 0.  1.
          5    1    4    4  501    0  0.26402660076E+02  0.10886505238E+01  0.15567475245E+03  0.15795691365E+03  0.41800000000E+01 0.  1.
         -5    1    4    4    0  501 -0.41974044216E+02 -0.69610865845E+02  0.60184223049E+02  0.10122799087E+03  0.41800000000E+01 0.  1.
</event>
<event>
11    1  0.6930157E-009  0.1533617E+03  0.7561462E-02  0.1093492E+00
         22   -1    0    0    0    0  0.00000000000E+00  0.00000000000E+00  0.87407657476E+03  0.87407657476E+03  0.00000000000E+00 0.  1.
         22   -1    0    0    0    0 -0.00000000000E+00 -0.00000000000E+00 -0.49647657020E+03  0.49647657020E+03  0.00000000000E+00 0.  1.
         24    2    1    2    0    0  0.50582897983E+02  0.35453539200E+02 -0.44887289189E+03  0.46043021570E+03  0.81813980728E+02 0.  0.
         25    2    1    2    0    0 -0.39896500964E+01 -0.11009311599E+03  0.15305123816E+03  0.22629137827E+03  0.12508674943E+03 0.  0.
        -24    2    1    2    0    0 -0.46593247886E+02  0.74639576792E+02  0.67342165830E+03  0.68383155098E+03  0.79917852077E+02 0.  0.
        -13    1    3    3    0    0  0.11325771546E+02 -0.12783613230E+01 -0.32732424962E+03  0.32752262777E+03  0.00000000000E+00 0.  1.
         14    1    3    3    0    0  0.39257126436E+02  0.36731900523E+02 -0.12154864227E+03  0.13290758793E+03  0.00000000000E+00 0. -1.
         13    1    5    5    0    0 -0.11639187590E+02 -0.14081445266E+02  0.51556289032E+02  0.54697428891E+02  0.00000000000E+00 0. -1.
        -14    1    5    5    0    0 -0.34954060296E+02  0.88721022058E+02  0.62186536926E+03  0.62913412209E+03  0.00000000000E+00 0.  1.
          5    1    4    4  501    0  0.16887131737E+02  0.44352341192E+01 -0.13907776567E+02  0.22710023536E+02  0.41800000000E+01 0. -1.
         -5    1    4    4    0  501 -0.20876781833E+02 -0.11452835011E+03  0.16695901472E+03  0.20358135474E+03  0.41800000000E+01 0. -1.
</event>
<event>
11    1  0.6930157E-009  0.2270542E+03  0.7561462E-02  0.1036886E+00
         22   -1    0    0    0    0  0.00000000000E+00  0.00000000000E+00  0.70526475299E+02  0.70526475299E+02  0.00000000000E+00 0.  1.
         22   -1    0    0    0    0 -0.00000000000E+00 -0.00000000000E+00 -0.16317484031E+04  0.16317484031E+04  0.00000000000E+00 0. -1.
        -24    2    1    2    0    0 -0.15860884822E+02  0.11057430791E+02 -0.75288440994E+03  0.75700580197E+03  0.76478853491E+02 0.  0.
         25    2    1    2    0    0  0.18962084316E+03  0.57523640265E+02 -0.63935265764E+03  0.68094384925E+03  0.12509065373E+03 0.  0.
         24    2    1    2    0    0 -0.17375995834E+03 -0.68581071057E+02 -0.16898486025E+03  0.26432522721E+03  0.80100289137E+02 0.  0.
        -11    1    5    5    0    0 -0.14967183478E+03 -0.86828233103E+02 -0.14397515940E+03  0.22509919305E+03  0.00000000000E+00 0.  1.
         12    1    5    5    0    0 -0.24088123560E+02  0.18247162046E+02 -0.25009700846E+02  0.39226034158E+02  0.00000000000E+00 0. -1.
         11    1    3    3    0    0  0.85992861989E+01  0.26148954878E+02 -0.63755826461E+03  0.63815222035E+03  0.00000000000E+00 0. -1.
        -12    1    3    3    0    0 -0.24460171021E+02 -0.15091524087E+02 -0.11532614533E+03  0.11885358161E+03  0.00000000000E+00 0.  1.
          5    1    4    4  501    0  0.65138522587E+02  0.83887996217E+02 -0.31786605442E+03  0.33516641238E+03  0.41800000000E+01 0.  1.
         -5    1    4    4    0  501  0.12448232057E+03 -0.26364355951E+02 -0.32148660322E+03  0.34577743687E+03  0.41800000000E+01 0.  1.
</event>
<event>
11    1  0.6930157E-009  0.1320729E+03  0.7561462E-02  0.1116748E+00
         22   -1    0    0    0    0  0.00000000000E+00  0.00000000000E+00  0.46326712309E+03  0.46326712309E+03  0.00000000000E+00 0. -1.
         22   -1    0    0    0    0 -0.00000000000E+00 -0.00000000000E+00 -0.26060511723E+03  0.26060511723E+03  0.00000000000E+00 0.  1.
         24    2    1    2    0    0  0.28522546566E-01 -0.41627812246E+02 -0.15440932102E+03  0.17813112299E+03  0.78457523510E+02 0.  0.
         25    2    1    2    0    0 -0.19031471499E+01  0.81087811923E+02 -0.24529036034E+02  0.15108802964E+03  0.12508822439E+03 0.  0.
        -24    2    1    2    0    0  0.18746246033E+01 -0.39459999677E+02  0.38160036291E+03  0.39465308770E+03  0.92583026854E+02 0.  0.
        -11    1    3    3    0    0 -0.34901773094E+02 -0.35515607555E+02 -0.64523238035E+02  0.81503008482E+02  0.00000000000E+00 0.  1.
         12    1    3    3    0    0  0.34930295641E+02 -0.61122046902E+01 -0.89886082982E+02  0.96628114509E+02  0.00000000000E+00 0. -1.
         13    1    5    5    0    0 -0.57876488038E+01 -0.64293610095E+02  0.17691463600E+03  0.18832406540E+03  0.00000000000E+00 0. -1.
        -14    1    5    5    0    0  0.76622734071E+01  0.24833610418E+02  0.20468572691E+03  0.20632902229E+03  0.00000000000E+00 0.  1.
          5    1    4    4  501    0  0.34400890507E+01  0.52422807492E+02  0.48948121741E+02  0.71926184245E+02  0.41800000000E+01 0. -1.
         -5    1    4    4    0  501 -0.53432362006E+01  0.28665004430E+02 -0.73477157774E+02  0.79161845397E+02  0.41800000000E+01 0. -1.
</event>
<event>
11    1  0.6930157E-009  0.1490870E+03  0.7561462E-02  0.1097815E+00
         22   -1    0    0    0    0  0.00000000000E+00  0.00000000000E+00  0.90541100659E+03  0.90541100659E+03  0.00000000000E+00 0.  1.
         22   -1    0    0    0    0 -0.00000000000E+00 -0.00000000000E+00 -0.13639393784E+03  0.13639393784E+03  0.00000000000E+00 0.  1.
        -24    2    1    2    0    0 -0.47371082985E+02 -0.47123830325E+02 -0.75010775603E+02  0.12992973828E+03  0.82404159755E+02 0.  0.
         25    2    1    2    0    0  0.92643460070E+02 -0.21901086329E+02  0.18613795676E+03  0.24363277220E+03  0.12508845057E+03 0.  0.
         24    2    1    2    0    0 -0.45272377084E+02  0.69024916654E+02  0.65788988759E+03  0.66824243395E+03  0.83155391225E+02 0.  0.
        -11    1    5    5    0    0 -0.27883306107E+02 -0.74404057532E+01  0.32332527470E+03  0.32461064624E+03  0.00000000000E+00 0.  1.
         12    1    5    5    0    0 -0.17389070977E+02  0.76465322407E+02  0.33456461290E+03  0.34363178771E+03  0.00000000000E+00 0. -1.
         13    1    3    3    0    0 -0.41973939231E+02 -0.56953533234E+02 -0.19626359976E+02  0.73421458228E+02  0.00000000000E+00 0. -1.
        -14    1    3    3    0    0 -0.53971437542E+01  0.98297029091E+01 -0.55384415627E+02  0.56508280051E+02  0.00000000000E+00 0.  1.
          5    1    4    4  501    0  0.24684303345E+02  0.23739202942E+02 -0.57438861823E+01  0.34976123519E+02  0.41800000000E+01 0. -1.
         -5    1    4    4    0  501  0.67959156725E+02 -0.45640289271E+02  0.19188184295E+03  0.20865664868E+03  0.41800000000E+01 0. -1.
</event>
<event>
11    1  0.6930157E-009  0.1859512E+03  0.7561462E-02  0.1064928E+00
         22   -1    0    0    0    0  0.00000000000E+00  0.00000000000E+00  0.27231332456E+04  0.27231332456E+04  0.00000000000E+00 0. -1.
         22   -1    0    0    0    0 -0.00000000000E+00 -0.00000000000E+00 -0.11062959314E+03  0.11062959314E+03  0.00000000000E+00 0.  1.
         24    2    1    2    0    0  0.72052264179E+02 -0.11456576640E+03 -0.28821269344E+02  0.15973177690E+03  0.79791800209E+02 0.  0.
         25    2    1    2    0    0 -0.10894295906E+03  0.12157157787E+03  0.67207180960E+03  0.70283522803E+03  0.12509445878E+03 0.  0.
        -24    2    1    2    0    0  0.36890694876E+02 -0.70058114753E+01  0.19692531122E+04  0.19711958338E+04  0.79026518301E+02 0.  0.
        -11    1    3    3    0    0  0.58816158345E+02 -0.97209492026E+02  0.11176027684E+02  0.11416623589E+03  0.00000000000E+00 0.  1.
         12    1    3    3    0    0  0.13236105834E+02 -0.17356274371E+02 -0.39997297029E+02  0.45565541007E+02  0.00000000000E+00 0. -1.
         13    1    5    5    0    0  0.24541808448E+02 -0.15438459227E+02  0.19051926645E+04  0.19054132715E+04  0.00000000000E+00 0. -1.
        -14    1    5    5    0    0  0.12348886429E+02  0.84326477520E+01  0.64060447634E+02  0.65782562243E+02  0.00000000000E+00 0.  1.
          5    1    4    4  501    0 -0.34075085842E+02  0.12444370178E+03  0.38241264541E+03  0.40361398657E+03  0.41800000000E+01 0.  1.
         -5    1    4    4    0  501 -0.74867873214E+02 -0.28721239113E+01  0.28965916420E+03  0.29922124145E+03  0.41800000000E+01 0.  1.
</event>
<event>
11    1  0.6930157E-009  0.2416882E+03  0.7561462E-02  0.1028423E+00
         22   -1    0    0    0    0  0.00000000000E+00  0.00000000000E+00  0.78007999818E+03  0.78007999818E+03  0.00000000000E+00 0. -1.
         22   -1    0    0    0    0 -0.00000000000E+00 -0.00000000000E+00 -0.14752185443E+03  0.14752185443E+03  0.00000000000E+00 0.  1.
         24    2    1    2    0    0  0.33107408880E+02 -0.26713893988E+03  0.14727587597E+03  0.31701777159E+03  0.79691719396E+02 0.  0.
         25    2    1    2    0    0 -0.24729502365E+02  0.15027891799E+03  0.15527053435E+03  0.25090066855E+03  0.12508758996E+03 0.  0.
        -24    2    1    2    0    0 -0.83779065150E+01  0.11686002189E+03  0.33001173344E+03  0.35968341246E+03  0.82085071506E+02 0.  0.
        -13    1    3    3    0    0  0.54353658147E+02 -0.12578948051E+03  0.60411399386E+02  0.14975597062E+03  0.00000000000E+00 0.  1.
         14    1    3    3    0    0 -0.21246249268E+02 -0.14134945937E+03  0.86864476585E+02  0.16726180097E+03  0.00000000000E+00 0. -1.
         13    1    5    5    0    0  0.29282762931E+02  0.57314970667E+02  0.98294156284E+02  0.11749139214E+03  0.00000000000E+00 0. -1.
        -14    1    5    5    0    0 -0.37660669446E+02  0.59545051220E+02  0.23171757715E+03  0.24219202032E+03  0.00000000000E+00 0.  1.
          5    1    4    4  501    0 -0.20126872447E+02  0.34924718329E+02  0.12510573394E+03  0.13150568053E+03  0.41800000000E+01 0. -1.
         -5    1    4    4    0  501 -0.46026299175E+01  0.11535419966E+03  0.30164800403E+02  0.11939498802E+03  0.41800000000E+01 0. -1.
</event>
<event>
11    1  0.6930157E-009  0.2720365E+03  0.7561462E-02  0.1012774E+00
         22   -1    0    0    0    0  0.00000000000E+00  0.00000000000E+00  0.12391364607E+04  0.12391364607E+04  0.00000000000E+00 0.  1.
         22   -1    0    0    0    0 -0.00000000000E+00 -0.00000000000E+00 -0.66849812047E+03  0.66849812047E+03  0.00000000000E+00 0.  1.
        -24    2    1    2    0    0 -0.51271233195E+02  0.94073635512E+02 -0.32877063086E+03  0.35480758640E+03  0.79496587316E+02 0.  0.
         25    2    1    2    0    0  0.27312497020E+03  0.27383100966E+00 -0.24056446732E+03  0.38485932263E+03  0.12509240963E+03 0.  0.
         24    2    1    2    0    0 -0.22185373700E+03 -0.94347466521E+02  0.11399734384E+04  0.11679676722E+04  0.80551336659E+02 0.  0.
        -11    1    5    5    0    0 -0.21473519935E+03 -0.66283785758E+02  0.98484554062E+03  0.10101611183E+04  0.00000000000E+00 0.  1.
         12    1    5    5    0    0 -0.71185376486E+01 -0.28063680763E+02  0.15512789782E+03  0.15780655385E+03  0.00000000000E+00 0. -1.
         11    1    3    3    0    0  0.19821161039E+01  0.60409835753E+02 -0.22873585890E+03  0.23658691888E+03  0.00000000000E+00 0. -1.
        -12    1    3    3    0    0 -0.53253349298E+02  0.33663799758E+02 -0.10003477196E+03  0.11822066751E+03  0.00000000000E+00 0.  1.
          5    1    4    4  501    0  0.93608707860E+02 -0.87411417485E+01 -0.13249258551E+02  0.95036903350E+02  0.41800000000E+01 0.  1.
         -5    1    4    4    0  501  0.17951626234E+03  0.90149727581E+01 -0.22731520877E+03  0.28982241928E+03  0.41800000000E+01 0.  1.
</event>
<event>
11    1  0.6930157E-009  0.1672022E+03  0.7561462E-02  0.1080492E+00
         22   -1    0    0    0    0  0.00000000000E+00  0.00000000000E+00  0.39250815709E+03  0.39250815709E+03  0.00000000000E+00 0. -1.
         22   -1    0    0    0    0 -0.00000000000E+00 -0.00000000000E+00 -0.90459522896E+03  0.90459522896E+03  0.00000000000E+00 0.  1.
        -24    2    1    2    0    0  0.10138058052E+03  0.84819159776E+02 -0.71406906729E+03  0.73069564901E+03  0.80927045176E+02 0.  0.
         25    2    1    2    0    0 -0.29862725677E+02 -0.34576927287E+02 -0.14636703647E+03  0.19788354547E+03  0.12508893603E+03 0.  0.
         24    2    1    2    0    0 -0.71517854846E+02 -0.50242232489E+02  0.34834903189E+03  0.36852419158E+03  0.82607180527E+02 0.  0.
        -13    1    5    5    0    0  0.23211614758E+00 -0.13776648146E+02  0.32401964470E+01  0.14154461667E+02  0.00000000000E+00 0.  1.
         14    1    5    5    0    0 -0.71749970993E+02 -0.36465584343E+02  0.34510883544E+03  0.35436972991E+03  0.00000000000E+00 0. -1.
         13    1    3    3    0    0 -0.49764564415E+01  0.37719409384E+02 -0.20569349831E+03  0.20918253802E+03  0.00000000000E+00 0. -1.
        -14    1    3    3    0    0  0.10635703696E+03  0.47099750392E+02 -0.50837556898E+03  0.52151311099E+03  0.00000000000E+00 0.  1.
          5    1    4    4  501    0 -0.13631954901E+02 -0.62762060922E+01  0.21652764691E+02  0.26674624198E+02  0.41800000000E+01 0. -1.
         -5    1    4    4    0  501 -0.16230770777E+02 -0.28300721195E+02 -0.16801980116E+03  0.17120892127E+03  0.41800000000E+01 0. -1.
</event>
<event>
11    1  0.6930157E-009  0.1686915E+03  0.7561462E-02  0.1079176E+00
         22   -1    0    0    0    0  0.00000000000E+00  0.00000000000E+00  0.38916109652E+04  0.38916109652E+04  0.00000000000E+00 0.  1.
         22   -1    0    0    0    0 -0.00000000000E+00 -0.00000000000E+00 -0.62484946838E+03  0.62484946838E+03  0.00000000000E+00 0.  1.
         24    2    1    2    0    0  0.34322427290E+02 -0.65161630464E+02 -0.60888029347E+03  0.61969061904E+03  0.88640760631E+02 0.  0.
         25    2    1    2    0    0 -0.12392440331E+03 -0.65624114160E+01  0.85924853256E+03  0.87712913449E+03  0.12508858820E+03 0.  0.
        -24    2    1    2    0    0  0.89601976018E+02  0.71724041880E+02  0.30163932577E+04  0.30196406800E+04  0.80179167889E+02 0.  0.
        -11    1    3    3    0    0  0.22281890400E+02 -0.84488608794E+02 -0.54301950226E+03  0.55000453407E+03  0.00000000000E+00 0.  1.
         12    1    3    3    0    0  0.12040536890E+02  0.19326978330E+02 -0.65860791210E+02  0.69686084972E+02  0.00000000000E+00 0. -1.
         11    1    5    5    0    0 -0.88254463800E+01 -0.31716581978E+01  0.66759700943E+02  0.67415173289E+02  0.00000000000E+00 0. -1.
        -12    1    5    5    0    0  0.98427422398E+02  0.74895700078E+02  0.29496335568E+04  0.29522255068E+04  0.00000000000E+00 0.  1.
          5    1    4    4  501    0 -0.12367778464E+03  0.14567230802E+02  0.43932252991E+03  0.45665102246E+03  0.41800000000E+01 0.  1.
         -5    1    4    4    0  501 -0.24661867028E+00 -0.21129642218E+02  0.41992600265E+03  0.42047811204E+03  0.41800000000E+01 0.  1.
</event>
<event>
11    1  0.6930157E-009  0.1716776E+03  0.7561462E-02  0.1076581E+00
         22   -1    0    0    0    0  0.00000000000E+00  0.00000000000E+00  0.13878562395E+04  0.13878562395E+04  0.00000000000E+00 0. -1.
         22   -1    0    0    0    0 -0.00000000000E+00 -0.00000000000E+00 -0.12674012659E+03  0.12674012659E+03  0.00000000000E+00 0.  1.
        -24    2    1    2    0    0  0.81686477820E+02 -0.88002883110E+02 -0.19517496384E+02  0.14303812326E+03  0.75244826700E+02 0.  0.
         25    2    1    2    0    0 -0.84685295922E+02  0.72754637786E+02  0.11686522065E+03  0.20437464612E+03  0.12508668800E+03 0.  0.
         24    2    1    2    0    0  0.29988181025E+01  0.15248245324E+02  0.11637683886E+04  0.11671835967E+04  0.87858887583E+02 0.  0.
        -11    1    5    5    0    0 -0.34201714810E-01  0.45299299495E+02  0.35873090808E+03  0.36157971752E+03  0.00000000000E+00 0.  1.
         12    1    5    5    0    0  0.30330198173E+01 -0.30051054171E+02  0.80503748052E+03  0.80560387915E+03  0.00000000000E+00 0. -1.
         13    1    3    3    0    0  0.37321913741E+02  0.50992032550E+00 -0.23222885407E+02  0.43960069048E+02  0.00000000000E+00 0. -1.
        -14    1    3    3    0    0  0.44364564079E+02 -0.88512803435E+02  0.37053890225E+01  0.99078054208E+02  0.00000000000E+00 0.  1.
          5    1    4    4  501    0 -0.95832076357E+02  0.96231689831E+02  0.75772604223E+02  0.15557404969E+03  0.41800000000E+01 0.  1.
         -5    1    4    4    0  501  0.11146780434E+02 -0.23477052046E+02  0.41092616430E+02  0.48800596430E+02  0.41800000000E+01 0.  1.
</event>
<event>
11    1  0.6930157E-009  0.1724366E+03  0.7561462E-02  0.1075930E+00
         22   -1    0    0    0    0  0.00000000000E+00  0.00000000000E+00  0.54614246790E+03  0.54614246790E+03  0.00000000000E+00 0.  1.
         22   -1    0    0    0    0 -0.00000000000E+00 -0.00000000000E+00 -0.14262597778E+04  0.14262597778E+04  0.00000000000E+00 0.  1.
         24    2    1    2    0    0 -0.63331373026E+02 -0.10882567056E+03 -0.10073023540E+04  0.10182489726E+04  0.79492441685E+02 0.  0.
         25    2    1    2    0    0  0.48215240400E+02  0.85679098027E+02 -0.39475789107E+03  0.42561494170E+03  0.12509463934E+03 0.  0.
        -24    2    1    2    0    0  0.15116132625E+02  0.23146572528E+02  0.52194293522E+03  0.52853833142E+03  0.78511647943E+02 0.  0.
        -13    1    3    3    0    0 -0.63141504243E+02 -0.41498047507E+02 -0.67344709745E+03  0.67767243604E+03  0.00000000000E+00 0.  1.
         14    1    3    3    0    0 -0.18986878313E+00 -0.67327623049E+02 -0.33385525660E+03  0.34057653653E+03  0.00000000000E+00 0. -1.
         11    1    5    5    0    0  0.19969682201E+02  0.36940550604E+02  0.13638972473E+03  0.14270791673E+03  0.00000000000E+00 0. -1.
        -12    1    5    5    0    0 -0.48535495756E+01 -0.13793978075E+02  0.38555321049E+03  0.38583041469E+03  0.00000000000E+00 0.  1.
          5    1    4    4  501    0 -0.84459933414E+00  0.94755949876E+02 -0.33226960936E+03  0.34554300614E+03  0.41800000000E+01 0. -1.
         -5    1    4    4    0  501  0.49059839735E+02 -0.90768518492E+01 -0.62488281712E+02  0.80071935568E+02  0.41800000000E+01 0. -1.
</event>
<event>
11    1  0.6930157E-009  0.1957278E+03  0.7561462E-02  0.1057587E+00
         22   -1    0    0    0    0  0.00000000000E+00  0.00000000000E+00  0.62936348774E+03  0.62936348774E+03  0.00000000000E+00 0.  1.
         22   -1    0    0    0    0 -0.00000000000E+00 -0.00000000000E+00 -0.12443120657E+04  0.12443120657E+04  0.00000000000E+00 0.  1.
        -24    2    1    2    0    0 -0.95024127901E+02 -0.11745053716E+03 -0.11996764216E+04  0.12119967440E+04  0.82996248867E+02 0.  0.
         25    2    1    2    0    0  0.99362964353E+02  0.85766248019E+02  0.21127806456E+03  0.27841377073E+03  0.12508780589E+03 0.  0.
         24    2    1    2    0    0 -0.43388364525E+01  0.31684289138E+02  0.37344977907E+03  0.38326503873E+03  0.80028949451E+02 0.  0.
        -11    1    5    5    0    0 -0.32278636848E+01  0.21110333202E+00  0.32774397605E+03  0.32775993883E+03  0.00000000000E+00 0.  1.
         12    1    5    5    0    0 -0.11109727677E+01  0.31473185806E+02  0.45705803021E+02  0.55505099901E+02  0.00000000000E+00 0. -1.
         11    1    3    3    0    0 -0.35008824170E+02 -0.26544355734E+01 -0.43605462777E+03  0.43746577261E+03  0.00000000000E+00 0. -1.
        -12    1    3    3    0    0 -0.60015303731E+02 -0.11479610158E+03 -0.76362179383E+03  0.77453097138E+03  0.00000000000E+00 0.  1.
          5    1    4    4  501    0 -0.20837271336E+02  0.94210631098E+01  0.84744912442E+02  0.87875598955E+02  0.41800000000E+01 0. -1.
         -5    1    4    4    0  501  0.12020023569E+03  0.76345184909E+02  0.12653315212E+03  0.19053817178E+03  0.41800000000E+01 0. -1.
</event>
<event>
11    1  0.6930157E-009  0.1471739E+03  0.7561462E-02  0.1099802E+00
         22   -1    0    0    0    0  0.00000000000E+00  0.00000000000E+00  0.15329758031E+03  0.15329758031E+03  0.00000000000E+00 0.  1.
         22   -1    0    0    0    0 -0.00000000000E+00 -0.00000000000E+00 -0.12886001470E+04  0.12886001470E+04  0.00000000000E+00 0.  1.
         24    2    1    2    0    0 -0.21485980899E+02 -0.14714796348E+01 -0.11413855178E+04  0.11440443411E+04  0.74918231417E+02 0.  0.
         25    2    1    2    0    0  0.86024347680E+02 -0.34394885188E+02 -0.64154952006E+02  0.16836484494E+03  0.12509063364E+03 0.  0.
        -24    2    1    2    0    0 -0.64538366781E+02  0.35866364823E+02  0.70237903170E+02  0.12948854126E+03  0.79889438379E+02 0.  0.
        -13    1    3    3    0    0 -0.37004923500E+02 -0.16348924668E+02 -0.10177427704E+04  0.10185465126E+04  0.00000000000E+00 0.  1.
         14    1    3    3    0    0  0.15518942601E+02  0.14877445033E+02 -0.12364274744E+03  0.12549782845E+03  0.00000000000E+00 0. -1.
         11    1    5    5    0    0 -0.19644415092E+02  0.18335793925E+02 -0.15581132050E+02  0.31062454171E+02  0.00000000000E+00 0. -1.
        -12    1    5    5    0    0 -0.44893951690E+02  0.17530570898E+02  0.85819035220E+02  0.98426087093E+02  0.00000000000E+00 0.  1.
          5    1    4    4  501    0  0.73509933532E+02 -0.72932157058E+02 -0.72895208790E+02  0.12670435559E+03  0.41800000000E+01 0. -1.
         -5    1    4    4    0  501  0.12514414148E+02  0.38537271869E+02  0.87402567842E+01  0.41660489354E+02  0.41800000000E+01 0. -1.
</event>
<event>
11    1  0.6930157E-009  0.1486601E+03  0.7561462E-02  0.1098256E+00
         22   -1    0    0    0    0  0.00000000000E+00  0.00000000000E+00  0.61412926803E+03  0.61412926803E+03  0.00000000000E+00 0.  1.
         22   -1    0    0    0    0 -0.00000000000E+00 -0.00000000000E+00 -0.76173279036E+03  0.76173279036E+03  0.00000000000E+00 0.  1.
        -24    2    1    2    0    0 -0.30314529827E+02 -0.46715464846E+00 -0.71161883658E+03  0.71717226609E+03  0.83758591958E+02 0.  0.
         25    2    1    2    0    0 -0.51438357687E+02  0.22491942314E+02  0.76412255463E+02  0.15696398807E+03  0.12508824348E+03 0.  0.
         24    2    1    2    0    0  0.81752887514E+02 -0.22024787666E+02  0.48760305878E+03  0.50172580423E+03  0.82482809174E+02 0.  0.
        -13    1    5    5    0    0  0.38802230607E+02  0.23915337353E+02  0.30964438992E+03  0.31298115705E+03  0.00000000000E+00 0.  1.
         14    1    5    5    0    0  0.42950656907E+02 -0.45940125019E+02  0.17795866886E+03  0.18874464718E+03  0.00000000000E+00 0. -1.
         11    1    3    3    0    0 -0.18421242884E+02 -0.84924259451E+01 -0.35389115435E+02  0.40790353995E+02  0.00000000000E+00 0. -1.
        -12    1    3    3    0    0 -0.11893286943E+02  0.80252712967E+01 -0.67622972114E+03  0.67638191210E+03  0.00000000000E+00 0.  1.
          5    1    4    4  501    0 -0.91449886300E+02  0.23994900122E+02  0.66009118913E+02  0.11538419786E+03  0.41800000000E+01 0.  1.
         -5    1    4    4    0  501  0.40011528613E+02 -0.15029578080E+01  0.10403136549E+02  0.41579790213E+02  0.41800000000E+01 0.  1.
</event>
<event>
11    1  0.6930157E-009  0.1565422E+03  0.7561462E-02  0.1090375E+00
         22   -1    0    0    0    0  0.00000000000E+00  0.00000000000E+00  0.17202792309E+03  0.17202792309E+03  0.00000000000E+00 0. -1.
         22   -1    0    0    0    0 -0.00000000000E+00 -0.00000000000E+00 -0.24846407763E+04  0.24846407763E+04  0.00000000000E+00 0. -1.
         24    2    1    2    0    0  0.15780249775E+02  0.92380010138E+02 -0.21324072708E+04  0.21359290918E+04  0.79052098625E+02 0.  0.
         25    2    1    2    0    0 -0.78095834587E+02 -0.85333035242E+02 -0.31164035572E+03  0.35517743510E+03  0.12510240929E+03 0.  0.
        -24    2    1    2    0    0  0.62315584812E+02 -0.70469748958E+01  0.13143477329E+03  0.16556217245E+03  0.78758119283E+02 0.  0.
        -13    1    3    3    0    0  0.11182251933E+02  0.26282475678E+00 -0.41272891640E+02  0.42761705058E+02  0.00000000000E+00 0.  1.
         14    1    3    3    0    0  0.45979978414E+01  0.92117185381E+02 -0.20911343791E+04  0.20931673867E+04  0.00000000000E+00 0. -1.
         13    1    5    5    0    0  0.28599311088E+02  0.15112060792E+02  0.11903791173E+03  0.12335444623E+03  0.00000000000E+00 0. -1.
        -14    1    5    5    0    0  0.33716273725E+02 -0.22159035687E+02  0.12396861558E+02  0.42207726224E+02  0.00000000000E+00 0.  1.
          5    1    4    4  501    0  0.23135379791E+02  0.11151302631E+02 -0.24379661043E+02  0.35657223967E+02  0.41800000000E+01 0. -1.
         -5    1    4    4    0  501 -0.10123121438E+03 -0.96484337873E+02 -0.28726069467E+03  0.31952021114E+03  0.41800000000E+01 0. -1.
</event>
<event>
11    1  0.6930157E-009  0.1822540E+03  0.7561462E-02  0.1067834E+00
         22   -1    0    0    0    0  0.00000000000E+00  0.00000000000E+00  0.70785996389E+03  0.70785996389E+03  0.00000000000E+00 0. -1.
         22   -1    0    0    0    0 -0.00000000000E+00 -0.00000000000E+00 -0.20164151796E+03  0.20164151796E+03  0.00000000000E+00 0. -1.
         24    2    1    2    0    0  0.58608241867E+01 -0.41377262493E+02 -0.14566096718E+03  0.17220244605E+03  0.81793263509E+02 0.  0.
         25    2    1    2    0    0 -0.47043208076E+02 -0.99275695748E+02  0.23165925655E+03  0.28527807585E+03  0.12509533252E+03 0.  0.
        -24    2    1    2    0    0  0.41182383890E+02  0.14065295824E+03  0.42022015656E+03  0.45202095995E+03  0.79112103041E+02 0.  0.
        -11    1    3    3    0    0  0.94334940558E+01 -0.12657679027E+02  0.66766089259E+01  0.17140150384E+02  0.00000000000E+00 0.  1.
         12    1    3    3    0    0 -0.35726698691E+01 -0.28719583467E+02 -0.15233757610E+03  0.15506229567E+03  0.00000000000E+00 0. -1.
         13    1    5    5    0    0  0.49766620194E+02  0.14735533769E+03  0.39677117646E+03  0.42616625688E+03  0.00000000000E+00 0. -1.
        -14    1    5    5    0    0 -0.85842363047E+01 -0.67023794455E+01  0.23448980099E+02  0.25854703070E+02  0.00000000000E+00 0.  1.
          5    1    4    4  501    0 -0.36740835963E+02 -0.12750711140E+03  0.20819365998E+03  0.24692109052E+03  0.41800000000E+01 0. -1.
         -5    1    4    4    0  501 -0.10302372113E+02  0.28231415656E+02  0.23465596574E+02  0.38356985331E+02  0.41800000000E+01 0. -1.
</event>
<event>
11    1  0.6930157E-009  0.1452859E+03  0.7561462E-02  0.1101795E+00
         22   -1    0    0    0    0  0.00000000000E+00  0.00000000000E+00  0.17907636493E+04  0.17907636493E+04  0.00000000000E+00 0. -1.
         22   -1    0    0    0    0 -0.00000000000E+00 -0.00000000000E+00 -0.72788669377E+02  0.72788669377E+02  0.00000000000E+00 0. -1.
         24    2    1    2    0    0  0.73481550700E+02  0.84251824703E+01 -0.16144188611E+02  0.10996632103E+03  0.79758604192E+02 0.  0.
         25    2    1    2    0    0 -0.69320014065E+02 -0.33328873414E+02  0.66149427969E+03  0.67759727048E+03  0.12508917116E+03 0.  0.
        -24    2    1    2    0    0 -0.41615366352E+01  0.24903690944E+02  0.10726248888E+04  0.10759887272E+04  0.81179286857E+02 0.  0.
        -11    1    3    3    0    0  0.11835676286E+02 -0.32183165691E+02  0.49986530697E+00  0.34294157700E+02  0.00000000000E+00 0.  1.
         12    1    3    3    0    0  0.61645874414E+02  0.40608348161E+02 -0.16644053918E+02  0.75672163333E+02  0.00000000000E+00 0. -1.
         13    1    5    5    0    0  0.26633264644E+02 -0.11406304351E+02  0.65831498863E+03  0.65895224320E+03  0.00000000000E+00 0. -1.
        -14    1    5    5    0    0 -0.30794801279E+02  0.36309995294E+02  0.41430990021E+03  0.41703648396E+03  0.00000000000E+00 0.  1.
          5    1    4    4  501    0 -0.37549883836E+02 -0.80776276051E+02  0.42728042930E+03  0.43648692789E+03  0.41800000000E+01 0. -1.
         -5    1    4    4    0  501 -0.31770130229E+02  0.47447402637E+02  0.23421385039E+03  0.24111034259E+03  0.41800000000E+01 0. -1.
</event>
<event>
11    1  0.6930157E-009  0.1494280E+03  0.7561462E-02  0.1097465E+00
         22   -1    0    0    0    0  0.00000000000E+00  0.00000000000E+00  0.16008280015E+03  0.16008280015E+03  0.00000000000E+00 0. -1.
         22   -1    0    0    0    0 -0.00000000000E+00 -0.00000000000E+00 -0.89007172370E+03  0.89007172370E+03  0.00000000000E+00 0. -1.
         24    2    1    2    0    0  0.14621125744E+02  0.28852987747E+01 -0.60535670654E+03  0.61071919056E+03  0.79366777019E+02 0.  0.
         25    2    1    2    0    0  0.26976003894E+02  0.68468411335E+02 -0.23689825156E+03  0.27782043086E+03  0.12509109509E+03 0.  0.
        -24    2    1    2    0    0 -0.41597129638E+02 -0.71353710110E+02  0.11226603456E+03  0.16161490243E+03  0.81817119427E+02 0.  0.
        -11    1    3    3    0    0 -0.15230621850E+02 -0.30950006207E+02 -0.31404169723E+03  0.31593047072E+03  0.00000000000E+00 0.  1.
         12    1    3    3    0    0  0.29851747593E+02  0.33835304982E+02 -0.29131500931E+03  0.29478871984E+03  0.00000000000E+00 0. -1.
         11    1    5    5    0    0 -0.56309540562E+02 -0.77461880890E+02  0.10946056049E+03  0.14543975266E+03  0.00000000000E+00 0. -1.
        -12    1    5    5    0    0  0.14712410925E+02  0.61081707804E+01  0.28054740681E+01  0.16175149775E+02  0.00000000000E+00 0.  1.
          5    1    4    4  501    0  0.34113286991E+02 -0.27454297019E+02 -0.43930598635E+02  0.62167714053E+02  0.41800000000E+01 0.  1.
         -5    1    4    4    0  501 -0.71372830972E+01  0.95922708355E+02 -0.19296765293E+03  0.21565271680E+03  0.41800000000E+01 0.  1.
</event>
<event>
11    1  0.6930157E-009  0.1278742E+03  0.7561462E-02  0.1121909E+00
         22   -1    0    0    0    0  0.00000000000E+00  0.00000000000E+00  0.40598188461E+03  0.40598188461E+03  0.00000000000E+00 0.  1.
         22   -1    0    0    0    0 -0.00000000000E+00 -0.00000000000E+00 -0.41365527744E+03  0.41365527744E+03  0.00000000000E+00 0. -1.
        -24    2    1    2    0    0  0.12656554221E+01  0.25833081596E+02 -0.31196667776E+03  0.32333441365E+03  0.80950509736E+02 0.  0.
         25    2    1    2    0    0  0.22152677960E+02 -0.32063598781E+02 -0.43712085460E+02  0.13812101958E+03  0.12509138310E+03 0.  0.
         24    2    1    2    0    0 -0.23418333383E+02  0.62305171854E+01  0.34800537039E+03  0.35818172882E+03  0.81235308570E+02 0.  0.
        -13    1    5    5    0    0 -0.47639712968E+02 -0.78357693075E+01  0.13562035967E+03  0.14395771424E+03  0.00000000000E+00 0.  1.
         14    1    5    5    0    0  0.24221379585E+02  0.14066286493E+02  0.21238501072E+03  0.21422401458E+03  0.00000000000E+00 0. -1.
         13    1    3    3    0    0  0.20017566384E+02  0.36347004093E+01 -0.27753427112E+03  0.27827897092E+03  0.00000000000E+00 0. -1.
        -14    1    3    3    0    0 -0.18751910962E+02  0.22198381186E+02 -0.34432406640E+02  0.45055442724E+02  0.00000000000E+00 0.  1.
          5    1    4    4  501    0  0.51933742330E+02  0.31128889579E+02 -0.25310646312E+02  0.65758821276E+02  0.41800000000E+01 0. -1.
         -5    1    4    4    0  501 -0.29781064370E+02 -0.63192488360E+02 -0.18401439149E+02  0.72362198300E+02  0.41800000000E+01 0. -1.
</event>
<event>
11    1  0.6930157E-009  0.2058298E+03  0.7561462E-02  0.1050476E+00
         22   -1    0    0    0    0  0.00000000000E+00  0.00000000000E+00  0.77138761629E+03  0.77138761629E+03  0.00000000000E+00 0.  1.
         22   -1    0    0    0    0 -0.00000000000E+00 -0.00000000000E+00 -0.23404843354E+03  0.23404843354E+03  0.00000000000E+00 0.  1.
        -24    2    1    2    0    0 -0.34777663652E+02 -0.71618806247E+02 -0.13814541750E+03  0.17900581857E+03  0.81364534096E+02 0.  0.
         25    2    1    2    0    0 -0.11456428995E+03 -0.22935051141E+02  0.60845980996E+02  0.18165969534E+03  0.12508804261E+03 0.  0.
         24    2    1    2    0    0  0.14934195360E+03  0.94553857388E+02  0.61463861926E+03  0.64477053592E+03  0.81883824069E+02 0.  0.
        -11    1    5    5    0    0  0.15911645978E+03  0.82940833504E+02  0.55857262150E+03  0.58668611976E+03  0.00000000000E+00 0.  1.
         12    1    5    5    0    0 -0.97745061739E+01  0.11613023884E+02  0.56065997762E+02  0.58084416152E+02  0.00000000000E+00 0. -1.
         13    1    3    3    0    0  0.11462051634E+02  0.85127622297E+01 -0.20230965925E+01  0.14420078650E+02  0.00000000000E+00 0. -1.
        -14    1    3    3    0    0 -0.46239715285E+02 -0.80131568477E+02 -0.13612232091E+03  0.16458573992E+03  0.00000000000E+00 0.  1.
          5    1    4    4  501    0 -0.18234088188E+02 -0.39797294301E+02 -0.25757980478E+02  0.50963247189E+02  0.41800000000E+01 0.  1.
         -5    1    4    4    0  501 -0.96330201765E+02  0.16862243160E+02  0.86603961474E+02  0.13069644815E+03  0.41800000000E+01 0.  1.
</event>
<event>
11    1  0.6930157E-009  0.2194621E+03  0.7561462E-02  0.1041555E+00
         22   -1    0    0    0    0  0.00000000000E+00  0.00000000000E+00  0.70534571587E+02  0.70534571587E+02  0.00000000000E+00 0. -1.
         22   -1    0    0    0    0 -0.00000000000E+00 -0.00000000000E+00 -0.28782665671E+04  0.28782665671E+04  0.00000000000E+00 0.  1.
        -24    2    1    2    0    0  0.67135260928E+02 -0.16194803441E+03 -0.10512501857E+04  0.10687366958E+04  0.79604414770E+02 0.  0.
         25    2    1    2    0    0 -0.65902835649E+02  0.17213059812E+03 -0.17817657759E+04  0.17956366783E+04  0.12509865550E+03 0.  0.
         24    2    1    2    0    0 -0.12324252796E+01 -0.10182563710E+02  0.25283966111E+02  0.84427764623E+02  0.79897215353E+02 0.  0.
        -13    1    5    5    0    0 -0.24869400919E+02  0.10804164832E+02 -0.16722558594E+02  0.31856883804E+02  0.00000000000E+00 0.  1.
         14    1    5    5    0    0  0.23636975639E+02 -0.20986728542E+02  0.42006524705E+02  0.52570880819E+02  0.00000000000E+00 0. -1.
         11    1    3    3    0    0 -0.14349559806E+02 -0.58975549501E+02 -0.37021908445E+03  0.37516155959E+03  0.00000000000E+00 0. -1.
        -12    1    3    3    0    0  0.81484820734E+02 -0.10297248491E+03 -0.68103110129E+03  0.69357513622E+03  0.00000000000E+00 0.  1.
          5    1    4    4  501    0 -0.69092720036E+02  0.30891465402E+02 -0.44381284117E+03  0.45023926637E+03  0.41800000000E+01 0. -1.
         -5    1    4    4    0  501  0.31898843874E+01  0.14123913272E+03 -0.13379529348E+04  0.13453974119E+04  0.41800000000E+01 0. -1.
</event>
<event>
11    1  0.6930157E-009  0.2645729E+03  0.7561462E-02  0.1016410E+00
         22   -1    0    0    0    0  0.00000000000E+00  0.00000000000E+00  0.58864214871E+03  0.58864214871E+03  0.00000000000E+00 0.  1.
         22   -1    0    0    0    0 -0.00000000000E+00 -0.00000000000E+00 -0.71094479825E+03  0.71094479825E+03  0.00000000000E+00 0. -1.
         24    2    1    2    0    0 -0.20442176395E+02  0.28929212590E+01 -0.22124918730E+03  0.23625072805E+03  0.80230617931E+02 0.  0.
         25    2    1    2    0    0  0.45981006183E+02  0.22887141929E+03 -0.41561171236E+03  0.49282567691E+03  0.12509065861E+03 0.  0.
        -24    2    1    2    0    0 -0.25538829788E+02 -0.23176434055E+03  0.51455825012E+03  0.57051054201E+03  0.79656414663E+02 0.  0.
        -13    1    3    3    0    0 -0.43539470499E+02  0.25314290046E+02 -0.14445312471E+03  0.15298105769E+03  0.00000000000E+00 0.  1.
         14    1    3    3    0    0  0.23097294105E+02 -0.22421368787E+02 -0.76796062587E+02  0.83269670361E+02  0.00000000000E+00 0. -1.
         11    1    5    5    0    0 -0.36320599652E+02 -0.17501799437E+03  0.30884003532E+03  0.35683701003E+03  0.00000000000E+00 0. -1.
        -12    1    5    5    0    0  0.10781769864E+02 -0.56746346183E+02  0.20571821480E+03  0.21367353198E+03  0.00000000000E+00 0.  1.
          5    1    4    4  501    0  0.67785482510E+02  0.51340859770E+02 -0.11657971548E+03  0.14435739670E+03  0.41800000000E+01 0.  1.
         -5    1    4    4    0  501 -0.21804476326E+02  0.17753055952E+03 -0.29903199688E+03  0.34846828021E+03  0.41800000000E+01 0.  1.
</event>
<event>
11    1  0.6930157E-009  0.1977515E+03  0.7561462E-02  0.1056125E+00
         22   -1    0    0    0    0  0.00000000000E+00  0.00000000000E+00  0.12757552750E+04  0.12757552750E+04  0.00000000000E+00 0. -1.
         22   -1    0    0    0    0 -0.00000000000E+00 -0.00000000000E+00 -0.54902984129E+03  0.54902984129E+03  0.00000000000E+00 0. -1.
         24    2    1    2    0    0  0.29209662893E+00 -0.68667812382E+02 -0.34360417041E+03  0.35895981422E+03  0.77929253344E+02 0.  0.
         25    2    1    2    0    0  0.52047806659E+02  0.21047475878E+03 -0.10984324242E+03  0.27335295847E+03  0.12509078200E+03 0.  0.
        -24    2    1    2    0    0 -0.52339903288E+02 -0.14180694639E+03  0.11801728465E+04  0.11924723436E+04  0.79584338914E+02 0.  0.
        -11    1    3    3    0    0 -0.33712529040E+02 -0.25946315858E+02 -0.90049185317E+02  0.99592176887E+02  0.00000000000E+00 0.  1.
         12    1    3    3    0    0  0.34004625669E+02 -0.42721496524E+02 -0.25355498509E+03  0.25936763733E+03  0.00000000000E+00 0. -1.
         11    1    5    5    0    0 -0.73102772828E+02 -0.12092469364E+03  0.96278105493E+03  0.97309514266E+03  0.00000000000E+00 0. -1.
        -12    1    5    5    0    0  0.20762869539E+02 -0.20882252752E+02  0.21739179158E+03  0.21937720090E+03  0.00000000000E+00 0.  1.
          5    1    4    4  501    0  0.42629940802E+02  0.22477196366E+03 -0.87688756784E+02  0.24504395110E+03  0.41800000000E+01 0. -1.
         -5    1    4    4    0  501  0.94178658570E+01 -0.14297204889E+02 -0.22154485636E+02  0.28309007378E+02  0.41800000000E+01 0. -1.
</event>
<event>
11    1  0.6930157E-009  0.1314308E+03  0.7561462E-02  0.1117523E+00
         22   -1    0    0    0    0  0.00000000000E+00  0.00000000000E+00  0.68599000747E+03  0.68599000747E+03  0.00000000000E+00 0. -1.
         22   -1    0    0    0    0 -0.00000000000E+00 -0.00000000000E+00 -0.79764011728E+02  0.79764011728E+02  0.00000000000E+00 0. -1.
        -24    2    1    2    0    0  0.10778850598E+02  0.19944222479E+02  0.10099723568E+02  0.83603080868E+02  0.79834297667E+02 0.  0.
         25    2    1    2    0    0  0.25800139558E+02 -0.37070218635E+02  0.74157798749E+02  0.15227378858E+03  0.12509228299E+03 0.  0.
         24    2    1    2    0    0 -0.36578990156E+02  0.17125996157E+02  0.52196847342E+03  0.52987714975E+03  0.81776428820E+02 0.  0.
        -13    1    5    5    0    0  0.25599334563E+02 -0.20185458781E+01  0.17309004321E+03  0.17498446650E+03  0.00000000000E+00 0.  1.
         14    1    5    5    0    0 -0.62178324719E+02  0.19144542035E+02  0.34887843021E+03  0.35489268325E+03  0.00000000000E+00 0. -1.
         11    1    3    3    0    0  0.63645570839E+01  0.49453756002E+02 -0.50910801753E+01  0.50120860596E+02  0.00000000000E+00 0. -1.
        -12    1    3    3    0    0  0.44142935143E+01 -0.29509533523E+02  0.15190803743E+02  0.33482220272E+02  0.00000000000E+00 0.  1.
          5    1    4    4  501    0  0.53847449558E+02 -0.62833486986E+02  0.77967954795E+02  0.11377200572E+03  0.41800000000E+01 0.  1.
         -5    1    4    4    0  501 -0.28047310000E+02  0.25763268351E+02 -0.38101560462E+01  0.38501782861E+02  0.41800000000E+01 0.  1.
</event>
<event>
11    1  0.6930157E-009  0.1541632E+03  0.7561462E-02  0.1092699E+00
         22   -1    0    0    0    0  0.00000000000E+00  0.00000000000E+00  0.63010931169E+03  0.63010931169E+03  0.00000000000E+00 0.  1.
         22   -1    0    0    0    0 -0.00000000000E+00 -0.00000000000E+00 -0.64421803870E+03  0.64421803870E+03  0.00000000000E+00 0.  1.
         24    2    1    2    0    0  0.85005350207E+02 -0.44985981575E+02 -0.55553604663E+03  0.56952650270E+03  0.80563577813E+02 0.  0.
         25    2    1    2    0    0 -0.41278467135E+02  0.10000214521E+02 -0.21214733736E+02  0.13379814450E+03  0.12509181590E+03 0.  0.
        -24    2    1    2    0    0 -0.43726883072E+02  0.34985767054E+02  0.56264205336E+03  0.57100270318E+03  0.79636440361E+02 0.  0.
        -13    1    3    3    0    0  0.60330887321E+02 -0.37952773510E+02 -0.18739059391E+03  0.20048806366E+03  0.00000000000E+00 0.  1.
         14    1    3    3    0    0  0.24674462886E+02 -0.70332080645E+01 -0.36814545272E+03  0.36903843905E+03  0.00000000000E+00 0. -1.
         11    1    5    5    0    0 -0.24325543674E+02 -0.40086650055E+01  0.43214581105E+02  0.49752401854E+02  0.00000000000E+00 0. -1.
        -12    1    5    5    0    0 -0.19401339398E+02  0.38994432060E+02  0.51942747225E+03  0.52125030133E+03  0.00000000000E+00 0.  1.
          5    1    4    4  501    0 -0.67046262885E+01  0.32247379473E+02  0.44893185643E+02  0.55836511476E+02  0.41800000000E+01 0. -1.
         -5    1    4    4    0  501 -0.34573840847E+02 -0.22247164952E+02 -0.66107919380E+02  0.77961633025E+02  0.41800000000E+01 0. -1.
</event>
<event>
11    1  0.6930157E-009  0.1306227E+03  0.7561462E-02  0.1118506E+00
         22   -1    0    0    0    0  0.00000000000E+00  0.00000000000E+00  0.26714460622E+03  0.26714460622E+03  0.00000000000E+00 0. -1.
         22   -1    0    0    0    0 -0.00000000000E+00 -0.00000000000E+00 -0.18206362378E+03  0.18206362378E+03  0.00000000000E+00 0. -1.
         24    2    1    2    0    0  0.20810249556E+02  0.24699641994E+02 -0.11033062902E+03  0.14027169674E+03  0.80375135499E+02 0.  0.
         25    2    1    2    0    0 -0.16574963467E+01 -0.53743170466E+02  0.62873964749E+02  0.14997065653E+03  0.12508791592E+03 0.  0.
        -24    2    1    2    0    0 -0.19152753209E+02  0.29043528471E+02  0.13253764670E+03  0.15896587673E+03  0.80582675987E+02 0.  0.
        -13    1    3    3    0    0  0.32928761185E+02  0.98681582015E+00 -0.71507180592E+01  0.33710679129E+02  0.00000000000E+00 0.  1.
         14    1    3    3    0    0 -0.12118511629E+02  0.23712826174E+02 -0.10317991096E+03  0.10656101762E+03  0.00000000000E+00 0. -1.
         11    1    5    5    0    0  0.12581551812E+02 -0.23344063459E+01  0.10656478349E+03  0.10733032181E+03  0.00000000000E+00 0. -1.
        -12    1    5    5    0    0 -0.31734305021E+02  0.31377934817E+02  0.25972863213E+02  0.51635554922E+02  0.00000000000E+00 0.  1.
          5    1    4    4  501    0 -0.75115922532E+01  0.25193746503E+02  0.65458804316E+02  0.70664533845E+02  0.41800000000E+01 0.  1.
         -5    1    4    4    0  501  0.58540959066E+01 -0.78936916968E+02 -0.25848395666E+01  0.79306122682E+02  0.41800000000E+01 0.  1.
</event>
<event>
11    1  0.6930157E-009  0.1658766E+03  0.7561462E-02  0.1081677E+00
         22   -1    0    0    0    0  0.00000000000E+00  0.00000000000E+00  0.94319017419E+03  0.94319017419E+03  0.00000000000E+00 0.  1.
         22   -1    0    0    0    0 -0.00000000000E+00 -0.00000000000E+00 -0.32320908729E+03  0.32320908729E+03  0.00000000000E+00 0. -1.
        -24    2    1    2    0    0 -0.36556653919E+02 -0.34712434144E+02 -0.25996786532E+03  0.27704209923E+03  0.81410636370E+02 0.  0.
         25    2    1    2    0    0  0.12902848977E+03 -0.18566904236E+02  0.12635597201E+03  0.22046876838E+03  0.12509022769E+03 0.  0.
         24    2    1    2    0    0 -0.92471835852E+02  0.53279338380E+02  0.75359298021E+03  0.76888839388E+03  0.10907453456E+03 0.  0.
        -13    1    5    5    0    0 -0.54205256516E+00  0.37730962458E+02  0.44297540053E+03  0.44457971707E+03  0.00000000000E+00 0.  1.
         14    1    5    5    0    0 -0.91929783287E+02  0.15548375922E+02  0.31061757968E+03  0.32430867681E+03  0.00000000000E+00 0. -1.
         13    1    3    3    0    0 -0.51496380887E+01 -0.43270405377E+02 -0.22534549996E+03  0.22952002332E+03  0.00000000000E+00 0. -1.
        -14    1    3    3    0    0 -0.31407015830E+02  0.85579712329E+01 -0.34622365361E+02  0.47522075903E+02  0.00000000000E+00 0.  1.
          5    1    4    4  501    0  0.87512359450E+02 -0.23134987124E+02  0.14777439622E+03  0.17334470071E+03  0.41800000000E+01 0. -1.
         -5    1    4    4    0  501  0.41516130321E+02  0.45680828874E+01 -0.21418424210E+02  0.47124067670E+02  0.41800000000E+01 0. -1.
</event>
<event>
11    1  0.6930157E-009  0.1618855E+03  0.7561462E-02  0.1085317E+00
         22   -1    0    0    0    0  0.00000000000E+00  0.00000000000E+00  0.86267917556E+03  0.86267917556E+03  0.00000000000E+00 0. -1.
         22   -1    0    0    0    0 -0.00000000000E+00 -0.00000000000E+00 -0.37932672100E+03  0.37932672100E+03  0.00000000000E+00 0.  1.
         24    2    1    2    0    0  0.92771093490E+01 -0.48012552987E+02 -0.33597929420E+03  0.34857073705E+03  0.78918962207E+02 0.  0.
         25    2    1    2    0    0  0.41100182280E+02 -0.51375649376E+02  0.13517227854E+03  0.19556974968E+03  0.12508916728E+03 0.  0.
        -24    2    1    2    0    0 -0.50377291629E+02  0.99388202363E+02  0.68415947022E+03  0.69786540983E+03  0.80784053287E+02 0.  0.
        -11    1    3    3    0    0 -0.10623891504E+02 -0.64227622006E+02 -0.27087915052E+03  0.27859211885E+03  0.00000000000E+00 0.  1.
         12    1    3    3    0    0  0.19901000853E+02  0.16215069019E+02 -0.65100143675E+02  0.69978618197E+02  0.00000000000E+00 0. -1.
         11    1    5    5    0    0  0.52665191090E+01  0.13780037066E+02  0.30019747510E+03  0.30055972735E+03  0.00000000000E+00 0. -1.
        -12    1    5    5    0    0 -0.55643810738E+02  0.85608165298E+02  0.38396199511E+03  0.39730568248E+03  0.00000000000E+00 0.  1.
          5    1    4    4  501    0 -0.17701895477E+02  0.29195680826E+02  0.10734439864E+02  0.36033949014E+02  0.41800000000E+01 0.  1.
         -5    1    4    4    0  501  0.58802077757E+02 -0.80571330202E+02  0.12443783868E+03  0.15953580067E+03  0.41800000000E+01 0.  1.
</event>
<event>
11    1  0.6930157E-009  0.1430713E+03  0.7561462E-02  0.1104176E+00
         22   -1    0    0    0    0  0.00000000000E+00  0.00000000000E+00  0.33913544462E+03  0.33913544462E+03  0.00000000000E+00 0. -1.
         22   -1    0    0    0    0 -0.00000000000E+00 -0.00000000000E+00 -0.76166626070E+03  0.76166626070E+03  0.00000000000E+00 0.  1.
        -24    2    1    2    0    0  0.27061292348E+02 -0.61977848643E+02 -0.66203915658E+03  0.67025784028E+03  0.79850863151E+02 0.  0.
         25    2    1    2    0    0 -0.49934692950E+02  0.89817094099E+02 -0.13404000606E+02  0.16244226098E+03  0.12508891624E+03 0.  0.
         24    2    1    2    0    0  0.22873400602E+02 -0.27839245456E+02  0.25291234111E+03  0.26810160405E+03  0.81336349618E+02 0.  0.
        -13    1    5    5    0    0 -0.54601446276E+01  0.21883915878E+02  0.27646337802E+02  0.35679671347E+02  0.00000000000E+00 0.  1.
         14    1    5    5    0    0  0.28333545230E+02 -0.49723161335E+02  0.22526600330E+03  0.23242193271E+03  0.00000000000E+00 0. -1.
         11    1    3    3    0    0  0.12033562698E+02  0.17116382463E+02 -0.80608288768E+02  0.83279489659E+02  0.00000000000E+00 0. -1.
        -12    1    3    3    0    0  0.15027729650E+02 -0.79094231106E+02 -0.58143086782E+03  0.58697835062E+03  0.00000000000E+00 0.  1.
          5    1    4    4  501    0 -0.31872014636E+02 -0.27921055968E+02 -0.76246857658E+00  0.42584791201E+02  0.41800000000E+01 0.  1.
         -5    1    4    4    0  501 -0.18062678315E+02  0.11773815007E+03 -0.12641532029E+02  0.11985746978E+03  0.41800000000E+01 0.  1.
</event>
<event>
11    1  0.6930157E-009  0.1349799E+03  0.7561462E-02  0.1113297E+00
         22   -1    0    0    0    0  0.00000000000E+00  0.00000000000E+00  0.21276994522E+04  0.21276994522E+04  0.00000000000E+00 0.  1.
         22   -1    0    0    0    0 -0.00000000000E+00 -0.00000000000E+00 -0.72005026542E+02  0.72005026542E+02  0.00000000000E+00 0.  1.
        -24    2    1    2    0    0 -0.40987308457E+02 -0.25908518787E+02 -0.24921450173E+02  0.98001233073E+02  0.81436798838E+02 0.  0.
         25    2    1    2    0    0  0.71638136642E+02  0.56707308632E+02  0.64992586950E+03  0.66813075402E+03  0.12508927671E+03 0.  0.
         24    2    1    2    0    0 -0.30650828186E+02 -0.30798789845E+02  0.14306900063E+04  0.14335724916E+04  0.79800726014E+02 0.  0.
        -11    1    5    5    0    0 -0.22500212756E+02 -0.49424604359E+01  0.12947806883E+04  0.12949856055E+04  0.00000000000E+00 0.  1.
         12    1    5    5    0    0 -0.81506154298E+01 -0.25856329409E+02  0.13590931795E+03  0.13858688614E+03  0.00000000000E+00 0. -1.
         13    1    3    3    0    0  0.24823604034E+02 -0.62854176211E+01 -0.11298885518E+02  0.27988972933E+02  0.00000000000E+00 0. -1.
        -14    1    3    3    0    0 -0.65810912490E+02 -0.19623101166E+02 -0.13622564655E+02  0.70012260140E+02  0.00000000000E+00 0.  1.
          5    1    4    4  501    0  0.41357756491E+02 -0.14850650366E+02  0.47040093854E+03  0.47246748165E+03  0.41800000000E+01 0.  1.
         -5    1    4    4    0  501  0.30280380152E+02  0.71557958998E+02  0.17952493096E+03  0.19566327237E+03  0.41800000000E+01 0.  1.
</event>
<event>
11    1  0.6930157E-009  0.1414960E+03  0.7561462E-02  0.1105899E+00
         22   -1    0    0    0    0  0.00000000000E+00  0.00000000000E+00  0.11066984609E+03  0.11066984609E+03  0.00000000000E+00 0. -1.
         22   -1    0    0    0    0 -0.00000000000E+00 -0.00000000000E+00 -0.71747560341E+03  0.71747560341E+03  0.00000000000E+00 0. -1.
        -24    2    1    2    0    0 -0.19318335972E+02 -0.59105427183E+02 -0.52835485012E+03  0.53819665720E+03  0.81425699551E+02 0.  0.
         25    2    1    2    0    0  0.40181623841E+02  0.90737613523E+02 -0.11269550411E+03  0.19545673196E+03  0.12512066184E+03 0.  0.
         24    2    1    2    0    0 -0.20863287869E+02 -0.31632186340E+02  0.34244596912E+02  0.94492060342E+02  0.79499591551E+02 0.  0.
        -11    1    5    5    0    0 -0.21104807089E+02  0.23102463044E+02  0.22420340451E+02  0.38494263818E+02  0.00000000000E+00 0.  1.
         12    1    5    5    0    0  0.24151921954E+00 -0.54734649384E+02  0.11824256461E+02  0.55997796525E+02  0.00000000000E+00 0. -1.
         13    1    3    3    0    0 -0.10817427984E+02 -0.23223572698E+02 -0.45842210643E+03  0.45913742903E+03  0.00000000000E+00 0. -1.
        -14    1    3    3    0    0 -0.85009079879E+01 -0.35881854485E+02 -0.69932743692E+02  0.79059228166E+02  0.00000000000E+00 0.  1.
          5    1    4    4  501    0  0.31765201064E+02  0.11100851788E+02  0.20763186072E+02  0.39759768673E+02  0.41800000000E+01 0. -1.
         -5    1    4    4    0  501  0.84164227773E+01  0.79636761735E+02 -0.13345869018E+03  0.15569696329E+03  0.41800000000E+01 0. -1.
</event>
<event>
11    1  0.6930157E-009  0.1511115E+03  0.7561462E-02  0.1095748E+00
         22   -1    0    0    0    0  0.00000000000E+00  0.00000000000E+00  0.13966704862E+03  0.13966704862E+03  0.00000000000E+00 0. -1.
         22   -1    0    0    0    0 -0.00000000000E+00 -0.00000000000E+00 -0.55215515460E+03  0.55215515460E+03  0.00000000000E+00 0. -1.
         24    2    1    2    0    0  0.38361787267E+02 -0.87554104326E+01 -0.39584744174E+03  0.40522061933E+03  0.77202780169E+02 0.  0.
         25    2    1    2    0    0 -0.21725974783E+02 -0.78257521616E+02 -0.58449314325E+02  0.16018723412E+03  0.12508944783E+03 0.  0.
        -24    2    1    2    0    0 -0.16635812485E+02  0.87012932048E+02  0.41808650091E+02  0.12641434977E+03  0.79903842244E+02 0.  0.
        -13    1    3    3    0    0  0.26219118937E+01 -0.29556809761E+01  0.28568487132E+01  0.48756596047E+01  0.00000000000E+00 0.  1.
         14    1    3    3    0    0  0.35739875374E+02 -0.57997294565E+01 -0.39870429045E+03  0.40034495973E+03  0.00000000000E+00 0. -1.
         13    1    5    5    0    0 -0.40180473539E+02  0.86705882683E+02  0.36349190390E+02  0.10224306425E+03  0.00000000000E+00 0. -1.
        -14    1    5    5    0    0  0.23544661054E+02  0.30704936519E+00  0.54594597002E+01  0.24171285520E+02  0.00000000000E+00 0.  1.
          5    1    4    4  501    0 -0.39652196765E+02  0.18576412028E+02  0.29068879130E+01  0.44082901327E+02  0.41800000000E+01 0.  1.
         -5    1    4    4    0  501  0.17926221982E+02 -0.96833933644E+02 -0.61356202238E+02  0.11610433279E+03  0.41800000000E+01 0.  1.
</event>
<event>
11    1  0.6930157E-009  0.1605948E+03  0.7561462E-02  0.1086519E+00
         22   -1    0    0    0    0  0.00000000000E+00  0.00000000000E+00  0.37363824236E+03  0.37363824236E+03  0.00000000000E+00 0.  1.
         22   -1    0    0    0    0 -0.00000000000E+00 -0.00000000000E+00 -0.24173969717E+03  0.24173969717E+03  0.00000000000E+00 0.  1.
         24    2    1    2    0    0  0.48158951773E+02  0.80681814673E+02 -0.14915234340E+03  0.19373652997E+03  0.80365301273E+02 0.  0.
         25    2    1    2    0    0 -0.75568254868E+02 -0.14310528875E+03  0.14902419767E+03  0.25307023940E+03  0.12508656908E+03 0.  0.
        -24    2    1    2    0    0  0.27409303095E+02  0.62423474077E+02  0.13202669091E+03  0.16857117017E+03  0.79606735181E+02 0.  0.
        -11    1    3    3    0    0 -0.14835543600E+00  0.69309342759E+02 -0.11212587831E+03  0.13181813073E+03  0.00000000000E+00 0.  1.
         12    1    3    3    0    0  0.48307307209E+02  0.11372471913E+02 -0.37026465091E+02  0.61918399239E+02  0.00000000000E+00 0. -1.
         11    1    5    5    0    0  0.32902335877E+01  0.65884941340E+02  0.49363951241E+02  0.82392055530E+02  0.00000000000E+00 0. -1.
        -12    1    5    5    0    0  0.24119069507E+02 -0.34614672628E+01  0.82662739672E+02  0.86179114637E+02  0.00000000000E+00 0.  1.
          5    1    4    4  501    0 -0.14993020773E+02 -0.77543914218E+02  0.14311540632E+03  0.16351556877E+03  0.41800000000E+01 0. -1.
         -5    1    4    4    0  501 -0.60575234094E+02 -0.65561374532E+02  0.59087913591E+01  0.89554670629E+02  0.41800000000E+01 0. -1.
</event>
<event>
11    1  0.6930157E-009  0.1486621E+03  0.7561462E-02  0.1098254E+00
         22   -1    0    0    0    0  0.00000000000E+00  0.00000000000E+00  0.11456615795E+04  0.11456615795E+04  0.00000000000E+00 0.  1.
         22   -1    0    0    0    0 -0.00000000000E+00 -0.00000000000E+00 -0.86024726123E+02  0.86024726123E+02  0.00000000000E+00 0. -1.
        -24    2    1    2    0    0 -0.85344445028E+02  0.16688483052E+02 -0.17654383329E+02  0.12017965513E+03  0.81051172057E+02 0.  0.
         25    2    1    2    0    0  0.38623425710E+02 -0.10822435773E+02  0.29831528468E+03  0.32595643996E+03  0.12508676007E+03 0.  0.
         24    2    1    2    0    0  0.46721019318E+02 -0.58660472786E+01  0.77897595201E+03  0.78555021053E+03  0.89823912679E+02 0.  0.
        -13    1    5    5    0    0  0.55363375949E+02 -0.37149371479E+02  0.59606737597E+03  0.59978454123E+03  0.00000000000E+00 0.  1.
         14    1    5    5    0    0 -0.86423566311E+01  0.31283324200E+02  0.18290857604E+03  0.18576566930E+03  0.00000000000E+00 0. -1.
         11    1    3    3    0    0 -0.20127703409E+02 -0.48424693399E+01 -0.42395619198E+02  0.47180106835E+02  0.00000000000E+00 0. -1.
        -12    1    3    3    0    0 -0.65216741619E+02  0.21530952391E+02  0.24741235869E+02  0.72999548290E+02  0.00000000000E+00 0.  1.
          5    1    4    4  501    0  0.81433095294E+02 -0.24146814582E+01  0.14359998798E+03  0.16515328832E+03  0.41800000000E+01 0.  1.
         -5    1    4    4    0  501 -0.42809669585E+02 -0.84077543147E+01  0.15471529670E+03  0.16080315164E+03  0.41800000000E+01 0.  1.
</event>
<event>
11    1  0.6930157E-009  0.1275807E+03  0.7561462E-02  0.1122278E+00
         22   -1    0    0    0    0  0.00000000000E+00  0.00000000000E+00  0.19756288649E+04  0.19756288649E+04  0.00000000000E+00 0. -1.
         22   -1    0    0    0    0 -0.00000000000E+00 -0.00000000000E+00 -0.95921192220E+02  0.95921192220E+02  0.00000000000E+00 0.  1.
         24    2    1    2    0    0 -0.18294726828E+02  0.10985382381E+02 -0.41715203762E+02  0.88419354054E+02  0.74982986675E+02 0.  0.
         25    2    1    2    0    0  0.28936800284E+02 -0.33062188865E+02  0.11729760805E+03  0.17702200118E+03  0.12509042052E+03 0.  0.
        -24    2    1    2    0    0 -0.10642073457E+02  0.22076806484E+02  0.18041252684E+04  0.18061087019E+04  0.80993949478E+02 0.  0.
        -13    1    3    3    0    0  0.14516945926E+02  0.34580673421E+02 -0.18637031682E+02  0.41879632797E+02  0.00000000000E+00 0.  1.
         14    1    3    3    0    0 -0.32811672754E+02 -0.23595291040E+02 -0.23078172080E+02  0.46539721257E+02  0.00000000000E+00 0. -1.
         13    1    5    5    0    0 -0.19545863140E+02 -0.21255626918E+02  0.12076694329E+04  0.12080146115E+04  0.00000000000E+00 0. -1.
        -14    1    5    5    0    0  0.89037896837E+01  0.43332433402E+02  0.59645583556E+03  0.59809409045E+03  0.00000000000E+00 0.  1.
          5    1    4    4  501    0  0.74074888377E+02 -0.43574412619E+02  0.75337451494E+02  0.11436355416E+03  0.41800000000E+01 0. -1.
         -5    1    4    4    0  501 -0.45138088093E+02  0.10512223753E+02  0.41960156556E+02  0.62658447022E+02  0.41800000000E+01 0. -1.
</event>
<event>
11    1  0.6930157E-009  0.1293223E+03  0.7561462E-02  0.1120105E+00
         22   -1    0    0    0    0  0.00000000000E+00  0.00000000000E+00  0.26111983340E+03  0.26111983340E+03  0.00000000000E+00 0. -1.
         22   -1    0    0    0    0 -0.00000000000E+00 -0.00000000000E+00 -0.54665917085E+03  0.54665917085E+03  0.00000000000E+00 0. -1.
        -24    2    1    2    0    0  0.21293622388E+02 -0.24078278498E+02 -0.40451820962E+03  0.41333954758E+03  0.78621993306E+02 0.  0.
         25    2    1    2    0    0 -0.36128077805E+02  0.18012871103E+02 -0.97200134151E+02  0.16347841515E+03  0.12509046570E+03 0.  0.
         24    2    1    2    0    0  0.14834455416E+02  0.60654073949E+01  0.21617900633E+03  0.23096104152E+03  0.79704389388E+02 0.  0.
        -13    1    5    5    0    0 -0.75471531072E+01  0.39956482215E+02  0.10545899301E+03  0.11302689590E+03  0.00000000000E+00 0.  1.
         14    1    5    5    0    0  0.22381608523E+02 -0.33891074820E+02  0.11072001332E+03  0.11793414562E+03  0.00000000000E+00 0. -1.
         13    1    3    3    0    0  0.19971090189E+02 -0.46520470855E+02 -0.35921575401E+03  0.36276570481E+03  0.00000000000E+00 0. -1.
        -14    1    3    3    0    0  0.13225321997E+01  0.22442192357E+02 -0.45302455609E+02  0.50573842778E+02  0.00000000000E+00 0.  1.
          5    1    4    4  501    0  0.44803409905E+02 -0.82697643077E+01 -0.40844540569E+02  0.61330933754E+02  0.41800000000E+01 0. -1.
         -5    1    4    4    0  501 -0.80931487710E+02  0.26282635411E+02 -0.56355593581E+02  0.10214748139E+03  0.41800000000E+01 0. -1.
</event>
<event>
11    1  0.6930157E-009  0.1591734E+03  0.7561462E-02  0.1087857E+00
         22   -1    0    0    0    0  0.00000000000E+00  0.00000000000E+00  0.58557269187E+03  0.58557269187E+03  0.00000000000E+00 0.  1.
         22   -1    0    0    0    0 -0.00000000000E+00 -0.00000000000E+00 -0.16239926294E+03  0.16239926294E+03  0.00000000000E+00 0.  1.
        -24    2    1    2    0    0 -0.69598245788E+02 -0.97739922770E+02 -0.57022546925E+02  0.15197310329E+03  0.73805453363E+02 0.  0.
         25    2    1    2    0    0  0.26962960922E+02  0.50820555954E+02  0.38754770249E+02  0.14304080846E+03  0.12509600513E+03 0.  0.
         24    2    1    2    0    0  0.42635284866E+02  0.46919366816E+02  0.44144120561E+03  0.45295804306E+03  0.79255638695E+02 0.  0.
        -11    1    5    5    0    0  0.35405082675E+02  0.36007542598E+02  0.43578058394E+03  0.43869668376E+03  0.00000000000E+00 0.  1.
         12    1    5    5    0    0  0.72302021907E+01  0.10911824218E+02  0.56606216750E+01  0.14261359306E+02  0.00000000000E+00 0. -1.
         13    1    3    3    0    0 -0.31880897526E+02 -0.35884750721E+02  0.14525545468E+02  0.50150757048E+02  0.00000000000E+00 0. -1.
        -14    1    3    3    0    0 -0.37717348262E+02 -0.61855172049E+02 -0.71548092394E+02  0.10182234624E+03  0.00000000000E+00 0.  1.
          5    1    4    4  501    0 -0.37102086583E+02 -0.10043887521E+02 -0.12702856156E+02  0.40697413430E+02  0.41800000000E+01 0. -1.
         -5    1    4    4    0  501  0.64065047506E+02  0.60864443474E+02  0.51457626406E+02  0.10234339503E+03  0.41800000000E+01 0. -1.
</event>
<event>
11    1  0.6930157E-009  0.1352573E+03  0.7561462E-02  0.1112973E+00
         22   -1    0    0    0    0  0.00000000000E+00  0.00000000000E+00  0.14159386830E+03  0.14159386830E+03  0.00000000000E+00 0. -1.
         22   -1    0    0    0    0 -0.00000000000E+00 -0.00000000000E+00 -0.87846635259E+03  0.87846635259E+03  0.00000000000E+00 0.  1.
        -24    2    1    2    0    0 -0.42915389232E+02  0.30040096485E+02 -0.75597817703E+03  0.76200352809E+03  0.80013965321E+02 0.  0.
         25    2    1    2    0    0  0.53169583082E+02  0.13391379190E+02 -0.48866248425E+02  0.14505056205E+03  0.12508166019E+03 0.  0.
         24    2    1    2    0    0 -0.10254193849E+02 -0.43431475675E+02  0.67971941159E+02  0.11300613075E+03  0.78477762660E+02 0.  0.
        -11    1    5    5    0    0 -0.12349277285E+02 -0.35140320323E+01 -0.15696957886E+02  0.20279239568E+02  0.00000000000E+00 0.  1.
         12    1    5    5    0    0  0.20950834355E+01 -0.39917443643E+02  0.83668899045E+02  0.92726891185E+02  0.00000000000E+00 0. -1.
         11    1    3    3    0    0 -0.83598293279E+01 -0.17770974319E+02 -0.52446261632E+02  0.56002719879E+02  0.00000000000E+00 0. -1.
        -12    1    3    3    0    0 -0.34555559905E+02  0.47811070804E+02 -0.70353191539E+03  0.70600080821E+03  0.00000000000E+00 0.  1.
          5    1    4    4  501    0  0.94375617711E+00 -0.45229839232E+02  0.10382061733E+02  0.46603526031E+02  0.41800000000E+01 0.  1.
         -5    1    4    4    0  501  0.52225826905E+02  0.58621218423E+02 -0.59248310158E+02  0.98447036024E+02  0.41800000000E+01 0.  1.
</event>
<event>
11    1  0.6930157E-009  0.1504702E+03  0.7561462E-02  0.1096399E+00
         22   -1    0    0    0    0  0.00000000000E+00  0.00000000000E+00  0.29262611845E+03  0.29262611845E+03  0.00000000000E+00 0. -1.
         22   -1    0    0    0    0 -0.00000000000E+00 -0.00000000000E+00 -0.45543212788E+03  0.45543212788E+03  0.00000000000E+00 0. -1.
        -24    2    1    2    0    0 -0.72073301223E+02  0.43512228571E+02 -0.32799457018E+03  0.34970504462E+03  0.87322994543E+02 0.  0.
         25    2    1    2    0    0  0.70231478588E+02 -0.40410426467E+02 -0.58861237608E+02  0.16024211174E+03  0.12508967156E+03 0.  0.
         24    2    1    2    0    0  0.18418226354E+01 -0.31018021040E+01  0.22404979836E+03  0.23811108997E+03  0.80533008973E+02 0.  0.
        -13    1    5    5    0    0 -0.23427651680E+02 -0.52477939758E+01  0.16769109492E+02  0.29284761191E+02  0.00000000000E+00 0.  1.
         14    1    5    5    0    0  0.25269474316E+02  0.21459918718E+01  0.20728068887E+03  0.20882632878E+03  0.00000000000E+00 0. -1.
         13    1    3    3    0    0 -0.33678864171E+02 -0.26267178030E+01 -0.24478525543E+03  0.24710521406E+03  0.00000000000E+00 0. -1.
        -14    1    3    3    0    0 -0.38394437052E+02  0.46138946374E+02 -0.83209314753E+02  0.10259983056E+03  0.00000000000E+00 0.  1.
          5    1    4    4  501    0 -0.13993924992E+02 -0.60109137423E+02 -0.31543572671E+02  0.69436357301E+02  0.41800000000E+01 0.  1.
         -5    1    4    4    0  501  0.84225403580E+02  0.19698710955E+02 -0.27317664937E+02  0.90805754439E+02  0.41800000000E+01 0.  1.
</event>
<event>
11    1  0.6930157E-009  0.1464601E+03  0.7561462E-02  0.1100552E+00
         22   -1    0    0    0    0  0.00000000000E+00  0.00000000000E+00  0.11575176180E+04  0.11575176180E+04  0.00000000000E+00 0.  1.
         22   -1    0    0    0    0 -0.00000000000E+00 -0.00000000000E+00 -0.13906105326E+04  0.13906105326E+04  0.00000000000E+00 0.  1.
        -24    2    1    2    0    0  0.81125415643E+01  0.48097098303E+02 -0.12324551542E+04  0.12360320603E+04  0.80314399643E+02 0.  0.
         25    2    1    2    0    0 -0.21715694772E+02 -0.12217678138E+03 -0.10305596541E+03  0.20412181492E+03  0.12508575464E+03 0.  0.
         24    2    1    2    0    0  0.13603153208E+02  0.74079683077E+02  0.11024182050E+04  0.11079742754E+04  0.81291149321E+02 0.  0.
        -11    1    5    5    0    0 -0.67996618660E+01  0.57517107064E+02  0.10159826744E+04  0.10176321770E+04  0.00000000000E+00 0.  1.
         12    1    5    5    0    0  0.20402815074E+02  0.16562576013E+02  0.86435530618E+02  0.90342098383E+02  0.00000000000E+00 0. -1.
         11    1    3    3    0    0 -0.11486472091E+02 -0.16380155923E+02 -0.52324915306E+03  0.52363147798E+03  0.00000000000E+00 0. -1.
        -12    1    3    3    0    0  0.19599013655E+02  0.64477254226E+02 -0.70920600112E+03  0.71240058231E+03  0.00000000000E+00 0.  1.
          5    1    4    4  501    0 -0.64598859193E+02 -0.24793248392E+02 -0.34068327364E+02  0.77238857476E+02  0.41800000000E+01 0.  1.
         -5    1    4    4    0  501  0.42883164421E+02 -0.97383532989E+02 -0.68987638043E+02  0.12688295745E+03  0.41800000000E+01 0.  1.
</event>
<event>
11    1  0.6930157E-009  0.1770565E+03  0.7561462E-02  0.1072049E+00
         22   -1    0    0    0    0  0.00000000000E+00  0.00000000000E+00  0.14937196552E+03  0.14937196552E+03  0.00000000000E+00 0. -1.
         22   -1    0    0    0    0 -0.00000000000E+00 -0.00000000000E+00 -0.81381215383E+03  0.81381215383E+03  0.00000000000E+00 0.  1.
        -24    2    1    2    0    0 -0.34503129487E-01 -0.53562719682E+02 -0.59623944732E+03  0.60401524596E+03  0.80398835108E+02 0.  0.
         25    2    1    2    0    0  0.99685011831E+02 -0.37144602898E+02 -0.11130076202E+03  0.19837388288E+03  0.12509002627E+03 0.  0.
         24    2    1    2    0    0 -0.99650508701E+02  0.90707322580E+02  0.43100021026E+02  0.16079499052E+03  0.76415802740E+02 0.  0.
        -11    1    5    5    0    0  0.37808100305E+01  0.17524558493E+02 -0.13082903894E+02  0.22193851608E+02  0.00000000000E+00 0.  1.
         12    1    5    5    0    0 -0.10343131873E+03  0.73182764087E+02  0.56182924921E+02  0.13860113891E+03  0.00000000000E+00 0. -1.
         13    1    3    3    0    0 -0.22225776092E+02  0.63461103039E+01 -0.65785896481E+02  0.69728347282E+02  0.00000000000E+00 0. -1.
        -14    1    3    3    0    0  0.22191272962E+02 -0.59908829986E+02 -0.53045355084E+03  0.53428689868E+03  0.00000000000E+00 0.  1.
          5    1    4    4  501    0  0.11015031034E+03 -0.61227682561E+02 -0.11604505784E+03  0.17136466331E+03  0.41800000000E+01 0.  1.
         -5    1    4    4    0  501 -0.10465298510E+02  0.24083079663E+02  0.47442958197E+01  0.27009219570E+02  0.41800000000E+01 0.  1.
</event>
<event>
11    1  0.6930157E-009  0.1514443E+03  0.7561462E-02  0.1095412E+00
         22   -1    0    0    0    0  0.00000000000E+00  0.00000000000E+00  0.35634109396E+03  0.35634109396E+03  0.00000000000E+00 0. -1.
         22   -1    0    0    0    0 -0.00000000000E+00 -0.00000000000E+00 -0.26581016860E+04  0.26581016860E+04  0.00000000000E+00 0. -1.
        -24    2    1    2    0    0 -0.26603102810E+02 -0.12856549557E+02 -0.24787456545E+04  0.24802517311E+04  0.81213383736E+02 0.  0.
         25    2    1    2    0    0 -0.27825356138E+02  0.79142511608E+02 -0.13410653585E+03  0.20166753325E+03  0.12508974147E+03 0.  0.
         24    2    1    2    0    0  0.54428458948E+02 -0.66285962051E+02  0.31109159835E+03  0.33252351563E+03  0.80234780306E+02 0.  0.
        -11    1    5    5    0    0  0.50092860549E+02 -0.48542814372E+02  0.10771624783E+03  0.12832961292E+03  0.00000000000E+00 0.  1.
         12    1    5    5    0    0  0.43355983991E+01 -0.17743147678E+02  0.20337535053E+03  0.20419390271E+03  0.00000000000E+00 0. -1.
         11    1    3    3    0    0 -0.39295874926E+02 -0.19388973037E+02 -0.23869989665E+04  0.23874011318E+04  0.00000000000E+00 0. -1.
        -12    1    3    3    0    0  0.12692772116E+02  0.65324234800E+01 -0.91746688030E+02  0.92850599271E+02  0.00000000000E+00 0.  1.
          5    1    4    4  501    0  0.12848813559E+02 -0.26993179945E+02 -0.67808053129E+01  0.30938252926E+02  0.41800000000E+01 0.  1.
         -5    1    4    4    0  501 -0.40674169697E+02  0.10613569155E+03 -0.12732573054E+03  0.17072928032E+03  0.41800000000E+01 0.  1.
</event>
<event>
11    1  0.6930157E-009  0.6483127E+03  0.7561462E-02  0.9112144E-01
         22   -1    0    0    0    0  0.00000000000E+00  0.00000000000E+00  0.12987928762E+04  0.12987928762E+04  0.00000000000E+00 0.  1.
         22   -1    0    0    0    0 -0.00000000000E+00 -0.00000000000E+00 -0.24279854083E+04  0.24279854083E+04  0.00000000000E+00 0. -1.
        -24    2    1    2    0    0  0.39609726792E+02  0.76690708905E+02 -0.14103276309E+04  0.14151196848E+04  0.78033969525E+02 0.  0.
         25    2    1    2    0    0  0.56471309203E+03 -0.27879844158E+03 -0.81720729644E+03  0.10392807695E+04  0.12508918847E+03 0.  0.
         24    2    1    2    0    0 -0.60432281883E+03  0.20210773268E+03  0.10983423952E+04  0.12723778302E+04  0.80843805064E+02 0.  0.
        -11    1    5    5    0    0 -0.65026064482E+02  0.45116013282E+02  0.10886432160E+03  0.13459303189E+03  0.00000000000E+00 0.  1.
         12    1    5    5    0    0 -0.53929675434E+03  0.15699171940E+03  0.98947807360E+03  0.11377847983E+04  0.00000000000E+00 0. -1.
         13    1    3    3    0    0  0.33839353600E+02  0.90592098822E+02 -0.13208074566E+04  0.13243429947E+04  0.00000000000E+00 0. -1.
        -14    1    3    3    0    0  0.57703731915E+01 -0.13901389918E+02 -0.89520174282E+02  0.90776690025E+02  0.00000000000E+00 0.  1.
          5    1    4    4  501    0  0.24525319166E+03 -0.16554368951E+03 -0.30411414280E+03  0.42433091497E+03  0.41800000000E+01 0.  1.
         -5    1    4    4    0  501  0.31945990038E+03 -0.11325475207E+03 -0.51309315364E+03  0.61494985448E+03  0.41800000000E+01 0.  1.
</event>
<event>
11    1  0.6930157E-009  0.1795420E+03  0.7561462E-02  0.1070014E+00
         22   -1    0    0    0    0  0.00000000000E+00  0.00000000000E+00  0.43321285499E+03  0.43321285499E+03  0.00000000000E+00 0. -1.
         22   -1    0    0    0    0 -0.00000000000E+00 -0.00000000000E+00 -0.35425755993E+03  0.35425755993E+03  0.00000000000E+00 0. -1.
         24    2    1    2    0    0  0.12325927149E+03 -0.55272017339E+02 -0.21197783094E+03  0.26388879326E+03  0.80342084186E+02 0.  0.
         25    2    1    2    0    0 -0.11881046423E+03  0.45205312386E+01 -0.42285045255E+02  0.17768313349E+03  0.12508760634E+03 0.  0.
        -24    2    1    2    0    0 -0.44488072570E+01  0.50751486100E+02  0.33321817126E+03  0.34589848817E+03  0.77562292585E+02 0.  0.
        -11    1    3    3    0    0  0.18914644747E+01  0.12948680837E+02 -0.42971945180E+02  0.44920307721E+02  0.00000000000E+00 0.  1.
         12    1    3    3    0    0  0.12136780701E+03 -0.68220698176E+02 -0.16900588576E+03  0.21896848554E+03  0.00000000000E+00 0. -1.
         11    1    5    5    0    0  0.32229609384E+02  0.42137906157E+02  0.15776362044E+03  0.16644431739E+03  0.00000000000E+00 0. -1.
        -12    1    5    5    0    0 -0.36678416641E+02  0.86135799435E+01  0.17545455081E+03  0.17945417077E+03  0.00000000000E+00 0.  1.
          5    1    4    4  501    0 -0.28809120379E+02  0.20489422718E+02 -0.72955385540E+02  0.81177229193E+02  0.41800000000E+01 0.  1.
         -5    1    4    4    0  501 -0.90001343853E+02 -0.15968891479E+02  0.30670340284E+02  0.96505904293E+02  0.41800000000E+01 0.  1.
</event>
<event>
11    1  0.6930157E-009  0.1375947E+03  0.7561462E-02  0.1110274E+00
         22   -1    0    0    0    0  0.00000000000E+00  0.00000000000E+00  0.25399031074E+04  0.25399031074E+04  0.00000000000E+00 0. -1.
         22   -1    0    0    0    0 -0.00000000000E+00 -0.00000000000E+00 -0.37520335086E+03  0.37520335086E+03  0.00000000000E+00 0.  1.
         24    2    1    2    0    0 -0.38402716521E+02 -0.40769377898E+02 -0.32656395817E+03  0.34108923473E+03  0.80999607770E+02 0.  0.
         25    2    1    2    0    0  0.70450429444E+02  0.47002535899E+02  0.99849354624E+02  0.18107790520E+03  0.12508722055E+03 0.  0.
        -24    2    1    2    0    0 -0.32047712923E+02 -0.62331580008E+01  0.23914143601E+04  0.23929393184E+04  0.78930547954E+02 0.  0.
        -13    1    3    3    0    0 -0.29106070257E+02 -0.31537761699E+02 -0.32508378384E+03  0.32790434620E+03  0.00000000000E+00 0.  1.
         14    1    3    3    0    0 -0.92966462643E+01 -0.92316161985E+01 -0.14801743278E+01  0.13184888526E+02  0.00000000000E+00 0. -1.
         11    1    5    5    0    0 -0.28093437392E+02 -0.65257616018E+01  0.23862696544E+04  0.23864439424E+04  0.00000000000E+00 0. -1.
        -12    1    5    5    0    0 -0.39542755309E+01  0.29260360105E+00  0.51447057773E+01  0.64953759996E+01  0.00000000000E+00 0.  1.
          5    1    4    4  501    0  0.79957772445E+02  0.14900009934E+02  0.11752672113E+03  0.14298691636E+03  0.41800000000E+01 0. -1.
         -5    1    4    4    0  501 -0.95073430009E+01  0.32102525965E+02 -0.17677366509E+02  0.38090988842E+02  0.41800000000E+01 0. -1.
</event>
<event>
11    1  0.6930157E-009  0.1346514E+03  0.7561462E-02  0.1113682E+00
         22   -1    0    0    0    0  0.00000000000E+00  0.00000000000E+00  0.22882943823E+03  0.22882943823E+03  0.00000000000E+00 0. -1.
         22   -1    0    0    0    0 -0.00000000000E+00 -0.00000000000E+00 -0.28855666495E+04  0.28855666495E+04  0.00000000000E+00 0.  1.
         24    2    1    2    0    0  0.12531596072E+02 -0.47888893790E+02 -0.27221331454E+04  0.27238934913E+04  0.84477831548E+02 0.  0.
         25    2    1    2    0    0  0.17835478666E+02  0.69283114685E+02 -0.11828383908E+03  0.18643127938E+03  0.12508917245E+03 0.  0.
        -24    2    1    2    0    0 -0.30367074738E+02 -0.21394220895E+02  0.18367977316E+03  0.20407131702E+03  0.80789674147E+02 0.  0.
        -11    1    3    3    0    0  0.33065078821E+02 -0.28825989190E+02 -0.24353287899E+04  0.24357238251E+04  0.00000000000E+00 0.  1.
         12    1    3    3    0    0 -0.20533482749E+02 -0.19062904600E+02 -0.28680435547E+03  0.28816966627E+03  0.00000000000E+00 0. -1.
         13    1    5    5    0    0 -0.42504547930E+02  0.19133394839E+02  0.95629420489E+02  0.10638472379E+03  0.00000000000E+00 0. -1.
        -14    1    5    5    0    0  0.12137473192E+02 -0.40527615734E+02  0.88050352669E+02  0.97686593234E+02  0.00000000000E+00 0.  1.
          5    1    4    4  501    0  0.37116906121E+02  0.56588648392E+01  0.12390583262E+02  0.39757847336E+02  0.41800000000E+01 0. -1.
         -5    1    4    4    0  501 -0.19281427454E+02  0.63624249846E+02 -0.13067442234E+03  0.14667343204E+03  0.41800000000E+01 0. -1.
</event>
<event>
11    1  0.6930157E-009  0.1814991E+03  0.7561462E-02  0.1068437E+00
         22   -1    0    0    0    0  0.00000000000E+00  0.00000000000E+00  0.13021182640E+03  0.13021182640E+03  0.00000000000E+00 0.  1.
         22   -1    0    0    0    0 -0.00000000000E+00 -0.00000000000E+00 -0.94617324380E+03  0.94617324380E+03  0.00000000000E+00 0.  1.
         24    2    1    2    0    0 -0.59096736164E+02  0.11861348290E+03 -0.77588963399E+03  0.79139290890E+03  0.82075755048E+02 0.  0.
         25    2    1    2    0    0  0.43361546309E+02 -0.11719842755E+03 -0.87796561657E+02  0.19741445755E+03  0.12509411135E+03 0.  0.
        -24    2    1    2    0    0  0.15735189854E+02 -0.14150553483E+01  0.47724778244E+02  0.87577703748E+02  0.71711931741E+02 0.  0.
        -13    1    3    3    0    0 -0.27733860594E+01  0.16204208377E+02 -0.33097738874E+03  0.33138542499E+03  0.00000000000E+00 0.  1.
         14    1    3    3    0    0 -0.56323350104E+02  0.10240927452E+03 -0.44491224525E+03  0.46000748391E+03  0.00000000000E+00 0. -1.
         11    1    5    5    0    0  0.61179434860E+01 -0.21721573998E+02 -0.10704746171E+02  0.24976941367E+02  0.00000000000E+00 0. -1.
        -12    1    5    5    0    0  0.96172463683E+01  0.20306518650E+02  0.58429524415E+02  0.62600762381E+02  0.00000000000E+00 0.  1.
          5    1    4    4  501    0  0.50273949709E+02 -0.95164749629E+02 -0.11760620133E+03  0.15947567395E+03  0.41800000000E+01 0. -1.
         -5    1    4    4    0  501 -0.69124033994E+01 -0.22033677918E+02  0.29809639677E+02  0.37938783600E+02  0.41800000000E+01 0. -1.
</event>
<event>
11    1  0.6930157E-009  0.1716633E+03  0.7561462E-02  0.1076593E+00
         22   -1    0    0    0    0  0.00000000000E+00  0.00000000000E+00  0.31710827400E+03  0.31710827400E+03  0.00000000000E+00 0. -1.
         22   -1    0    0    0    0 -0.00000000000E+00 -0.00000000000E+00 -0.28015166978E+03  0.28015166978E+03  0.00000000000E+00 0. -1.
        -24    2    1    2    0    0  0.51908120961E+02  0.10250032457E+03 -0.14770860333E+03  0.20302196854E+03  0.78735752070E+02 0.  0.
         25    2    1    2    0    0 -0.24977626404E+02 -0.12728664541E+03 -0.31318581547E+01  0.18023127966E+03  0.12509090180E+03 0.  0.
         24    2    1    2    0    0 -0.26930494556E+02  0.24786320834E+02  0.18779706571E+03  0.21400669558E+03  0.95872387190E+02 0.  0.
        -11    1    5    5    0    0  0.34145414115E+02  0.23432935813E+02  0.80941526768E+02  0.90920528713E+02  0.00000000000E+00 0.  1.
         12    1    5    5    0    0 -0.61075908672E+02  0.13533850216E+01  0.10685553894E+03  0.12308616686E+03  0.00000000000E+00 0. -1.
         13    1    3    3    0    0  0.10893236456E+02  0.97332819619E+02 -0.10311412485E+03  0.14221414528E+03  0.00000000000E+00 0. -1.
        -14    1    3    3    0    0  0.41014884505E+02  0.51675049523E+01 -0.44594478484E+02  0.60807823260E+02  0.00000000000E+00 0.  1.
          5    1    4    4  501    0 -0.56210103914E+01 -0.78205953468E+02 -0.62748467032E+02  0.10051173777E+03  0.41800000000E+01 0.  1.
         -5    1    4    4    0  501 -0.19356616013E+02 -0.49080691937E+02  0.59616608877E+02  0.79719541886E+02  0.41800000000E+01 0.  1.
</event>
<event>
11    1  0.6930157E-009  0.1681480E+03  0.7561462E-02  0.1079655E+00
         22   -1    0    0    0    0  0.00000000000E+00  0.00000000000E+00  0.34972405205E+03  0.34972405205E+03  0.00000000000E+00 0.  1.
         22   -1    0    0    0    0 -0.00000000000E+00 -0.00000000000E+00 -0.42733423986E+03  0.42733423986E+03  0.00000000000E+00 0.  1.
         24    2    1    2    0    0 -0.21377089242E+02 -0.56765388881E+02 -0.30306163698E+03  0.32141032743E+03  0.88198375583E+02 0.  0.
         25    2    1    2    0    0  0.76611015197E+02  0.14357900555E+03  0.12084435355E+02  0.20561405233E+03  0.12508767506E+03 0.  0.
        -24    2    1    2    0    0 -0.55233925955E+02 -0.86813616674E+02  0.21336701381E+03  0.25003391215E+03  0.80025521070E+02 0.  0.
        -11    1    3    3    0    0 -0.53445937070E+02 -0.28516306036E+02 -0.21736617713E+03  0.22564951331E+03  0.00000000000E+00 0.  1.
         12    1    3    3    0    0  0.32068847828E+02 -0.28249082845E+02 -0.85695459848E+02  0.95760814121E+02  0.00000000000E+00 0. -1.
         13    1    5    5    0    0 -0.45150375079E+02 -0.19625758165E+02  0.38707933479E+02  0.62626119691E+02  0.00000000000E+00 0. -1.
        -14    1    5    5    0    0 -0.10083550876E+02 -0.67187858509E+02  0.17465908033E+03  0.18740779245E+03  0.00000000000E+00 0.  1.
          5    1    4    4  501    0  0.91289311398E+02  0.15212559204E+03 -0.96368591398E+01  0.17772528121E+03  0.41800000000E+01 0.  1.
         -5    1    4    4    0  501 -0.14678296200E+02 -0.85465864823E+01  0.21721294494E+02  0.27888771116E+02  0.41800000000E+01 0.  1.
</event>
<event>
11    1  0.6930157E-009  0.2121411E+03  0.7561462E-02  0.1046255E+00
         22   -1    0    0    0    0  0.00000000000E+00  0.00000000000E+00  0.15737900412E+03  0.15737900412E+03  0.00000000000E+00 0.  1.
         22   -1    0    0    0    0 -0.00000000000E+00 -0.00000000000E+00 -0.87773690149E+03  0.87773690149E+03  0.00000000000E+00 0. -1.
         24    2    1    2    0    0  0.95600287926E+02 -0.18300631776E+02 -0.48493519542E+03  0.50126236203E+03  0.81409358499E+02 0.  0.
         25    2    1    2    0    0  0.89192548357E+02 -0.36900772269E+02 -0.27821977211E+03  0.31995438547E+03  0.12509032539E+03 0.  0.
        -24    2    1    2    0    0 -0.18479283628E+03  0.55201404045E+02  0.42797070168E+02  0.21389915812E+03  0.82010202280E+02 0.  0.
        -13    1    3    3    0    0 -0.14667884799E+02 -0.59515864589E+01 -0.54067912588E+02  0.56337442234E+02  0.00000000000E+00 0.  1.
         14    1    3    3    0    0  0.11026817272E+03 -0.12349045317E+02 -0.43086728283E+03  0.44492491979E+03  0.00000000000E+00 0. -1.
         11    1    5    5    0    0 -0.49326342468E+02 -0.20987201371E+02  0.42808914265E+01  0.53776172364E+02  0.00000000000E+00 0. -1.
        -12    1    5    5    0    0 -0.13546649382E+03  0.76188605416E+02  0.38516178742E+02  0.16012298575E+03  0.00000000000E+00 0.  1.
          5    1    4    4  501    0  0.82739242035E+02  0.25856514092E+02 -0.20846874492E+03  0.22581193835E+03  0.41800000000E+01 0.  1.
         -5    1    4    4    0  501  0.64533063228E+01 -0.62757286362E+02 -0.69751027196E+02  0.94142447115E+02  0.41800000000E+01 0.  1.
</event>
<event>
11    1  0.6930157E-009  0.2547669E+03  0.7561462E-02  0.1021390E+00
         22   -1    0    0    0    0  0.00000000000E+00  0.00000000000E+00  0.55728967467E+03  0.55728967467E+03  0.00000000000E+00 0. -1.
         22   -1    0    0    0    0 -0.00000000000E+00 -0.00000000000E+00 -0.57859020823E+03  0.57859020823E+03  0.00000000000E+00 0.  1.
         24    2    1    2    0    0 -0.42700661523E+02 -0.56380372462E+02 -0.32645591782E+03  0.34282319653E+03  0.77150404442E+02 0.  0.
         25    2    1    2    0    0 -0.17062308077E+03  0.12659326992E+03 -0.14343437958E+03  0.28523264278E+03  0.12508456172E+03 0.  0.
        -24    2    1    2    0    0  0.21332374229E+03 -0.70212897454E+02  0.44858976385E+03  0.50782404359E+03  0.78839159189E+02 0.  0.
        -13    1    3    3    0    0 -0.47568632873E+02 -0.59641947316E+02 -0.17086963312E+03  0.18712661017E+03  0.00000000000E+00 0.  1.
         14    1    3    3    0    0  0.48679713502E+01  0.32615748543E+01 -0.15558628470E+03  0.15569658636E+03  0.00000000000E+00 0. -1.
         13    1    5    5    0    0  0.21842889051E+03 -0.74925341538E+02  0.43219343827E+03  0.49001648452E+03  0.00000000000E+00 0. -1.
        -14    1    5    5    0    0 -0.51051482194E+01  0.47124440838E+01  0.16396325579E+02  0.17807559071E+02  0.00000000000E+00 0.  1.
          5    1    4    4  501    0 -0.11936946065E+03  0.95884810817E+02 -0.16158920173E+03  0.22264659799E+03  0.41800000000E+01 0. -1.
         -5    1    4    4    0  501 -0.51253620113E+02  0.30708459098E+02  0.18154822145E+02  0.62586044787E+02  0.41800000000E+01 0. -1.
</event>
<event>
11    1  0.6930157E-009  0.2237448E+03  0.7561462E-02  0.1038897E+00
         22   -1    0    0    0    0  0.00000000000E+00  0.00000000000E+00  0.55453337949E+03  0.55453337949E+03  0.00000000000E+00 0. -1.
         22   -1    0    0    0    0 -0.00000000000E+00 -0.00000000000E+00 -0.67013352511E+03  0.67013352511E+03  0.00000000000E+00 0.  1.
        -24    2    1    2    0    0  0.72423584256E+02  0.16854411775E+03 -0.51975876862E+03  0.55708752764E+03  0.80901425881E+02 0.  0.
         25    2    1    2    0    0 -0.22930375097E+03 -0.15331192080E+03  0.38482821036E+03  0.48971959616E+03  0.12509107126E+03 0.  0.
         24    2    1    2    0    0  0.15688016671E+03 -0.15232196946E+02  0.19330412648E+02  0.17785978080E+03  0.80106368311E+02 0.  0.
        -13    1    5    5    0    0  0.25408115690E+02 -0.33481398289E+02  0.16335264498E+02  0.45093427908E+02  0.00000000000E+00 0.  1.
         14    1    5    5    0    0  0.13147205102E+03  0.18249201343E+02  0.29951481494E+01  0.13276635290E+03  0.00000000000E+00 0. -1.
         11    1    3    3    0    0  0.54872868908E+02  0.78842754991E+02 -0.16676369854E+03  0.19245088441E+03  0.00000000000E+00 0. -1.
        -12    1    3    3    0    0  0.17550715347E+02  0.89701362759E+02 -0.35299507008E+03  0.36463664324E+03  0.00000000000E+00 0.  1.
          5    1    4    4  501    0 -0.11604371135E+03 -0.14625720038E+03  0.26940123473E+03  0.32779842782E+03  0.41800000000E+01 0.  1.
         -5    1    4    4    0  501 -0.11326003962E+03 -0.70547204232E+01  0.11542697563E+03  0.16192116834E+03  0.41800000000E+01 0.  1.
</event>
<event>
11    1  0.6930157E-009  0.1489409E+03  0.7561462E-02  0.1097966E+00
         22   -1    0    0    0    0  0.00000000000E+00  0.00000000000E+00  0.82059199285E+02  0.82059199285E+02  0.00000000000E+00 0.  1.
         22   -1    0    0    0    0 -0.00000000000E+00 -0.00000000000E+00 -0.38046676521E+04  0.38046676521E+04  0.00000000000E+00 0. -1.
         24    2    1    2    0    0  0.26423017627E+02  0.18336664606E+02 -0.23344777229E+04  0.23361359821E+04  0.81918736020E+02 0.  0.
         25    2    1    2    0    0 -0.10139458761E+03  0.10485118597E+02 -0.14226507275E+04  0.14317729111E+04  0.12509107295E+03 0.  0.
        -24    2    1    2    0    0  0.74971569987E+02 -0.28821783203E+02  0.34519997528E+02  0.11881795813E+03  0.80465181611E+02 0.  0.
        -11    1    3    3    0    0  0.31457874883E+02  0.25668614497E+02 -0.50278972441E+03  0.50442638971E+03  0.00000000000E+00 0.  1.
         12    1    3    3    0    0 -0.50348572563E+01 -0.73319498904E+01 -0.18316879985E+04  0.18317095924E+04  0.00000000000E+00 0. -1.
         11    1    5    5    0    0  0.56555091548E+02 -0.45911675709E+02 -0.38586833295E+01  0.72946897010E+02  0.00000000000E+00 0. -1.
        -12    1    5    5    0    0  0.18416478440E+02  0.17089892506E+02  0.38378680858E+02  0.45871061121E+02  0.00000000000E+00 0.  1.
          5    1    4    4  501    0  0.34288686371E+01  0.75781188312E+01 -0.56464011903E+01  0.10887574181E+02  0.41800000000E+01 0. -1.
         -5    1    4    4    0  501 -0.10482345625E+03  0.29069997655E+01 -0.14170043263E+04  0.14208853370E+04  0.41800000000E+01 0. -1.
</event>
<event>
11    1  0.6930157E-009  0.2318525E+03  0.7561462E-02  0.1034037E+00
         22   -1    0    0    0    0  0.00000000000E+00  0.00000000000E+00  0.15428332410E+03  0.15428332410E+03  0.00000000000E+00 0. -1.
         22   -1    0    0    0    0 -0.00000000000E+00 -0.00000000000E+00 -0.28391961074E+04  0.28391961074E+04  0.00000000000E+00 0. -1.
        -24    2    1    2    0    0 -0.37536633261E+02  0.33992898891E+02 -0.20521102544E+04  0.20542993968E+04  0.80156093852E+02 0.  0.
         25    2    1    2    0    0  0.20439386661E+03 -0.12504266765E+03 -0.67792328156E+03  0.72981722070E+03  0.12506269830E+03 0.  0.
         24    2    1    2    0    0 -0.16685723335E+03  0.91049768755E+02  0.45120752648E+02  0.20936281404E+03  0.75269574664E+02 0.  0.
        -13    1    5    5    0    0  0.51094381814E+01 -0.80795887834E+00  0.10004898575E+02  0.11263088012E+02  0.00000000000E+00 0.  1.
         14    1    5    5    0    0 -0.17196667153E+03  0.91857727634E+02  0.35115854073E+02  0.19809972602E+03  0.00000000000E+00 0. -1.
         13    1    3    3    0    0 -0.33530951213E+02  0.17253887543E+02 -0.19720238907E+04  0.19723844064E+04  0.00000000000E+00 0. -1.
        -14    1    3    3    0    0 -0.40056820479E+01  0.16739011348E+02 -0.80086363706E+02  0.81914990333E+02  0.00000000000E+00 0.  1.
          5    1    4    4  501    0 -0.12391358961E+02 -0.29514760638E+02 -0.62178598392E+02  0.70059384599E+02  0.41800000000E+01 0.  1.
         -5    1    4    4    0  501  0.21678522557E+03 -0.95527907008E+02 -0.61574468317E+03  0.65975783610E+03  0.41800000000E+01 0.  1.
</event>
<event>
11    1  0.6930157E-009  0.1558503E+03  0.7561462E-02  0.1091046E+00
         22   -1    0    0    0    0  0.00000000000E+00  0.00000000000E+00  0.23297766063E+04  0.23297766063E+04  0.00000000000E+00 0. -1.
         22   -1    0    0    0    0 -0.00000000000E+00 -0.00000000000E+00 -0.17091452485E+04  0.17091452485E+04  0.00000000000E+00 0.  1.
        -24    2    1    2    0    0  0.60163826494E+02 -0.71145080864E+02 -0.16606342054E+04  0.16651901256E+04  0.80441790327E+02 0.  0.
         25    2    1    2    0    0 -0.21140952541E+02  0.87781786733E+02  0.86130372332E+02  0.17668669097E+03  0.12508862367E+03 0.  0.
         24    2    1    2    0    0 -0.39022873953E+02 -0.16636705869E+02  0.21951351909E+04  0.21970450382E+04  0.81171601644E+02 0.  0.
        -13    1    5    5    0    0 -0.15196138248E+02  0.20821091225E+02  0.23540117263E+03  0.23680826112E+03  0.00000000000E+00 0.  1.
         14    1    5    5    0    0 -0.23826735705E+02 -0.37457797094E+02  0.19597340183E+04  0.19602367771E+04  0.00000000000E+00 0. -1.
         11    1    3    3    0    0  0.10003263966E+02 -0.29694424614E+02 -0.15421114812E+03  0.15736232824E+03  0.00000000000E+00 0. -1.
        -12    1    3    3    0    0  0.50160562528E+02 -0.41450656250E+02 -0.15064230573E+04  0.15078277974E+04  0.00000000000E+00 0.  1.
          5    1    4    4  501    0  0.45490205269E+02  0.69657761019E+02  0.33590831269E+02  0.89818588226E+02  0.41800000000E+01 0. -1.
         -5    1    4    4    0  501 -0.66631157810E+02  0.18124025715E+02  0.52539541063E+02  0.86868102744E+02  0.41800000000E+01 0. -1.
</event>
<event>
11    1  0.6930157E-009  0.1418579E+03  0.7561462E-02  0.1105501E+00
         22   -1    0    0    0    0  0.00000000000E+00  0.00000000000E+00  0.52457288595E+03  0.52457288595E+03  0.00000000000E+00 0.  1.
         22   -1    0    0    0    0 -0.00000000000E+00 -0.00000000000E+00 -0.26359603826E+03  0.26359603826E+03  0.00000000000E+00 0.  1.
        -24    2    1    2    0    0 -0.22184682262E+02 -0.63794325098E+02 -0.22355319775E+03  0.24841686079E+03  0.84693733297E+02 0.  0.
         25    2    1    2    0    0 -0.24434523070E+02  0.62649122687E+02  0.26579191332E+03  0.30136066651E+03  0.12510376351E+03 0.  0.
         24    2    1    2    0    0  0.46619205332E+02  0.11452024108E+01  0.21873813211E+03  0.23839139690E+03  0.82519245522E+02 0.  0.
        -11    1    5    5    0    0  0.16447004624E+02 -0.38870450300E+02  0.12737419086E+03  0.13418494835E+03  0.00000000000E+00 0.  1.
         12    1    5    5    0    0  0.30172200708E+02  0.40015652711E+02  0.91363941260E+02  0.10420644855E+03  0.00000000000E+00 0. -1.
         11    1    3    3    0    0 -0.19234178700E+02  0.13553312608E+02 -0.20852252133E+02  0.31439820800E+02  0.00000000000E+00 0. -1.
        -12    1    3    3    0    0 -0.29505035619E+01 -0.77347637706E+02 -0.20270094561E+03  0.21697703999E+03  0.00000000000E+00 0.  1.
          5    1    4    4  501    0  0.12921482160E+02 -0.14538169622E+02  0.17603152971E+03  0.17715218014E+03  0.41800000000E+01 0. -1.
         -5    1    4    4    0  501 -0.37356005230E+02  0.77187292310E+02  0.89760383609E+02  0.12420848637E+03  0.41800000000E+01 0. -1.
</event>
<event>
11    1  0.6930157E-009  0.1589939E+03  0.7561462E-02  0.1088027E+00
         22   -1    0    0    0    0  0.00000000000E+00  0.00000000000E+00  0.39160485933E+03  0.39160485933E+03  0.00000000000E+00 0. -1.
         22   -1    0    0    0    0 -0.00000000000E+00 -0.00000000000E+00 -0.30508186630E+03  0.30508186630E+03  0.00000000000E+00 0.  1.
        -24    2    1    2    0    0 -0.41617806852E+01  0.11603054922E+02 -0.13076943131E+03  0.15415226373E+03  0.80686584674E+02 0.  0.
         25    2    1    2    0    0  0.49290703027E+02 -0.97733006336E+02 -0.10472626619E+03  0.19646000726E+03  0.12509048600E+03 0.  0.
         24    2    1    2    0    0 -0.45128922342E+02  0.86129951413E+02  0.32201869053E+03  0.34607445465E+03  0.81341889255E+02 0.  0.
        -11    1    5    5    0    0 -0.19895864820E+02  0.55366399445E+02  0.72331448637E+02  0.93236913754E+02  0.00000000000E+00 0.  1.
         12    1    5    5    0    0 -0.25233057521E+02  0.30763551969E+02  0.24968724189E+03  0.25283754089E+03  0.00000000000E+00 0. -1.
         13    1    3    3    0    0 -0.39335288661E+02  0.19900246924E+02 -0.57486307700E+02  0.72442807335E+02  0.00000000000E+00 0. -1.
        -14    1    3    3    0    0  0.35173507976E+02 -0.82971920014E+01 -0.73283123609E+02  0.81709456395E+02  0.00000000000E+00 0.  1.
          5    1    4    4  501    0  0.26313836470E+02  0.26080655359E+02 -0.40461793152E+02  0.55020429649E+02  0.41800000000E+01 0.  1.
         -5    1    4    4    0  501  0.22976866558E+02 -0.12381366169E+03 -0.64264473040E+02  0.14143957761E+03  0.41800000000E+01 0.  1.
</event>
<event>
11    1  0.6930157E-009  0.1851121E+03  0.7561462E-02  0.1065581E+00
         22   -1    0    0    0    0  0.00000000000E+00  0.00000000000E+00  0.63696504021E+03  0.63696504021E+03  0.00000000000E+00 0.  1.
         22   -1    0    0    0    0 -0.00000000000E+00 -0.00000000000E+00 -0.11326457491E+03  0.11326457491E+03  0.00000000000E+00 0.  1.
         24    2    1    2    0    0  0.68060562705E+02 -0.98800812173E-02 -0.81385268192E+01  0.10507933213E+03  0.79644146858E+02 0.  0.
         25    2    1    2    0    0  0.79232070722E+02 -0.54367250024E+02  0.12454053250E+03  0.20097900940E+03  0.12509476040E+03 0.  0.
        -24    2    1    2    0    0 -0.14729263343E+03  0.54377130106E+02  0.40729845963E+03  0.44417127358E+03  0.82122426419E+02 0.  0.
        -11    1    3    3    0    0  0.85474242891E+02 -0.55465573710E+01 -0.11740841379E+02  0.86454946953E+02  0.00000000000E+00 0.  1.
         12    1    3    3    0    0 -0.17413680186E+02  0.55366772897E+01  0.36023145601E+01  0.18624385177E+02  0.00000000000E+00 0. -1.
         13    1    5    5    0    0 -0.75075187981E+01  0.18770375157E+02  0.12314305825E+02  0.23671331817E+02  0.00000000000E+00 0. -1.
        -14    1    5    5    0    0 -0.13978511463E+03  0.35606754948E+02  0.39498415380E+03  0.42049994177E+03  0.00000000000E+00 0.  1.
          5    1    4    4  501    0  0.11147304405E+03 -0.54814678128E+02  0.89397065796E+02  0.15310191462E+03  0.41800000000E+01 0. -1.
         -5    1    4    4    0  501 -0.32240973326E+02  0.44742810342E+00  0.35143466700E+02  0.47877094781E+02  0.41800000000E+01 0. -1.
</event>
<event>
11    1  0.1247378E-008  0.1792553E+03  0.7561462E-02  0.1070247E+00
         22   -1    0    0    0    0  0.00000000000E+00  0.00000000000E+00  0.38482355081E+03  0.38482355081E+03  0.00000000000E+00 0. -1.
         22   -1    0    0    0    0 -0.00000000000E+00 -0.00000000000E+00 -0.16435770875E+04  0.16435770875E+04  0.00000000000E+00 0.  1.
        -24    2    1    2    0    0 -0.99174185947E+01  0.32459877262E+02 -0.73389159831E+03  0.73904214730E+03  0.80214827800E+02 0.  0.
         25    2    1    2    0    0  0.13623099041E+03 -0.53955084984E+02 -0.88109455216E+03  0.90191211951E+03  0.12509127678E+03 0.  0.
         24    2    1    2    0    0 -0.12631357181E+03  0.21495207722E+02  0.35623261379E+03  0.38744637149E+03  0.82436965454E+02 0.  0.
        -11    1    5    5    0    0 -0.13319160343E+03  0.38575766389E+01  0.30538784484E+03  0.33319156637E+03  0.00000000000E+00 0.  1.
         12    1    5    5    0    0  0.68780316195E+01  0.17637631083E+02  0.50844768950E+02  0.54254805121E+02  0.00000000000E+00 0. -1.
         11    1    3    3    0    0 -0.32120649137E+02  0.80404708960E+01 -0.12673295411E+03  0.13098712506E+03  0.00000000000E+00 0. -1.
        -12    1    3    3    0    0  0.22203230543E+02  0.24419406366E+02 -0.60715864420E+03  0.60805502224E+03  0.00000000000E+00 0.  1.
          5    1    4    4  501    0  0.91349637642E+02 -0.28434135594E+02 -0.23526408405E+03  0.25400771250E+03  0.41800000000E+01 0. -1.
         -5    1    4    4    0  501  0.44881352767E+02 -0.25520949390E+02 -0.64583046812E+03  0.64790440702E+03  0.41800000000E+01 0. -1.
</event>
<event>
11    1  0.6930157E-009  0.1867600E+03  0.7561462E-02  0.1064302E+00
         22   -1    0    0    0    0  0.00000000000E+00  0.00000000000E+00  0.56262101850E+03  0.56262101850E+03  0.00000000000E+00 0.  1.
         22   -1    0    0    0    0 -0.00000000000E+00 -0.00000000000E+00 -0.35691562384E+03  0.35691562384E+03  0.00000000000E+00 0. -1.
         24    2    1    2    0    0 -0.28200059956E+02 -0.15548317966E+02 -0.27782258559E+03  0.29084434331E+03  0.79800058867E+02 0.  0.
         25    2    1    2    0    0 -0.97786566020E+02  0.82123538024E+02  0.85363793847E+02  0.19809387795E+03  0.12509084375E+03 0.  0.
        -24    2    1    2    0    0  0.12598662598E+03 -0.66575220058E+02  0.39816418641E+03  0.43059842108E+03  0.81088784973E+02 0.  0.
        -13    1    3    3    0    0 -0.11862853573E+02 -0.33725816980E+02 -0.48657714850E+02  0.60379891026E+02  0.00000000000E+00 0.  1.
         14    1    3    3    0    0 -0.16337206384E+02  0.18177499014E+02 -0.22916487074E+03  0.23046445228E+03  0.00000000000E+00 0. -1.
         13    1    5    5    0    0  0.31709392352E+02  0.57377064072E+01  0.31104001192E+02  0.44786892372E+02  0.00000000000E+00 0. -1.
        -14    1    5    5    0    0  0.94277233624E+02 -0.72312926465E+02  0.36706018522E+03  0.38581152871E+03  0.00000000000E+00 0.  1.
          5    1    4    4  501    0 -0.96727903220E+02  0.74496130624E+02  0.10381978018E+02  0.12260187032E+03  0.41800000000E+01 0.  1.
         -5    1    4    4    0  501 -0.10586628006E+01  0.76274073997E+01  0.74981815828E+02  0.75492007627E+02  0.41800000000E+01 0.  1.
</event>
<event>
11    1  0.6930157E-009  0.1883953E+03  0.7561462E-02  0.1063047E+00
         22   -1    0    0    0    0  0.00000000000E+00  0.00000000000E+00  0.37555587715E+04  0.37555587715E+04  0.00000000000E+00 0.  1.
         22   -1    0    0    0    0 -0.00000000000E+00 -0.00000000000E+00 -0.15042885680E+04  0.15042885680E+04  0.00000000000E+00 0.  1.
         24    2    1    2    0    0  0.45998148371E+02  0.99061914830E+02 -0.57500143880E+03  0.59114218989E+03  0.83026149035E+02 0.  0.
         25    2    1    2    0    0 -0.11777499210E+03 -0.16573863984E+03 -0.90468602217E+03  0.93565219899E+03  0.12509193923E+03 0.  0.
        -24    2    1    2    0    0  0.71776843734E+02  0.66676725008E+02  0.37309576645E+04  0.37330529506E+04  0.77727321334E+02 0.  0.
        -11    1    3    3    0    0  0.79885161312E+01 -0.12024505136E+02 -0.13413592832E+03  0.13491053472E+03  0.00000000000E+00 0.  1.
         12    1    3    3    0    0  0.38009632240E+02  0.11108641997E+03 -0.44086551048E+03  0.45623165517E+03  0.00000000000E+00 0. -1.
         11    1    5    5    0    0 -0.11792906326E+02 -0.68276674736E+01  0.46408431807E+03  0.46428433525E+03  0.00000000000E+00 0. -1.
        -12    1    5    5    0    0  0.83569750059E+02  0.73504392482E+02  0.32668733464E+04  0.32687686153E+04  0.00000000000E+00 0.  1.
          5    1    4    4  501    0  0.26097326937E+02 -0.25848662507E+02 -0.17515994561E+03  0.17901872185E+03  0.41800000000E+01 0.  1.
         -5    1    4    4    0  501 -0.14387231904E+03 -0.13988997733E+03 -0.72952607656E+03  0.75663347714E+03  0.41800000000E+01 0.  1.
</event>
<event>
11    1  0.6930157E-009  0.1418751E+03  0.7561462E-02  0.1105482E+00
         22   -1    0    0    0    0  0.00000000000E+00  0.00000000000E+00  0.18993885952E+03  0.18993885952E+03  0.00000000000E+00 0.  1.
         22   -1    0    0    0    0 -0.00000000000E+00 -0.00000000000E+00 -0.14155450094E+04  0.14155450094E+04  0.00000000000E+00 0.  1.
         24    2    1    2    0    0  0.66458310308E+02  0.18219813152E+02 -0.11650003301E+04  0.11700699273E+04  0.84197368503E+02 0.  0.
         25    2    1    2    0    0 -0.58224503179E+02  0.25280295180E+02 -0.21508952315E+03  0.25678781989E+03  0.12508914972E+03 0.  0.
        -24    2    1    2    0    0 -0.82338071290E+01 -0.43500108332E+02  0.15448370340E+03  0.17862612178E+03  0.77987317957E+02 0.  0.
        -11    1    3    3    0    0  0.90361350266E+01 -0.18630546247E+02 -0.67769465602E+03  0.67801091126E+03  0.00000000000E+00 0.  1.
         12    1    3    3    0    0  0.57422175282E+02  0.36850359399E+02 -0.48730567411E+03  0.49205901599E+03  0.00000000000E+00 0. -1.
         13    1    5    5    0    0 -0.84878184655E+01  0.18823051964E+02  0.14024216211E+02  0.24960548629E+02  0.00000000000E+00 0. -1.
        -14    1    5    5    0    0  0.25401133653E+00 -0.62323160297E+02  0.14045948719E+03  0.15366557315E+03  0.00000000000E+00 0.  1.
          5    1    4    4  501    0 -0.29080569435E+02  0.74717992332E+02 -0.14823466568E+03  0.16858068219E+03  0.41800000000E+01 0.  1.
         -5    1    4    4    0  501 -0.29143933744E+02 -0.49437697152E+02 -0.66854857469E+02  0.88207137699E+02  0.41800000000E+01 0.  1.
</event>
<event>
11    1  0.6930157E-009  0.1413967E+03  0.7561462E-02  0.1106009E+00
         22   -1    0    0    0    0  0.00000000000E+00  0.00000000000E+00  0.44767991940E+03  0.44767991940E+03  0.00000000000E+00 0.  1.
         22   -1    0    0    0    0 -0.00000000000E+00 -0.00000000000E+00 -0.94422613358E+03  0.94422613358E+03  0.00000000000E+00 0.  1.
        -24    2    1    2    0    0 -0.57957917158E+02 -0.60197480601E+01 -0.84274553675E+03  0.84862149044E+03  0.80889039982E+02 0.  0.
         25    2    1    2    0    0  0.77745638967E+02  0.67097727102E+02 -0.20443456793E+02  0.16313115677E+03  0.12508936815E+03 0.  0.
         24    2    1    2    0    0 -0.19787721810E+02 -0.61077979042E+02  0.36664277938E+03  0.38015340577E+03  0.77250312569E+02 0.  0.
        -11    1    5    5    0    0  0.24046934722E+02 -0.49581254550E+02  0.20541982734E+03  0.21268253651E+03  0.00000000000E+00 0.  1.
         12    1    5    5    0    0 -0.43834656532E+02 -0.11496724492E+02  0.16122295203E+03  0.16747086926E+03  0.00000000000E+00 0. -1.
         11    1    3    3    0    0 -0.82419725127E+01 -0.12336941059E+02 -0.23157927359E+02  0.27503087557E+02  0.00000000000E+00 0. -1.
        -12    1    3    3    0    0 -0.49715944645E+02  0.63171929986E+01 -0.81958760939E+03  0.82111840288E+03  0.00000000000E+00 0.  1.
          5    1    4    4  501    0  0.91673717194E+02 -0.13916167587E+01 -0.13594593035E+02  0.92780883706E+02  0.41800000000E+01 0.  1.
         -5    1    4    4    0  501 -0.13928078227E+02  0.68489343861E+02 -0.68488637583E+01  0.70350273065E+02  0.41800000000E+01 0.  1.
</event>
<event>
11    1  0.6930157E-009  0.1383630E+03  0.7561462E-02  0.1109400E+00
         22   -1    0    0    0    0  0.00000000000E+00  0.00000000000E+00  0.75216670165E+03  0.75216670165E+03  0.00000000000E+00 0.  1.
         22   -1    0    0    0    0 -0.00000000000E+00 -0.00000000000E+00 -0.51560862247E+03  0.51560862247E+03  0.00000000000E+00 0. -1.
        -24    2    1    2    0    0  0.45074189945E+02 -0.23268105939E+02 -0.35125429209E+03  0.36369788631E+03  0.79520358694E+02 0.  0.
         25    2    1    2    0    0 -0.25968473932E+02  0.79039420275E+02 -0.11800060719E+03  0.19103215192E+03  0.12509016018E+03 0.  0.
         24    2    1    2    0    0 -0.19105716013E+02 -0.55771314336E+02  0.70581297846E+03  0.71304528588E+03  0.82378099487E+02 0.  0.
        -13    1    5    5    0    0  0.16661986897E+01 -0.72782656534E+02  0.56748828956E+03  0.57213901291E+03  0.00000000000E+00 0.  1.
         14    1    5    5    0    0 -0.20771914703E+02  0.17011342197E+02  0.13832468890E+03  0.14090627297E+03  0.00000000000E+00 0. -1.
         13    1    3    3    0    0  0.45821459226E+02 -0.49622029699E+02 -0.26729159074E+03  0.27569321072E+03  0.00000000000E+00 0. -1.
        -14    1    3    3    0    0 -0.74726928065E+00  0.26353923760E+02 -0.83962701351E+02  0.88004675598E+02  0.00000000000E+00 0.  1.
          5    1    4    4  501    0 -0.14537915156E+02  0.55626322837E+02 -0.14330957183E+03  0.15446923496E+03  0.41800000000E+01 0.  1.
         -5    1    4    4    0  501 -0.11430558776E+02  0.23413097438E+02  0.25308964643E+02  0.36562916964E+02  0.41800000000E+01 0.  1.
</event>
<event>
11    1  0.6930157E-009  0.1335764E+03  0.7561462E-02  0.1114951E+00
         22   -1    0    0    0    0  0.00000000000E+00  0.00000000000E+00  0.85464768825E+03  0.85464768825E+03  0.00000000000E+00 0. -1.
         22   -1    0    0    0    0 -0.00000000000E+00 -0.00000000000E+00 -0.32566761646E+04  0.32566761646E+04  0.00000000000E+00 0.  1.
         24    2    1    2    0    0  0.25028474639E+02  0.39636341795E+02 -0.32346282785E+04  0.32359785011E+04  0.80865912810E+02 0.  0.
         25    2    1    2    0    0  0.96059002952E+01 -0.48707350203E+02  0.23167299084E+03  0.26792718294E+03  0.12509165194E+03 0.  0.
        -24    2    1    2    0    0 -0.34634374934E+02  0.90710084077E+01  0.60092681125E+03  0.60741816879E+03  0.81006025578E+02 0.  0.
        -11    1    3    3    0    0  0.85214579934E+01  0.51986537301E+02 -0.29955027831E+04  0.29959659776E+04  0.00000000000E+00 0.  1.
         12    1    3    3    0    0  0.16507016645E+02 -0.12350195506E+02 -0.23912549535E+03  0.24001252354E+03  0.00000000000E+00 0. -1.
         13    1    5    5    0    0 -0.52475307124E+02 -0.40397835326E+01  0.54061687213E+03  0.54317269826E+03  0.00000000000E+00 0. -1.
        -14    1    5    5    0    0  0.17840932190E+02  0.13110791940E+02  0.60309939123E+02  0.64245470531E+02  0.00000000000E+00 0.  1.
          5    1    4    4  501    0 -0.33220399602E+02 -0.58069705455E+02  0.57628206092E+02  0.88397783789E+02  0.41800000000E+01 0.  1.
         -5    1    4    4    0  501  0.42826299897E+02  0.93623552526E+01  0.17404478475E+03  0.17952939915E+03  0.41800000000E+01 0.  1.
</event>
<event>
11    1  0.6930157E-009  0.1459236E+03  0.7561462E-02  0.1101118E+00
         22   -1    0    0    0    0  0.00000000000E+00  0.00000000000E+00  0.48390205736E+03  0.48390205736E+03  0.00000000000E+00 0. -1.
         22   -1    0    0    0    0 -0.00000000000E+00 -0.00000000000E+00 -0.16693996818E+03  0.16693996818E+03  0.00000000000E+00 0. -1.
        -24    2    1    2    0    0  0.87769617168E+01  0.68576757136E+02 -0.70199684459E+02  0.12715736951E+03  0.80381554140E+02 0.  0.
         25    2    1    2    0    0 -0.32552664791E+02 -0.92394057724E+02  0.37488594211E+02  0.16323595068E+03  0.12507694835E+03 0.  0.
         24    2    1    2    0    0  0.23775703075E+02  0.23817300588E+02  0.34967317943E+03  0.36044870535E+03  0.80742732907E+02 0.  0.
        -13    1    5    5    0    0  0.24093637069E+02  0.26453950220E+02  0.54092512725E+02  0.64856108135E+02  0.00000000000E+00 0.  1.
         14    1    5    5    0    0 -0.31793399410E+00 -0.26366496328E+01  0.29558066670E+03  0.29559259722E+03  0.00000000000E+00 0. -1.
         11    1    3    3    0    0 -0.31959436119E+02  0.44090834581E+02 -0.19961337559E+02  0.57998812472E+02  0.00000000000E+00 0. -1.
        -12    1    3    3    0    0  0.40736397836E+02  0.24485922555E+02 -0.50238346901E+02  0.69158557036E+02  0.00000000000E+00 0.  1.
          5    1    4    4  501    0 -0.55857926216E+01  0.16259545745E+02  0.47571310321E+02  0.50755057607E+02  0.41800000000E+01 0.  1.
         -5    1    4    4    0  501 -0.26966872170E+02 -0.10865360347E+03 -0.10082716110E+02  0.11248089307E+03  0.41800000000E+01 0.  1.
</event>
<event>
11    1  0.6930157E-009  0.1256786E+03  0.7561462E-02  0.1124696E+00
         22   -1    0    0    0    0  0.00000000000E+00  0.00000000000E+00  0.20106164356E+03  0.20106164356E+03  0.00000000000E+00 0.  1.
         22   -1    0    0    0    0 -0.00000000000E+00 -0.00000000000E+00 -0.79712149196E+03  0.79712149196E+03  0.00000000000E+00 0.  1.
         24    2    1    2    0    0  0.42260958611E+02 -0.27581198351E+00 -0.71079437251E+03  0.71672526834E+03  0.81733748136E+02 0.  0.
         25    2    1    2    0    0 -0.25729264178E+02 -0.11202343832E+02  0.10972927277E+02  0.12867110477E+03  0.12509340721E+03 0.  0.
        -24    2    1    2    0    0 -0.16531694433E+02  0.11478155815E+02  0.10376159683E+03  0.15278676241E+03  0.11032805994E+03 0.  0.
        -11    1    3    3    0    0  0.62105619229E+02 -0.18153080080E+02 -0.53838908798E+03  0.54226326846E+03  0.00000000000E+00 0.  1.
         12    1    3    3    0    0 -0.19844660618E+02  0.17877268096E+02 -0.17240528453E+03  0.17446199988E+03  0.00000000000E+00 0. -1.
         13    1    5    5    0    0 -0.14490782783E+02 -0.34319164178E+02 -0.22160976231E+01  0.37318881337E+02  0.00000000000E+00 0. -1.
        -14    1    5    5    0    0 -0.20409116499E+01  0.45797319993E+02  0.10597769445E+03  0.11546788108E+03  0.00000000000E+00 0.  1.
          5    1    4    4  501    0  0.37322889725E+02 -0.27627814457E+02 -0.26260069222E+02  0.53510352873E+02  0.41800000000E+01 0.  1.
         -5    1    4    4    0  501 -0.63052153903E+02  0.16425470626E+02  0.37232996499E+02  0.75160751894E+02  0.41800000000E+01 0.  1.
</event>
<event>
11    1  0.6930157E-009  0.1582007E+03  0.7561462E-02  0.1088782E+00
         22   -1    0    0    0    0  0.00000000000E+00  0.00000000000E+00  0.22858860134E+03  0.22858860134E+03  0.00000000000E+00 0.  1.
         22   -1    0    0    0    0 -0.00000000000E+00 -0.00000000000E+00 -0.13651545897E+04  0.13651545897E+04  0.00000000000E+00 0.  1.
        -24    2    1    2    0    0 -0.95579963574E+02 -0.58075922876E+02 -0.10432251674E+04  0.10522207148E+04  0.79632534067E+02 0.  0.
         25    2    1    2    0    0  0.49154177924E+02  0.91455927024E+01 -0.28926608983E+03  0.31909640733E+03  0.12509145204E+03 0.  0.
         24    2    1    2    0    0  0.46425785650E+02  0.48930330174E+02  0.19592526884E+03  0.22242606894E+03  0.80852423511E+02 0.  0.
        -13    1    5    5    0    0  0.15584112892E+02  0.10186133467E+02  0.16040874752E+03  0.16148556645E+03  0.00000000000E+00 0.  1.
         14    1    5    5    0    0  0.30841672758E+02  0.38744196707E+02  0.35516521323E+02  0.60940502491E+02  0.00000000000E+00 0. -1.
         11    1    3    3    0    0 -0.12860422790E+01  0.16000636177E+02 -0.83060448524E+02  0.84597354402E+02  0.00000000000E+00 0. -1.
        -12    1    3    3    0    0 -0.94293921295E+02 -0.74076559053E+02 -0.96016471888E+03  0.96762336039E+03  0.00000000000E+00 0.  1.
          5    1    4    4  501    0  0.93225501928E+01 -0.39542344455E+02 -0.22643678007E+03  0.23009040553E+03  0.41800000000E+01 0.  1.
         -5    1    4    4    0  501  0.39831627732E+02  0.48687937157E+02 -0.62829309759E+02  0.89006001804E+02  0.41800000000E+01 0.  1.
</event>
<event>
11    1  0.6930157E-009  0.1386814E+03  0.7561462E-02  0.1109040E+00
         22   -1    0    0    0    0  0.00000000000E+00  0.00000000000E+00  0.17595829550E+04  0.17595829550E+04  0.00000000000E+00 0. -1.
         22   -1    0    0    0    0 -0.00000000000E+00 -0.00000000000E+00 -0.67406473538E+02  0.67406473538E+02  0.00000000000E+00 0.  1.
        -24    2    1    2    0    0  0.33779844375E+02  0.44831600873E+02 -0.64820940732E+01  0.10691989346E+03  0.90768363165E+02 0.  0.
         25    2    1    2    0    0  0.29440940198E+02 -0.13082183790E+02  0.49201988590E+03  0.50869402538E+03  0.12509248915E+03 0.  0.
         24    2    1    2    0    0 -0.63220784573E+02 -0.31749417083E+02  0.12066386897E+04  0.12113755097E+04  0.80304452439E+02 0.  0.
        -13    1    5    5    0    0  0.13603311082E+02 -0.14173224534E+02  0.98617173056E+02  0.10055484666E+03  0.00000000000E+00 0.  1.
         14    1    5    5    0    0 -0.76824095655E+02 -0.17576192549E+02  0.11080215166E+04  0.11108206631E+04  0.00000000000E+00 0. -1.
         11    1    3    3    0    0 -0.29034762552E+02 -0.20594993373E+00  0.23213670758E+01  0.29128140980E+02  0.00000000000E+00 0. -1.
        -12    1    3    3    0    0  0.62814606927E+02  0.45037550807E+02 -0.88034611490E+01  0.77791752482E+02  0.00000000000E+00 0.  1.
          5    1    4    4  501    0  0.13717327880E+02  0.42790080212E+02  0.37798128447E+03  0.38066583753E+03  0.41800000000E+01 0.  1.
         -5    1    4    4    0  501  0.15723612318E+02 -0.55872264002E+02  0.11403860143E+03  0.12802818785E+03  0.41800000000E+01 0.  1.
</event>
<event>
11    1  0.6930157E-009  0.1874620E+03  0.7561462E-02  0.1063762E+00
         22   -1    0    0    0    0  0.00000000000E+00  0.00000000000E+00  0.34175909451E+03  0.34175909451E+03  0.00000000000E+00 0.  1.
         22   -1    0    0    0    0 -0.00000000000E+00 -0.00000000000E+00 -0.74382382052E+03  0.74382382052E+03  0.00000000000E+00 0.  1.
        -24    2    1    2    0    0 -0.10083143189E+02  0.16937430403E+02 -0.58084920856E+03  0.58670043920E+03  0.80268648636E+02 0.  0.
         25    2    1    2    0    0 -0.40175414412E+02  0.11641097280E+03 -0.79721042875E+02  0.19279232837E+03  0.12509140134E+03 0.  0.
         24    2    1    2    0    0  0.50258557600E+02 -0.13334840320E+03  0.25850552541E+03  0.30609014746E+03  0.80983655475E+02 0.  0.
        -13    1    5    5    0    0  0.70800184319E+02 -0.10955039454E+03  0.18719661963E+03  0.22815900036E+03  0.00000000000E+00 0.  1.
         14    1    5    5    0    0 -0.20541626718E+02 -0.23798008661E+02  0.71308905786E+02  0.77931147103E+02  0.00000000000E+00 0. -1.
         13    1    3    3    0    0  0.21057504773E+02  0.80526503857E+01 -0.49806860704E+02  0.54671629377E+02  0.00000000000E+00 0. -1.
        -14    1    3    3    0    0 -0.31140647962E+02  0.88847800175E+01 -0.53104234785E+03  0.53202880982E+03  0.00000000000E+00 0.  1.
          5    1    4    4  501    0  0.11250851850E+02  0.11797698078E+03 -0.76400215707E+02  0.14106599527E+03  0.41800000000E+01 0. -1.
         -5    1    4    4    0  501 -0.51426266262E+02 -0.15660079841E+01 -0.33208271679E+01  0.51726333098E+02  0.41800000000E+01 0. -1.
</event>
<event>
11    1  0.6930157E-009  0.1608852E+03  0.7561462E-02  0.1086248E+00
         22   -1    0    0    0    0  0.00000000000E+00  0.00000000000E+00  0.11360959264E+04  0.11360959264E+04  0.00000000000E+00 0. -1.
         22   -1    0    0    0    0 -0.00000000000E+00 -0.00000000000E+00 -0.45849118788E+03  0.45849118788E+03  0.00000000000E+00 0. -1.
         24    2    1    2    0    0  0.34655231542E+01  0.12350451721E+02 -0.39895704139E+03  0.40733147423E+03  0.81164435024E+02 0.  0.
         25    2    1    2    0    0  0.77100774776E+02 -0.72967197776E+02  0.80238044358E+02  0.18263157859E+03  0.12508960114E+03 0.  0.
        -24    2    1    2    0    0 -0.80566297930E+02  0.60616746056E+02  0.99632373556E+03  0.10046240615E+04  0.80269549672E+02 0.  0.
        -11    1    3    3    0    0 -0.15997663733E+02 -0.19682166636E+02 -0.47200457300E+02  0.53583543161E+02  0.00000000000E+00 0.  1.
         12    1    3    3    0    0  0.19463186887E+02  0.32032618356E+02 -0.35175658409E+03  0.35374793107E+03  0.00000000000E+00 0. -1.
         13    1    5    5    0    0 -0.35524398564E+02  0.45891171018E+02  0.81975984912E+03  0.82181153113E+03  0.00000000000E+00 0. -1.
        -14    1    5    5    0    0 -0.45041899366E+02  0.14725575037E+02  0.17656388644E+03  0.18281253035E+03  0.00000000000E+00 0.  1.
          5    1    4    4  501    0  0.10150140878E+03 -0.85273595437E+02  0.80180193212E+02  0.15498534720E+03  0.41800000000E+01 0. -1.
         -5    1    4    4    0  501 -0.24400634003E+02  0.12306397661E+02  0.57851146022E-01  0.27646231387E+02  0.41800000000E+01 0. -1.
</event>
<event>
11    1  0.6930157E-009  0.2088200E+03  0.7561462E-02  0.1048456E+00
         22   -1    0    0    0    0  0.00000000000E+00  0.00000000000E+00  0.49836305491E+03  0.49836305491E+03  0.00000000000E+00 0. -1.
         22   -1    0    0    0    0 -0.00000000000E+00 -0.00000000000E+00 -0.19755716276E+04  0.19755716276E+04  0.00000000000E+00 0. -1.
         24    2    1    2    0    0 -0.10419640972E+03  0.13191200589E+03 -0.19093322796E+04  0.19183715220E+04  0.79635879175E+02 0.  0.
         25    2    1    2    0    0  0.51411397653E+02 -0.13148886554E+03  0.10760096348E+03  0.21715756006E+03  0.12508790900E+03 0.  0.
        -24    2    1    2    0    0  0.52785012069E+02 -0.42314034774E+00  0.32452274341E+03  0.33840560050E+03  0.80105573542E+02 0.  0.
        -13    1    3    3    0    0 -0.33205751616E+02  0.10480708489E+03 -0.11013975514E+04  0.11068711367E+04  0.00000000000E+00 0.  1.
         14    1    3    3    0    0 -0.70990658106E+02  0.27104920994E+02 -0.80793472817E+03  0.81150038525E+03  0.00000000000E+00 0. -1.
         11    1    5    5    0    0  0.42014602996E+02  0.22488506596E+02  0.29782216887E+03  0.30161068295E+03  0.00000000000E+00 0. -1.
        -12    1    5    5    0    0  0.10770409073E+02 -0.22911646944E+02  0.26700574535E+02  0.36794917554E+02  0.00000000000E+00 0.  1.
          5    1    4    4  501    0  0.15941272008E+02 -0.94650599687E+02 -0.20490610769E+01  0.96096468331E+02  0.41800000000E+01 0.  1.
         -5    1    4    4    0  501  0.35470125645E+02 -0.36838265852E+02  0.10965002456E+03  0.12106109173E+03  0.41800000000E+01 0.  1.
</event>
<event>
11    1  0.6930157E-009  0.1558835E+03  0.7561462E-02  0.1091014E+00
         22   -1    0    0    0    0  0.00000000000E+00  0.00000000000E+00  0.30640110709E+03  0.30640110709E+03  0.00000000000E+00 0. -1.
         22   -1    0    0    0    0 -0.00000000000E+00 -0.00000000000E+00 -0.39273072357E+03  0.39273072357E+03  0.00000000000E+00 0.  1.
        -24    2    1    2    0    0 -0.19590828569E+02  0.79184546112E+02 -0.22904176599E+03  0.25538416146E+03  0.78146954192E+02 0.  0.
         25    2    1    2    0    0  0.48658477470E+02 -0.14983036778E+03 -0.62928044810E+02  0.21077164822E+03  0.12509181559E+03 0.  0.
         24    2    1    2    0    0 -0.29067648901E+02  0.70645821671E+02  0.20564019432E+03  0.23297602098E+03  0.78448559560E+02 0.  0.
        -11    1    5    5    0    0 -0.34188908757E+02  0.36568529625E+00  0.10258297344E+03  0.10813085428E+03  0.00000000000E+00 0.  1.
         12    1    5    5    0    0  0.51212598554E+01  0.70280136375E+02  0.10305722088E+03  0.12484516670E+03  0.00000000000E+00 0. -1.
         13    1    3    3    0    0 -0.17895782100E+02  0.50250666465E+02 -0.47137052754E+02  0.71184901767E+02  0.00000000000E+00 0. -1.
        -14    1    3    3    0    0 -0.16950464688E+01  0.28933879647E+02 -0.18190471324E+03  0.18419925969E+03  0.00000000000E+00 0.  1.
          5    1    4    4  501    0 -0.38851010617E+02 -0.21529775709E+02 -0.47065226880E+01  0.44861520526E+02  0.41800000000E+01 0.  1.
         -5    1    4    4    0  501  0.87509488087E+02 -0.12830059207E+03 -0.58221522122E+02  0.16591012769E+03  0.41800000000E+01 0.  1.
</event>
<event>
11    1  0.6930157E-009  0.1392526E+03  0.7561462E-02  0.1108396E+00
         22   -1    0    0    0    0  0.00000000000E+00  0.00000000000E+00  0.32616111157E+03  0.32616111157E+03  0.00000000000E+00 0.  1.
         22   -1    0    0    0    0 -0.00000000000E+00 -0.00000000000E+00 -0.26246923604E+03  0.26246923604E+03  0.00000000000E+00 0. -1.
         24    2    1    2    0    0 -0.45064428036E+01  0.50423925171E+02 -0.88513422544E+02  0.13377116845E+03  0.86586484405E+02 0.  0.
         25    2    1    2    0    0  0.64406078828E+01 -0.78686637563E+02 -0.10664198137E+03  0.18234218278E+03  0.12507234334E+03 0.  0.
        -24    2    1    2    0    0 -0.19341650792E+01  0.28262712392E+02  0.25884727944E+03  0.27251699639E+03  0.80380826961E+02 0.  0.
        -11    1    3    3    0    0 -0.17349252644E+02  0.21850754293E+02  0.10583482827E+02  0.29840612246E+02  0.00000000000E+00 0.  1.
         12    1    3    3    0    0  0.12842809841E+02  0.28573170878E+02 -0.99096905372E+02  0.10393055620E+03  0.00000000000E+00 0. -1.
         11    1    5    5    0    0 -0.25171944479E+02  0.32236593806E+02  0.62077885571E+02  0.74340356779E+02  0.00000000000E+00 0. -1.
        -12    1    5    5    0    0  0.23237779400E+02 -0.39738814138E+01  0.19676939387E+03  0.19817663961E+03  0.00000000000E+00 0.  1.
          5    1    4    4  501    0  0.53456351714E+02  0.11866382428E+01 -0.51823151608E+02  0.74579495114E+02  0.41800000000E+01 0.  1.
         -5    1    4    4    0  501 -0.47015743831E+02 -0.79873275806E+02 -0.54818829758E+02  0.10776268766E+03  0.41800000000E+01 0.  1.
</event>
<event>
11    1  0.6930157E-009  0.1551125E+03  0.7561462E-02  0.1091766E+00
         22   -1    0    0    0    0  0.00000000000E+00  0.00000000000E+00  0.26028786991E+04  0.26028786991E+04  0.00000000000E+00 0. -1.
         22   -1    0    0    0    0 -0.00000000000E+00 -0.00000000000E+00 -0.14353487771E+03  0.14353487771E+03  0.00000000000E+00 0. -1.
        -24    2    1    2    0    0  0.10278385939E+03  0.34154765915E+02 -0.10068502499E+03  0.16736754874E+03  0.78379540229E+02 0.  0.
         25    2    1    2    0    0  0.14080581380E+02 -0.51293431523E+02  0.67135562373E+03  0.68497822496E+03  0.12509003262E+03 0.  0.
         24    2    1    2    0    0 -0.11686444077E+03  0.17138665608E+02  0.18886732226E+04  0.18940678031E+04  0.80344691573E+02 0.  0.
        -11    1    5    5    0    0 -0.10025439445E+03  0.23655937949E+02  0.10152209455E+04  0.10204332977E+04  0.00000000000E+00 0.  1.
         12    1    5    5    0    0 -0.16610046324E+02 -0.65172723412E+01  0.87345227718E+03  0.87363450538E+03  0.00000000000E+00 0. -1.
         13    1    3    3    0    0  0.34880811292E+02  0.27480360552E+02 -0.87145508426E+02  0.97806854827E+02  0.00000000000E+00 0. -1.
        -14    1    3    3    0    0  0.67903048101E+02  0.66744053624E+01 -0.13539516564E+02  0.69560693909E+02  0.00000000000E+00 0.  1.
          5    1    4    4  501    0  0.60462711681E+02  0.71666031973E+01  0.28541853964E+03  0.29187037341E+03  0.41800000000E+01 0.  1.
         -5    1    4    4    0  501 -0.46382130301E+02 -0.58460034720E+02  0.38593708409E+03  0.39310785155E+03  0.41800000000E+01 0.  1.
</event>
<event>
11    1  0.6930157E-009  0.1432637E+03  0.7561462E-02  0.1103968E+00
         22   -1    0    0    0    0  0.00000000000E+00  0.00000000000E+00  0.81307729579E+03  0.81307729579E+03  0.00000000000E+00 0. -1.
         22   -1    0    0    0    0 -0.00000000000E+00 -0.00000000000E+00 -0.34579092135E+03  0.34579092135E+03  0.00000000000E+00 0.  1.
        -24    2    1    2    0    0  0.48456944236E+02  0.66691009490E+01 -0.23037070244E+03  0.24895657823E+03  0.80722766008E+02 0.  0.
         25    2    1    2    0    0 -0.11654991885E+03 -0.37103335304E+01 -0.31048386147E+02  0.17380784967E+03  0.12509003224E+03 0.  0.
         24    2    1    2    0    0  0.68092974617E+02 -0.29587674186E+01  0.72870546302E+03  0.73610378924E+03  0.78687541566E+02 0.  0.
        -11    1    5    5    0    0  0.36821739476E+02 -0.17465460628E+02  0.12629059008E+03  0.13270341350E+03  0.00000000000E+00 0.  1.
         12    1    5    5    0    0  0.31271235140E+02  0.14506693209E+02  0.60241487294E+03  0.60340037573E+03  0.00000000000E+00 0. -1.
         11    1    3    3    0    0  0.15297504760E+01 -0.32929775007E+02 -0.78139130147E+02  0.84808218226E+02  0.00000000000E+00 0. -1.
        -12    1    3    3    0    0  0.46927193760E+02  0.39598875956E+02 -0.15223157229E+03  0.16414836001E+03  0.00000000000E+00 0.  1.
          5    1    4    4  501    0 -0.69058410447E+02  0.58123463095E+02 -0.31603119117E+02  0.95726853879E+02  0.41800000000E+01 0.  1.
         -5    1    4    4    0  501 -0.47491508406E+02 -0.61833796625E+02  0.55473296969E+00  0.78080995795E+02  0.41800000000E+01 0.  1.
</event>
<event>
11    1  0.6930157E-009  0.1637973E+03  0.7561462E-02  0.1083559E+00
         22   -1    0    0    0    0  0.00000000000E+00  0.00000000000E+00  0.83685147350E+03  0.83685147350E+03  0.00000000000E+00 0.  1.
         22   -1    0    0    0    0 -0.00000000000E+00 -0.00000000000E+00 -0.58444443606E+03  0.58444443606E+03  0.00000000000E+00 0.  1.
         24    2    1    2    0    0  0.10546990149E+02 -0.10106580429E+03 -0.44256476688E+03  0.46119006946E+03  0.80667040893E+02 0.  0.
         25    2    1    2    0    0  0.16801734475E+02  0.13747670598E+03 -0.62502328205E+02  0.19681434781E+03  0.12508878250E+03 0.  0.
        -24    2    1    2    0    0 -0.27348724624E+02 -0.36410901687E+02  0.75747413251E+03  0.76329149229E+03  0.82299053876E+02 0.  0.
        -11    1    3    3    0    0  0.26686338944E+02 -0.10829902393E+03 -0.39490731765E+03  0.41035670922E+03  0.00000000000E+00 0.  1.
         12    1    3    3    0    0 -0.16139348795E+02  0.72332196390E+01 -0.47657449231E+02  0.50833360238E+02  0.00000000000E+00 0. -1.
         11    1    5    5    0    0 -0.38054352957E+02  0.70442775260E+01  0.18144582976E+03  0.18552720761E+03  0.00000000000E+00 0. -1.
        -12    1    5    5    0    0  0.10705628333E+02 -0.43455179213E+02  0.57602830275E+03  0.57776428468E+03  0.00000000000E+00 0.  1.
          5    1    4    4  501    0 -0.44459094890E+02  0.90423118157E+02 -0.63997839828E+02  0.11944097839E+03  0.41800000000E+01 0.  1.
         -5    1    4    4    0  501  0.61260829366E+02  0.47053587822E+02  0.14955116231E+01  0.77373369427E+02  0.41800000000E+01 0.  1.
</event>
<event>
11    1  0.6930157E-009  0.1416908E+03  0.7561462E-02  0.1105685E+00
         22   -1    0    0    0    0  0.00000000000E+00  0.00000000000E+00  0.45890414278E+03  0.45890414278E+03  0.00000000000E+00 0.  1.
         22   -1    0    0    0    0 -0.00000000000E+00 -0.00000000000E+00 -0.22677980725E+03  0.22677980725E+03  0.00000000000E+00 0. -1.
        -24    2    1    2    0    0 -0.62079435273E+02  0.20014311377E+02 -0.16532234021E+03  0.19372539156E+03  0.77094891020E+02 0.  0.
         25    2    1    2    0    0  0.69103353149E+02 -0.42218134125E+02  0.91069818234E+02  0.17463707772E+03  0.12508698116E+03 0.  0.
         24    2    1    2    0    0 -0.70239178754E+01  0.22203822748E+02  0.30637685751E+03  0.31732148075E+03  0.79270411658E+02 0.  0.
        -11    1    5    5    0    0 -0.11239055006E+02  0.43860992840E+02  0.27648974011E+03  0.28017258866E+03  0.00000000000E+00 0.  1.
         12    1    5    5    0    0  0.42151371305E+01 -0.21657170092E+02  0.29887117397E+02  0.37148892093E+02  0.00000000000E+00 0. -1.
         13    1    3    3    0    0  0.99173623092E+01  0.25257939638E+02 -0.62057281382E+02  0.67730523122E+02  0.00000000000E+00 0. -1.
        -14    1    3    3    0    0 -0.71996797583E+02 -0.52436282605E+01 -0.10326505883E+03  0.12599486844E+03  0.00000000000E+00 0.  1.
          5    1    4    4  501    0  0.99728937156E+02 -0.15719150189E+02  0.87677290068E+02  0.13378240610E+03  0.41800000000E+01 0. -1.
         -5    1    4    4    0  501 -0.30625584008E+02 -0.26498983936E+02  0.33925281657E+01  0.40854671615E+02  0.41800000000E+01 0. -1.
</event>
<event>
11    1  0.6930157E-009  0.1553343E+03  0.7561462E-02  0.1091549E+00
         22   -1    0    0    0    0  0.00000000000E+00  0.00000000000E+00  0.71638089605E+03  0.71638089605E+03  0.00000000000E+00 0. -1.
         22   -1    0    0    0    0 -0.00000000000E+00 -0.00000000000E+00 -0.68399673714E+03  0.68399673714E+03  0.00000000000E+00 0.  1.
         24    2    1    2    0    0  0.59024276540E+02  0.28382899284E+02 -0.61144162722E+03  0.62011412275E+03  0.79945028254E+02 0.  0.
         25    2    1    2    0    0 -0.11507752561E+03  0.42745720610E+02  0.62073501238E+02  0.18594835634E+03  0.12511450011E+03 0.  0.
        -24    2    1    2    0    0  0.56053249072E+02 -0.71128619895E+02  0.58175228490E+03  0.59431515410E+03  0.81077334144E+02 0.  0.
        -11    1    3    3    0    0  0.61359056826E+02 -0.10768860015E+02 -0.42938404794E+03  0.43387966399E+03  0.00000000000E+00 0.  1.
         12    1    3    3    0    0 -0.23347802862E+01  0.39151759299E+02 -0.18205757928E+03  0.18623445876E+03  0.00000000000E+00 0. -1.
         11    1    5    5    0    0  0.39542243379E+02 -0.73759995717E+02  0.56302212269E+03  0.56920825417E+03  0.00000000000E+00 0. -1.
        -12    1    5    5    0    0  0.16511005693E+02  0.26313758220E+01  0.18730162205E+02  0.25106899927E+02  0.00000000000E+00 0.  1.
          5    1    4    4  501    0 -0.62464328376E+02  0.78575983584E+02  0.68855052844E+02  0.12179683172E+03  0.41800000000E+01 0.  1.
         -5    1    4    4    0  501 -0.52613197236E+02 -0.35830262974E+02 -0.67815516053E+01  0.64151524614E+02  0.41800000000E+01 0.  1.
</event>
<event>
11    1  0.6930157E-009  0.1775140E+03  0.7561462E-02  0.1071672E+00
         22   -1    0    0    0    0  0.00000000000E+00  0.00000000000E+00  0.99492940107E+02  0.99492940107E+02  0.00000000000E+00 0. -1.
         22   -1    0    0    0    0 -0.00000000000E+00 -0.00000000000E+00 -0.23041769440E+04  0.23041769440E+04  0.00000000000E+00 0. -1.
         24    2    1    2    0    0  0.12374729667E+03  0.27152674426E+02 -0.21013051568E+04  0.21066863636E+04  0.81199824541E+02 0.  0.
         25    2    1    2    0    0 -0.11366338106E+03 -0.13835386520E+02 -0.12235243970E+03  0.20911363536E+03  0.12509041082E+03 0.  0.
        -24    2    1    2    0    0 -0.10083915605E+02 -0.13317287905E+02  0.18973592595E+02  0.87869885138E+02  0.84155118603E+02 0.  0.
        -11    1    3    3    0    0 -0.11108255676E+02  0.74695822154E+01 -0.26012596743E+03  0.26047016515E+03  0.00000000000E+00 0.  1.
         12    1    3    3    0    0  0.13485555234E+03  0.19683092210E+02 -0.18411791894E+04  0.18462161985E+04  0.00000000000E+00 0. -1.
         11    1    5    5    0    0  0.13749777299E+02  0.16625460405E+02  0.39079676348E+02  0.44639482668E+02  0.00000000000E+00 0. -1.
        -12    1    5    5    0    0 -0.23833692904E+02 -0.29942748310E+02 -0.20106083753E+02  0.43230402469E+02  0.00000000000E+00 0.  1.
          5    1    4    4  501    0 -0.90719848938E+02  0.46235366623E+02 -0.54609574525E+02  0.11561781069E+03  0.41800000000E+01 0. -1.
         -5    1    4    4    0  501 -0.22943532125E+02 -0.60070753143E+02 -0.67742865174E+02  0.93495824674E+02  0.41800000000E+01 0. -1.
</event>
<event>
11    1  0.6930157E-009  0.1255384E+03  0.7561462E-02  0.1124876E+00
         22   -1    0    0    0    0  0.00000000000E+00  0.00000000000E+00  0.18831829585E+03  0.18831829585E+03  0.00000000000E+00 0. -1.
         22   -1    0    0    0    0 -0.00000000000E+00 -0.00000000000E+00 -0.17987745744E+04  0.17987745744E+04  0.00000000000E+00 0.  1.
         24    2    1    2    0    0 -0.14827514098E+02 -0.91237012120E+01 -0.16629055021E+04  0.16648053706E+04  0.77582961563E+02 0.  0.
         25    2    1    2    0    0  0.16168948009E+02 -0.21608269173E+01 -0.91584326431E+02  0.15587246792E+03  0.12506971398E+03 0.  0.
        -24    2    1    2    0    0 -0.13414339107E+01  0.11284528129E+02  0.14403354992E+03  0.16641503181E+03  0.82578201044E+02 0.  0.
        -13    1    3    3    0    0  0.78062029925E+01 -0.22035877244E+02 -0.14656194379E+04  0.14658058717E+04  0.00000000000E+00 0.  1.
         14    1    3    3    0    0 -0.22633717091E+02  0.12912176032E+02 -0.19728606416E+03  0.19899949888E+03  0.00000000000E+00 0. -1.
         13    1    5    5    0    0  0.78230429442E+01  0.79385928413E+01  0.15285575111E+03  0.15326154738E+03  0.00000000000E+00 0. -1.
        -14    1    5    5    0    0 -0.91644768549E+01  0.33459352880E+01 -0.88222011838E+01  0.13153484432E+02  0.00000000000E+00 0.  1.
          5    1    4    4  501    0 -0.39585224388E+02 -0.33472253599E+02 -0.72088889847E+02  0.88891294233E+02  0.41800000000E+01 0. -1.
         -5    1    4    4    0  501  0.55754172397E+02  0.31311426682E+02 -0.19495436583E+02  0.66981173684E+02  0.41800000000E+01 0. -1.
</event>
<event>
11    1  0.6930157E-009  0.1294947E+03  0.7561462E-02  0.1119891E+00
         22   -1    0    0    0    0  0.00000000000E+00  0.00000000000E+00  0.26206532374E+03  0.26206532374E+03  0.00000000000E+00 0. -1.
         22   -1    0    0    0    0 -0.00000000000E+00 -0.00000000000E+00 -0.31000479133E+03  0.31000479133E+03  0.00000000000E+00 0. -1.
        -24    2    1    2    0    0  0.70346095977E+01 -0.27516181097E+02 -0.13054638395E+03  0.15512011873E+03  0.78824278728E+02 0.  0.
         25    2    1    2    0    0  0.11952185090E+02  0.47108457282E+02 -0.13175421435E+03  0.18806476224E+03  0.12508844999E+03 0.  0.
         24    2    1    2    0    0 -0.18986794688E+02 -0.19592276185E+02  0.21436113071E+03  0.22888523410E+03  0.75454624577E+02 0.  0.
        -11    1    5    5    0    0 -0.24154303787E+02  0.22778475837E+02  0.58288068841E+02  0.67080461552E+02  0.00000000000E+00 0.  1.
         12    1    5    5    0    0  0.51675090990E+01 -0.42370752022E+02  0.15607306187E+03  0.16180477255E+03  0.00000000000E+00 0. -1.
         11    1    3    3    0    0  0.47765644541E+01 -0.44603293118E+01 -0.13176020303E+03  0.13192217860E+03  0.00000000000E+00 0. -1.
        -12    1    3    3    0    0  0.22580451437E+01 -0.23055851785E+02  0.12138190728E+01  0.23197940127E+02  0.00000000000E+00 0.  1.
          5    1    4    4  501    0  0.62053927197E+02  0.26391631743E+02 -0.32684501015E+02  0.75053028675E+02  0.41800000000E+01 0.  1.
         -5    1    4    4    0  501 -0.50101742107E+02  0.20716825539E+02 -0.99069713336E+02  0.11301173356E+03  0.41800000000E+01 0.  1.
</event>
<event>
11    1  0.6930157E-009  0.1844640E+03  0.7561462E-02  0.1066088E+00
         22   -1    0    0    0    0  0.00000000000E+00  0.00000000000E+00  0.15743356468E+03  0.15743356468E+03  0.00000000000E+00 0.  1.
         22   -1    0    0    0    0 -0.00000000000E+00 -0.00000000000E+00 -0.12777070117E+04  0.12777070117E+04  0.00000000000E+00 0.  1.
         24    2    1    2    0    0  0.89534820579E+02 -0.94344341994E+02 -0.55710557869E+03  0.57752272552E+03  0.79047667396E+02 0.  0.
         25    2    1    2    0    0 -0.14674207442E+03  0.46313867499E+02 -0.67405536402E+03  0.70262131122E+03  0.12509141650E+03 0.  0.
        -24    2    1    2    0    0  0.57207253843E+02  0.48030474495E+02  0.11088749565E+03  0.15499653969E+03  0.78411059505E+02 0.  0.
        -13    1    3    3    0    0  0.72491022064E+02 -0.10293263471E+03 -0.40214725356E+03  0.42139350863E+03  0.00000000000E+00 0.  1.
         14    1    3    3    0    0  0.17043798515E+02  0.85882927166E+01 -0.15495832514E+03  0.15612921690E+03  0.00000000000E+00 0. -1.
         11    1    5    5    0    0 -0.36004751028E+01  0.31342917084E+02  0.52674088540E+01  0.31985738514E+02  0.00000000000E+00 0. -1.
        -12    1    5    5    0    0  0.60807728946E+02  0.16687557411E+02  0.10562008679E+03  0.12301080118E+03  0.00000000000E+00 0.  1.
          5    1    4    4  501    0  0.25263726274E+01  0.12044773619E+01 -0.26167587563E+03  0.26172422435E+03  0.41800000000E+01 0. -1.
         -5    1    4    4    0  501 -0.14926844705E+03  0.45109390138E+02 -0.41237948839E+03  0.44089708686E+03  0.41800000000E+01 0. -1.
</event>
<event>
11    1  0.6930157E-009  0.1462582E+03  0.7561462E-02  0.1100765E+00
         22   -1    0    0    0    0  0.00000000000E+00  0.00000000000E+00  0.60213291412E+02  0.60213291412E+02  0.00000000000E+00 0. -1.
         22   -1    0    0    0    0 -0.00000000000E+00 -0.00000000000E+00 -0.42301639542E+04  0.42301639542E+04  0.00000000000E+00 0. -1.
         24    2    1    2    0    0 -0.16590795460E+02  0.45717629753E+02 -0.24557757483E+04  0.24575684498E+04  0.80267076144E+02 0.  0.
         25    2    1    2    0    0 -0.57953700975E+02 -0.60533170850E+02 -0.17161149878E+04  0.17227073261E+04  0.12508790389E+03 0.  0.
        -24    2    1    2    0    0  0.74544496435E+02  0.14815541097E+02  0.19400733256E+01  0.11010146970E+03  0.79637852423E+02 0.  0.
        -13    1    3    3    0    0 -0.43025386871E+00 -0.23109510062E+02 -0.63624489128E+03  0.63666458693E+03  0.00000000000E+00 0.  1.
         14    1    3    3    0    0 -0.16160541591E+02  0.68827139815E+02 -0.18195308570E+04  0.18209038629E+04  0.00000000000E+00 0. -1.
         11    1    5    5    0    0  0.62076297287E+02 -0.24153074610E+02 -0.10286159887E+02  0.67399130434E+02  0.00000000000E+00 0. -1.
        -12    1    5    5    0    0  0.12468199149E+02  0.38968615707E+02  0.12226233213E+02  0.42702339265E+02  0.00000000000E+00 0.  1.
          5    1    4    4  501    0 -0.92757188908E+02 -0.47202486309E+02 -0.14771029024E+04  0.14807708896E+04  0.41800000000E+01 0.  1.
         -5    1    4    4    0  501  0.34803487933E+02 -0.13330684542E+02 -0.23901208542E+03  0.24193643649E+03  0.41800000000E+01 0.  1.
</event>
<event>
11    1  0.6930157E-009  0.1477840E+03  0.7561462E-02  0.1099165E+00
         22   -1    0    0    0    0  0.00000000000E+00  0.00000000000E+00  0.44331130389E+03  0.44331130389E+03  0.00000000000E+00 0.  1.
         22   -1    0    0    0    0 -0.00000000000E+00 -0.00000000000E+00 -0.33779087312E+03  0.33779087312E+03  0.00000000000E+00 0. -1.
         24    2    1    2    0    0 -0.57399105876E+02 -0.51982954899E+02 -0.27257446434E+03  0.29141767075E+03  0.68048036411E+02 0.  0.
         25    2    1    2    0    0  0.42816588287E+02  0.96164196769E+02  0.89242265095E+02  0.18625915544E+03  0.12508988021E+03 0.  0.
        -24    2    1    2    0    0  0.14582517590E+02 -0.44181241871E+02  0.28885263001E+03  0.30342535082E+03  0.80414362562E+02 0.  0.
        -11    1    3    3    0    0 -0.28207142417E+02  0.13228137341E+02 -0.96301283977E+02  0.10121543260E+03  0.00000000000E+00 0.  1.
         12    1    3    3    0    0 -0.29191963459E+02 -0.65211092239E+02 -0.17627318036E+03  0.19020223815E+03  0.00000000000E+00 0. -1.
         11    1    5    5    0    0  0.10700689427E+02  0.22227395344E+01  0.87236721013E-01  0.10929452662E+02  0.00000000000E+00 0. -1.
        -12    1    5    5    0    0  0.38818281629E+01 -0.46403981405E+02  0.28876539329E+03  0.29249589816E+03  0.00000000000E+00 0.  1.
          5    1    4    4  501    0  0.44806886349E+02  0.99142869203E+02  0.11591128518E+03  0.15902787180E+03  0.41800000000E+01 0.  1.
         -5    1    4    4    0  501 -0.19902980625E+01 -0.29786724333E+01 -0.26669020088E+02  0.27231283633E+02  0.41800000000E+01 0.  1.
</event>
<event>
11    1  0.6930157E-009  0.1401012E+03  0.7561462E-02  0.1107445E+00
         22   -1    0    0    0    0  0.00000000000E+00  0.00000000000E+00  0.19048735794E+03  0.19048735794E+03  0.00000000000E+00 0.  1.
         22   -1    0    0    0    0 -0.00000000000E+00 -0.00000000000E+00 -0.23969886105E+04  0.23969886105E+04  0.00000000000E+00 0. -1.
         24    2    1    2    0    0  0.66515965580E+02 -0.34299954905E+01 -0.21097685390E+04  0.21124289360E+04  0.82441391921E+02 0.  0.
         25    2    1    2    0    0 -0.18198884551E+02  0.37195678552E+02 -0.25550414956E+03  0.28747992052E+03  0.12509043271E+03 0.  0.
        -24    2    1    2    0    0 -0.48317081030E+02 -0.33765683062E+02  0.15877143595E+03  0.18756711194E+03  0.80612597860E+02 0.  0.
        -13    1    3    3    0    0  0.16159804899E+01  0.28961779773E+02 -0.91573151499E+03  0.91619081180E+03  0.00000000000E+00 0.  1.
         14    1    3    3    0    0  0.64899985090E+02 -0.32391775263E+02 -0.11940370240E+04  0.11962381242E+04  0.00000000000E+00 0. -1.
         13    1    5    5    0    0 -0.22201211724E+02 -0.10463290873E+02 -0.44663375335E+00  0.24547377449E+02  0.00000000000E+00 0. -1.
        -14    1    5    5    0    0 -0.26115869306E+02 -0.23302392189E+02  0.15921806971E+03  0.16301973449E+03  0.00000000000E+00 0.  1.
          5    1    4    4  501    0  0.82890902236E+01  0.12312103683E+02 -0.25001248022E+03  0.25048754376E+03  0.41800000000E+01 0.  1.
         -5    1    4    4    0  501 -0.26487974774E+02  0.24883574869E+02 -0.54916693409E+01  0.36992376756E+02  0.41800000000E+01 0.  1.
</event>
<event>
11    1  0.6930157E-009  0.1331941E+03  0.7561462E-02  0.1115406E+00
         22   -1    0    0    0    0  0.00000000000E+00  0.00000000000E+00  0.31313978323E+03  0.31313978323E+03  0.00000000000E+00 0. -1.
         22   -1    0    0    0    0 -0.00000000000E+00 -0.00000000000E+00 -0.28751495919E+03  0.28751495919E+03  0.00000000000E+00 0.  1.
         24    2    1    2    0    0  0.41160481770E+01  0.45219782746E+02 -0.18147311167E+03  0.20232206605E+03  0.77071120052E+02 0.  0.
         25    2    1    2    0    0 -0.13290416877E+02 -0.46428085012E+02 -0.38648263453E+02  0.13953715206E+03  0.12507888022E+03 0.  0.
        -24    2    1    2    0    0  0.91743687000E+01  0.12083022656E+01  0.24574619917E+03  0.25879552431E+03  0.80612033611E+02 0.  0.
        -11    1    3    3    0    0 -0.19007618854E+02  0.54016383233E+02 -0.15862848799E+03  0.16864772881E+03  0.00000000000E+00 0.  1.
         12    1    3    3    0    0  0.23123667031E+02 -0.87966004868E+01 -0.22844623685E+02  0.33674337238E+02  0.00000000000E+00 0. -1.
         13    1    5    5    0    0  0.15738993766E+02  0.78727339657E+01  0.24843863839E+03  0.24906114292E+03  0.00000000000E+00 0. -1.
        -14    1    5    5    0    0 -0.65646250663E+01 -0.66644317001E+01 -0.26924392252E+01  0.97343813942E+01  0.00000000000E+00 0.  1.
          5    1    4    4  501    0 -0.10435259482E+02  0.42991743145E+02 -0.15064196935E+02  0.46921072541E+02  0.41800000000E+01 0. -1.
         -5    1    4    4    0  501 -0.28551573946E+01 -0.89419828157E+02 -0.23584066519E+02  0.92616079516E+02  0.41800000000E+01 0. -1.
</event>
<event>
11    1  0.6930157E-009  0.1836410E+03  0.7561462E-02  0.1066735E+00
         22   -1    0    0    0    0  0.00000000000E+00  0.00000000000E+00  0.12417859056E+03  0.12417859056E+03  0.00000000000E+00 0. -1.
         22   -1    0    0    0    0 -0.00000000000E+00 -0.00000000000E+00 -0.68361582904E+03  0.68361582904E+03  0.00000000000E+00 0. -1.
         24    2    1    2    0    0 -0.16966743467E+03  0.11232881391E+02 -0.39400767453E+03  0.43651255753E+03  0.79924647507E+02 0.  0.
         25    2    1    2    0    0  0.80095797244E+02 -0.49943316417E+02 -0.18518450198E+03  0.24259248349E+03  0.12509253249E+03 0.  0.
        -24    2    1    2    0    0  0.89571637422E+02  0.38710435026E+02  0.19754938030E+02  0.12868937858E+03  0.81542152120E+02 0.  0.
        -11    1    3    3    0    0 -0.33621796110E+02  0.36022417503E+02 -0.11513910304E+03  0.12523998077E+03  0.00000000000E+00 0.  1.
         12    1    3    3    0    0 -0.13604563856E+03 -0.24789536112E+02 -0.27886857150E+03  0.31127257676E+03  0.00000000000E+00 0. -1.
         11    1    5    5    0    0  0.95952496675E+02  0.87840435288E+01  0.18149673682E+02  0.98048211068E+02  0.00000000000E+00 0. -1.
        -12    1    5    5    0    0 -0.63808592529E+01  0.29926391498E+02  0.16052643482E+01  0.30641167512E+02  0.00000000000E+00 0.  1.
          5    1    4    4  501    0  0.44780856759E+02 -0.80309641066E+02 -0.17018680222E+03  0.19348380715E+03  0.41800000000E+01 0. -1.
         -5    1    4    4    0  501  0.35314940485E+02  0.30366324649E+02 -0.14997699760E+02  0.49108676344E+02  0.41800000000E+01 0. -1.
</event>
<event>
11    1  0.6930157E-009  0.4208717E+03  0.7561462E-02  0.9590106E-01
         22   -1    0    0    0    0  0.00000000000E+00  0.00000000000E+00  0.10516298228E+03  0.10516298228E+03  0.00000000000E+00 0.  1.
         22   -1    0    0    0    0 -0.00000000000E+00 -0.00000000000E+00 -0.99791914067E+03  0.99791914067E+03  0.00000000000E+00 0. -1.
        -24    2    1    2    0    0  0.16947306235E+03  0.43396295547E+02 -0.46279297690E+03  0.50141666658E+03  0.81467642198E+02 0.  0.
         25    2    1    2    0    0 -0.11702100279E+01  0.20782808050E+02  0.73281604513E+00  0.12681321079E+03  0.12509100251E+03 0.  0.
         24    2    1    2    0    0 -0.16830285232E+03 -0.64179103596E+02 -0.43069599753E+03  0.47485224558E+03  0.86837810923E+02 0.  0.
        -11    1    5    5    0    0 -0.10352882493E+02 -0.25166942605E+02 -0.22102458390E+02  0.35058177974E+02  0.00000000000E+00 0.  1.
         12    1    5    5    0    0 -0.15794996983E+03 -0.39012160992E+02 -0.40859353914E+03  0.43979406761E+03  0.00000000000E+00 0. -1.
         13    1    3    3    0    0  0.14320950072E+03  0.35625094732E+02 -0.44481058355E+03  0.46865185768E+03  0.00000000000E+00 0. -1.
        -14    1    3    3    0    0  0.26263561625E+02  0.77712008150E+01 -0.17982393352E+02  0.32764808897E+02  0.00000000000E+00 0.  1.
          5    1    4    4  501    0 -0.86163726040E+01  0.37093375223E+02 -0.55615733450E+02  0.67533270093E+02  0.41800000000E+01 0.  1.
         -5    1    4    4    0  501  0.74461625761E+01 -0.16310567173E+02  0.56348549495E+02  0.59279940695E+02  0.41800000000E+01 0.  1.
</event>
<event>
11    1  0.6930157E-009  0.2879466E+03  0.7561462E-02  0.1005426E+00
         22   -1    0    0    0    0  0.00000000000E+00  0.00000000000E+00  0.13521029655E+04  0.13521029655E+04  0.00000000000E+00 0.  1.
         22   -1    0    0    0    0 -0.00000000000E+00 -0.00000000000E+00 -0.15709033085E+04  0.15709033085E+04  0.00000000000E+00 0.  1.
         24    2    1    2    0    0  0.17748959680E+03  0.18535094314E+03 -0.14350871126E+04  0.14602728355E+04  0.84048820099E+02 0.  0.
         25    2    1    2    0    0 -0.17811723465E+03 -0.25977014464E+03  0.11793962958E+03  0.35883482599E+03  0.12508556589E+03 0.  0.
        -24    2    1    2    0    0  0.62763785620E+00  0.74419201498E+02  0.10983471400E+04  0.11038986125E+04  0.81774661261E+02 0.  0.
        -11    1    3    3    0    0  0.12719642595E+03  0.93092805078E+02 -0.68752520619E+03  0.70536239642E+03  0.00000000000E+00 0.  1.
         12    1    3    3    0    0  0.50293170842E+02  0.92258138062E+02 -0.74756190640E+03  0.75491043904E+03  0.00000000000E+00 0. -1.
         13    1    5    5    0    0 -0.35018119895E+00  0.49018174484E+01  0.19304861475E+01  0.52798880609E+01  0.00000000000E+00 0. -1.
        -14    1    5    5    0    0  0.97781905515E+00  0.69517384049E+02  0.10964166539E+04  0.10986187244E+04  0.00000000000E+00 0.  1.
          5    1    4    4  501    0 -0.11930370016E+03 -0.21570493651E+03  0.36774082792E+02  0.24926250836E+03  0.41800000000E+01 0. -1.
         -5    1    4    4    0  501 -0.58813534489E+02 -0.44065208129E+02  0.81165546792E+02  0.10957231764E+03  0.41800000000E+01 0. -1.
</event>
<event>
11    1  0.6930157E-009  0.1920942E+03  0.7561462E-02  0.1060259E+00
         22   -1    0    0    0    0  0.00000000000E+00  0.00000000000E+00  0.45727591350E+03  0.45727591350E+03  0.00000000000E+00 0.  1.
         22   -1    0    0    0    0 -0.00000000000E+00 -0.00000000000E+00 -0.14002156372E+03  0.14002156372E+03  0.00000000000E+00 0. -1.
        -24    2    1    2    0    0 -0.17205344925E+02  0.14210198572E+03  0.37566550479E+02  0.17733823036E+03  0.97716958568E+02 0.  0.
         25    2    1    2    0    0  0.60233521060E+02 -0.14118993650E+03  0.11004454601E+03  0.22655346142E+03  0.12511592044E+03 0.  0.
         24    2    1    2    0    0 -0.43028176134E+02 -0.91204922036E+00  0.16964325329E+03  0.19340578545E+03  0.82308618519E+02 0.  0.
        -13    1    5    5    0    0 -0.35852745108E+02 -0.38133935436E+02  0.12021352908E+03  0.13111410655E+03  0.00000000000E+00 0.  1.
         14    1    5    5    0    0 -0.71754310262E+01  0.37221886216E+02  0.49429724209E+02  0.62291678893E+02  0.00000000000E+00 0. -1.
         13    1    3    3    0    0  0.13298527350E+02  0.13891267518E+03  0.43353250233E+02  0.14612695323E+03  0.00000000000E+00 0. -1.
        -14    1    3    3    0    0 -0.30503872276E+02  0.31893105365E+01 -0.57866997534E+01  0.31211277121E+02  0.00000000000E+00 0.  1.
          5    1    4    4  501    0  0.59045033650E+02 -0.78459258648E+02  0.12779238560E+03  0.16121581028E+03  0.41800000000E+01 0. -1.
         -5    1    4    4    0  501  0.11884874096E+01 -0.62730677850E+02 -0.17747839597E+02  0.65337651138E+02  0.41800000000E+01 0. -1.
</event>
<event>
11    1  0.6930157E-009  0.1793275E+03  0.7561462E-02  0.1070188E+00
         22   -1    0    0    0    0  0.00000000000E+00  0.00000000000E+00  0.45174724614E+03  0.45174724614E+03  0.00000000000E+00 0.  1.
         22   -1    0    0    0    0 -0.00000000000E+00 -0.00000000000E+00 -0.60448446493E+03  0.60448446493E+03  0.00000000000E+00 0. -1.
         24    2    1    2    0    0 -0.26056553589E+02  0.20960244771E+02 -0.44644082157E+03  0.45490239647E+03  0.80675320265E+02 0.  0.
         25    2    1    2    0    0  0.14667874088E+03  0.17804608191E+02 -0.71601149969E+02  0.20641040009E+03  0.12508745536E+03 0.  0.
        -24    2    1    2    0    0 -0.12062218729E+03 -0.38764852962E+02  0.36530475275E+03  0.39491891451E+03  0.80380101787E+02 0.  0.
        -11    1    3    3    0    0 -0.20093732455E+02 -0.21073839786E+02 -0.66481969812E+02  0.72579040483E+02  0.00000000000E+00 0.  1.
         12    1    3    3    0    0 -0.59628211341E+01  0.42034084557E+02 -0.37995885176E+03  0.38232335598E+03  0.00000000000E+00 0. -1.
         11    1    5    5    0    0 -0.32251414279E+02  0.18287980420E+02  0.15996252618E+03  0.16420296506E+03  0.00000000000E+00 0. -1.
        -12    1    5    5    0    0 -0.88370773014E+02 -0.57052833382E+02  0.20534222657E+03  0.23071594945E+03  0.00000000000E+00 0.  1.
          5    1    4    4  501    0  0.47508403397E+02 -0.50921677635E+02 -0.44264655965E+02  0.82625043505E+02  0.41800000000E+01 0. -1.
         -5    1    4    4    0  501  0.99170337486E+02  0.68726285826E+02 -0.27336494004E+02  0.12378535659E+03  0.41800000000E+01 0. -1.
</event>
<event>
11    1  0.6930157E-009  0.1742157E+03  0.7561462E-02  0.1074420E+00
         22   -1    0    0    0    0  0.00000000000E+00  0.00000000000E+00  0.28714588943E+03  0.28714588943E+03  0.00000000000E+00 0. -1.
         22   -1    0    0    0    0 -0.00000000000E+00 -0.00000000000E+00 -0.52151695683E+03  0.52151695683E+03  0.00000000000E+00 0.  1.
        -24    2    1    2    0    0 -0.10356384140E+02 -0.35560428236E+02 -0.30533950445E+03  0.31753750528E+03  0.78905358093E+02 0.  0.
         25    2    1    2    0    0  0.10297473256E+03 -0.45177579501E+02 -0.14993006055E+03  0.22532454990E+03  0.12508925013E+03 0.  0.
         24    2    1    2    0    0 -0.92618348422E+02  0.80738007738E+02  0.22089849759E+03  0.26580079107E+03  0.82201763615E+02 0.  0.
        -11    1    5    5    0    0  0.14945178085E+02  0.16745084727E+02  0.28538495344E+02  0.36307050652E+02  0.00000000000E+00 0.  1.
         12    1    5    5    0    0 -0.10756352651E+03  0.63992923011E+02  0.19236000224E+03  0.22949374042E+03  0.00000000000E+00 0. -1.
         13    1    3    3    0    0  0.32291719399E+02 -0.28386890668E+02 -0.12918320054E+03  0.13615017446E+03  0.00000000000E+00 0. -1.
        -14    1    3    3    0    0 -0.42648103539E+02 -0.71735375682E+01 -0.17615630390E+03  0.18138733082E+03  0.00000000000E+00 0.  1.
          5    1    4    4  501    0  0.34629533032E+01 -0.31183474583E+01  0.21641915035E+02  0.22529115004E+02  0.41800000000E+01 0.  1.
         -5    1    4    4    0  501  0.99511779259E+02 -0.42059232043E+02 -0.17157197558E+03  0.20279543490E+03  0.41800000000E+01 0.  1.
</event>
<event>
11    1  0.6930157E-009  0.1864153E+03  0.7561462E-02  0.1064569E+00
         22   -1    0    0    0    0  0.00000000000E+00  0.00000000000E+00  0.53082443207E+03  0.53082443207E+03  0.00000000000E+00 0. -1.
         22   -1    0    0    0    0 -0.00000000000E+00 -0.00000000000E+00 -0.44278335434E+03  0.44278335434E+03  0.00000000000E+00 0. -1.
        -24    2    1    2    0    0  0.19451088855E+02 -0.10878501059E+02 -0.37317534606E+03  0.38382306836E+03  0.86969087946E+02 0.  0.
         25    2    1    2    0    0  0.60769371574E+01 -0.12921298756E+03  0.13524483612E+03  0.22509838617E+03  0.12508074369E+03 0.  0.
         24    2    1    2    0    0 -0.25528026013E+02  0.14009148862E+03  0.32597158766E+03  0.36468633187E+03  0.80382457015E+02 0.  0.
        -13    1    5    5    0    0  0.16852144693E+02  0.10329470264E+02  0.14194343550E+02  0.24334587022E+02  0.00000000000E+00 0.  1.
         14    1    5    5    0    0 -0.42380170706E+02  0.12976201836E+03  0.31177724411E+03  0.34035174485E+03  0.00000000000E+00 0. -1.
         11    1    3    3    0    0 -0.28813272279E+02 -0.12437746046E+02 -0.24228448184E+03  0.24430855966E+03  0.00000000000E+00 0. -1.
        -12    1    3    3    0    0  0.48264361134E+02  0.15592449873E+01 -0.13089086422E+03  0.13951450870E+03  0.00000000000E+00 0.  1.
          5    1    4    4  501    0  0.34790719373E+02 -0.11126868396E+02 -0.75621086342E+01  0.37534773768E+02  0.41800000000E+01 0.  1.
         -5    1    4    4    0  501 -0.28713782216E+02 -0.11808611916E+03  0.14280694475E+03  0.18756361240E+03  0.41800000000E+01 0.  1.
</event>
<event>
11    1  0.6930157E-009  0.1681693E+03  0.7561462E-02  0.1079636E+00
         22   -1    0    0    0    0  0.00000000000E+00  0.00000000000E+00  0.24082549961E+03  0.24082549961E+03  0.00000000000E+00 0. -1.
         22   -1    0    0    0    0 -0.00000000000E+00 -0.00000000000E+00 -0.24063592963E+04  0.24063592963E+04  0.00000000000E+00 0.  1.
         24    2    1    2    0    0 -0.58108600638E+02  0.98098447850E+02 -0.23246355364E+04  0.23288132704E+04  0.80255570280E+02 0.  0.
         25    2    1    2    0    0 -0.45125213554E+01 -0.61475870511E+02  0.18320599587E+02  0.14065268419E+03  0.12509151729E+03 0.  0.
        -24    2    1    2    0    0  0.62621121993E+02 -0.36622577339E+02  0.14078114008E+03  0.17771884131E+03  0.80635222238E+02 0.  0.
        -11    1    3    3    0    0 -0.73987371616E+02  0.96022584374E+02 -0.18904467542E+04  0.18943292740E+04  0.00000000000E+00 0.  1.
         12    1    3    3    0    0  0.15878770978E+02  0.20758634756E+01 -0.43418878223E+03  0.43448399647E+03  0.00000000000E+00 0. -1.
         13    1    5    5    0    0  0.77097080592E+02 -0.42381980503E+02  0.13492626489E+03  0.16107541421E+03  0.00000000000E+00 0. -1.
        -14    1    5    5    0    0 -0.14475958598E+02  0.57594031643E+01  0.58548751894E+01  0.16643427100E+02  0.00000000000E+00 0.  1.
          5    1    4    4  501    0 -0.57233987112E+02 -0.62731517948E+02  0.21364115494E+02  0.87663392905E+02  0.41800000000E+01 0.  1.
         -5    1    4    4    0  501  0.52721465756E+02  0.12556474371E+01 -0.30435159077E+01  0.52989291287E+02  0.41800000000E+01 0.  1.
</event>
<event>
11    1  0.6930157E-009  0.1437857E+03  0.7561462E-02  0.1103403E+00
         22   -1    0    0    0    0  0.00000000000E+00  0.00000000000E+00  0.22571645051E+03  0.22571645051E+03  0.00000000000E+00 0.  1.
         22   -1    0    0    0    0 -0.00000000000E+00 -0.00000000000E+00 -0.11681576561E+04  0.11681576561E+04  0.00000000000E+00 0. -1.
        -24    2    1    2    0    0  0.78154281405E+02 -0.10099913444E+02 -0.61505595360E+03  0.62585429948E+03  0.84791969961E+02 0.  0.
         25    2    1    2    0    0 -0.51722100001E+02 -0.65208400890E+02 -0.52196163275E+03  0.54315538422E+03  0.12508602706E+03 0.  0.
         24    2    1    2    0    0 -0.26432181404E+02  0.75308314334E+02  0.19457638080E+03  0.22486442288E+03  0.79586671559E+02 0.  0.
        -11    1    5    5    0    0  0.14476426545E+00  0.82056775632E+02  0.16648570938E+03  0.18560933923E+03  0.00000000000E+00 0.  1.
         12    1    5    5    0    0 -0.26576945669E+02 -0.67484612975E+01  0.28090671420E+02  0.39255083643E+02  0.00000000000E+00 0. -1.
         11    1    3    3    0    0  0.86059361959E+02 -0.30489219712E+02 -0.43520559058E+03  0.44467933657E+03  0.00000000000E+00 0. -1.
        -12    1    3    3    0    0 -0.79050805542E+01  0.20389306268E+02 -0.17985036302E+03  0.18117496292E+03  0.00000000000E+00 0.  1.
          5    1    4    4  501    0 -0.18538164098E+02  0.27728041461E+02 -0.27697144731E+03  0.27900387602E+03  0.41800000000E+01 0.  1.
         -5    1    4    4    0  501 -0.33183935903E+02 -0.92936442350E+02 -0.24499018544E+03  0.26415150820E+03  0.41800000000E+01 0.  1.
</event>
<event>
11    1  0.6930157E-009  0.1448047E+03  0.7561462E-02  0.1102309E+00
         22   -1    0    0    0    0  0.00000000000E+00  0.00000000000E+00  0.37705463171E+03  0.37705463171E+03  0.00000000000E+00 0. -1.
         22   -1    0    0    0    0 -0.00000000000E+00 -0.00000000000E+00 -0.37114942226E+03  0.37114942226E+03  0.00000000000E+00 0.  1.
         24    2    1    2    0    0  0.40743439225E+02 -0.66380951658E+02 -0.30833741187E+03  0.32796179344E+03  0.80128146193E+02 0.  0.
         25    2    1    2    0    0 -0.30770675547E+02  0.10836326127E+02  0.49595176703E+02  0.13845958288E+03  0.12508842513E+03 0.  0.
        -24    2    1    2    0    0 -0.99727636778E+01  0.55544625531E+02  0.26464744462E+03  0.28178267765E+03  0.78603727905E+02 0.  0.
        -13    1    3    3    0    0  0.15413328593E+02 -0.34682338521E+02 -0.26825517894E+03  0.27092669919E+03  0.00000000000E+00 0.  1.
         14    1    3    3    0    0  0.25330110632E+02 -0.31698613137E+02 -0.40082232928E+02  0.57035094248E+02  0.00000000000E+00 0. -1.
         13    1    5    5    0    0 -0.42002725154E+02  0.13990554173E+02  0.12439958491E+03  0.13204249790E+03  0.00000000000E+00 0. -1.
        -14    1    5    5    0    0  0.32029961476E+02  0.41554071358E+02  0.14024785971E+03  0.14974017976E+03  0.00000000000E+00 0.  1.
          5    1    4    4  501    0 -0.24749665409E+02 -0.22036809802E+02 -0.34409434662E+02  0.47954650638E+02  0.41800000000E+01 0.  1.
         -5    1    4    4    0  501 -0.60210101382E+01  0.32873135929E+02  0.84004611366E+02  0.90504932239E+02  0.41800000000E+01 0.  1.
</event>
<event>
11    1  0.6930157E-009  0.1373095E+03  0.7561462E-02  0.1110600E+00
         22   -1    0    0    0    0  0.00000000000E+00  0.00000000000E+00  0.21165909124E+03  0.21165909124E+03  0.00000000000E+00 0. -1.
         22   -1    0    0    0    0 -0.00000000000E+00 -0.00000000000E+00 -0.11860190573E+04  0.11860190573E+04  0.00000000000E+00 0.  1.
         24    2    1    2    0    0 -0.32116022822E+01  0.12366817641E+02 -0.92997925555E+03  0.93349794625E+03  0.79960911364E+02 0.  0.
         25    2    1    2    0    0  0.95768003054E+01 -0.68002903490E+02 -0.22061685978E+03  0.26274573169E+03  0.12508961073E+03 0.  0.
        -24    2    1    2    0    0 -0.63651980232E+01  0.55636085849E+02  0.17623614929E+03  0.20143447058E+03  0.79879758569E+02 0.  0.
        -13    1    3    3    0    0  0.49989172017E+01  0.44550663354E+02 -0.65241895104E+03  0.65395736746E+03  0.00000000000E+00 0.  1.
         14    1    3    3    0    0 -0.82105194839E+01 -0.32183845713E+02 -0.27756030451E+03  0.27954057879E+03  0.00000000000E+00 0. -1.
         13    1    5    5    0    0 -0.22092977074E+02  0.26813605521E+02  0.16193617724E+03  0.16562123830E+03  0.00000000000E+00 0. -1.
        -14    1    5    5    0    0  0.15727779051E+02  0.28822480328E+02  0.14299972051E+02  0.35813232287E+02  0.00000000000E+00 0.  1.
          5    1    4    4  501    0 -0.52912218394E+02 -0.51367029443E+02 -0.14808138531E+03  0.16548064432E+03  0.41800000000E+01 0.  1.
         -5    1    4    4    0  501  0.62489018700E+02 -0.16635874047E+02 -0.72535474466E+02  0.97265087361E+02  0.41800000000E+01 0.  1.
</event>
<event>
11    1  0.6930157E-009  0.1681937E+03  0.7561462E-02  0.1079614E+00
         22   -1    0    0    0    0  0.00000000000E+00  0.00000000000E+00  0.26265546374E+03  0.26265546374E+03  0.00000000000E+00 0. -1.
         22   -1    0    0    0    0 -0.00000000000E+00 -0.00000000000E+00 -0.36312335746E+03  0.36312335746E+03  0.00000000000E+00 0. -1.
        -24    2    1    2    0    0 -0.10747366706E+02 -0.12429728815E+02 -0.22799131041E+03  0.24234225972E+03  0.80496764999E+02 0.  0.
         25    2    1    2    0    0 -0.89463046040E+02  0.65005828194E+02 -0.32793432298E+02  0.17015077454E+03  0.12508590077E+03 0.  0.
         24    2    1    2    0    0  0.10021041275E+03 -0.52576099379E+02  0.16031684899E+03  0.21328578692E+03  0.83564117806E+02 0.  0.
        -13    1    5    5    0    0 -0.61672865703E+01  0.94074013209E+01  0.12790820785E+00  0.11249488156E+02  0.00000000000E+00 0.  1.
         14    1    5    5    0    0  0.10637769932E+03 -0.61983500700E+02  0.16018894078E+03  0.20203629877E+03  0.00000000000E+00 0. -1.
         11    1    3    3    0    0 -0.44974423474E+01 -0.14677557595E+02 -0.23332157716E+03  0.23382603801E+03  0.00000000000E+00 0. -1.
        -12    1    3    3    0    0 -0.62499243585E+01  0.22478287798E+01  0.53302667448E+01  0.85162217140E+01  0.00000000000E+00 0.  1.
          5    1    4    4  501    0 -0.86792202763E+02  0.60557456483E+02  0.27552497694E+02  0.10943813104E+03  0.41800000000E+01 0.  1.
         -5    1    4    4    0  501 -0.26708432765E+01  0.44483717106E+01 -0.60345929992E+02  0.60712643505E+02  0.41800000000E+01 0.  1.
</event>
<event>
11    1  0.6930157E-009  0.1287184E+03  0.7561462E-02  0.1120854E+00
         22   -1    0    0    0    0  0.00000000000E+00  0.00000000000E+00  0.20185206281E+04  0.20185206281E+04  0.00000000000E+00 0. -1.
         22   -1    0    0    0    0 -0.00000000000E+00 -0.00000000000E+00 -0.11839098548E+03  0.11839098548E+03  0.00000000000E+00 0. -1.
         24    2    1    2    0    0  0.12786293807E+02 -0.27668756351E+02 -0.94793807528E+02  0.12884355837E+03  0.81766418544E+02 0.  0.
         25    2    1    2    0    0 -0.12956331008E+02  0.20612338105E+02  0.77388547094E+03  0.78430801593E+03  0.12509039420E+03 0.  0.
        -24    2    1    2    0    0  0.17003720129E+00  0.70564182464E+01  0.12210379792E+04  0.12237600393E+04  0.81271551858E+02 0.  0.
        -13    1    3    3    0    0 -0.29799306479E+02 -0.53797094608E+01 -0.10951461197E+02  0.32200534822E+02  0.00000000000E+00 0.  1.
         14    1    3    3    0    0  0.42585600285E+02 -0.22289046890E+02 -0.83842346331E+02  0.96643023552E+02  0.00000000000E+00 0. -1.
         11    1    5    5    0    0 -0.20943234668E+02  0.54180612367E+01  0.11331606598E+04  0.11333671318E+04  0.00000000000E+00 0. -1.
        -12    1    5    5    0    0  0.21113271869E+02  0.16383570097E+01  0.87877319391E+02  0.90392907499E+02  0.00000000000E+00 0.  1.
          5    1    4    4  501    0 -0.22949648892E+02  0.57389494704E+02  0.68112925831E+03  0.68394062565E+03  0.41800000000E+01 0.  1.
         -5    1    4    4    0  501  0.99933178844E+01 -0.36777156599E+02  0.92756212634E+02  0.10036739028E+03  0.41800000000E+01 0.  1.
</event>
<event>
11    1  0.6930157E-009  0.1739237E+03  0.7561462E-02  0.1074667E+00
         22   -1    0    0    0    0  0.00000000000E+00  0.00000000000E+00  0.48660562039E+03  0.48660562039E+03  0.00000000000E+00 0.  1.
         22   -1    0    0    0    0 -0.00000000000E+00 -0.00000000000E+00 -0.41036521257E+03  0.41036521257E+03  0.00000000000E+00 0.  1.
         24    2    1    2    0    0 -0.10692067840E+03 -0.65785386809E+02 -0.32544612756E+03  0.35843725178E+03  0.82476256783E+02 0.  0.
         25    2    1    2    0    0  0.82463883003E+02  0.44290859365E+02  0.32569024417E+02  0.15959437318E+03  0.12509056870E+03 0.  0.
        -24    2    1    2    0    0  0.24456795399E+02  0.21494527444E+02  0.36911751096E+03  0.37893920799E+03  0.79290837444E+02 0.  0.
        -13    1    3    3    0    0 -0.44038887332E+02  0.90126628808E+01 -0.16091207656E+03  0.16707288251E+03  0.00000000000E+00 0.  1.
         14    1    3    3    0    0 -0.62881791069E+02 -0.74798049689E+02 -0.16453405100E+03  0.19136436927E+03  0.00000000000E+00 0. -1.
         11    1    5    5    0    0  0.17522278034E+02 -0.15108339150E+02  0.30519464741E+02  0.38297909440E+02  0.00000000000E+00 0. -1.
        -12    1    5    5    0    0  0.69345173650E+01  0.36602866594E+02  0.33859804622E+03  0.34064129855E+03  0.00000000000E+00 0.  1.
          5    1    4    4  501    0  0.63128541310E+02  0.39852049578E+02 -0.39614443131E+02  0.84617817793E+02  0.41800000000E+01 0.  1.
         -5    1    4    4    0  501  0.19335341693E+02  0.44388097872E+01  0.72183467548E+02  0.74976555389E+02  0.41800000000E+01 0.  1.
</event>
<event>
11    1  0.6930157E-009  0.1563146E+03  0.7561462E-02  0.1090596E+00
         22   -1    0    0    0    0  0.00000000000E+00  0.00000000000E+00  0.69384434340E+03  0.69384434340E+03  0.00000000000E+00 0. -1.
         22   -1    0    0    0    0 -0.00000000000E+00 -0.00000000000E+00 -0.55417639536E+03  0.55417639536E+03  0.00000000000E+00 0.  1.
         24    2    1    2    0    0  0.44843006822E+02  0.55229459672E+02 -0.48953751416E+03  0.50098852656E+03  0.79254889419E+02 0.  0.
         25    2    1    2    0    0  0.31027409869E+02  0.12928287393E+02  0.28671919082E+02  0.13265818392E+03  0.12508506721E+03 0.  0.
        -24    2    1    2    0    0 -0.75870416692E+02 -0.68157747064E+02  0.60053354312E+03  0.61437402828E+03  0.80081905623E+02 0.  0.
        -11    1    3    3    0    0  0.92586634833E+01  0.60073818477E+02 -0.39875029037E+03  0.40335639401E+03  0.00000000000E+00 0.  1.
         12    1    3    3    0    0  0.35584343339E+02 -0.48443588052E+01 -0.90787223788E+02  0.97632132550E+02  0.00000000000E+00 0. -1.
         11    1    5    5    0    0 -0.63184233364E+02 -0.60647085162E+02  0.58947279299E+03  0.59594336136E+03  0.00000000000E+00 0. -1.
        -12    1    5    5    0    0 -0.12686183328E+02 -0.75106619027E+01  0.11060750131E+02  0.18430666920E+02  0.00000000000E+00 0.  1.
          5    1    4    4  501    0  0.43035165077E+02  0.44565184272E+02  0.60006769185E+02  0.86350250899E+02  0.41800000000E+01 0. -1.
         -5    1    4    4    0  501 -0.12007755207E+02 -0.31636896879E+02 -0.31334850103E+02  0.46307933016E+02  0.41800000000E+01 0. -1.
</event>
<event>
11    1  0.6930157E-009  0.1910093E+03  0.7561462E-02  0.1061070E+00
         22   -1    0    0    0    0  0.00000000000E+00  0.00000000000E+00  0.39982943357E+03  0.39982943357E+03  0.00000000000E+00 0.  1.
         22   -1    0    0    0    0 -0.00000000000E+00 -0.00000000000E+00 -0.10281878872E+04  0.10281878872E+04  0.00000000000E+00 0. -1.
        -24    2    1    2    0    0  0.13842698046E+03 -0.25643059160E+02 -0.63442888062E+03  0.65477625895E+03  0.80077146040E+02 0.  0.
         25    2    1    2    0    0 -0.15793901289E+03 -0.19900175115E+02 -0.35012330383E+03  0.40444299949E+03  0.12508822163E+03 0.  0.
         24    2    1    2    0    0  0.19512032430E+02  0.45543234274E+02  0.35619373083E+03  0.36879806233E+03  0.81750420771E+02 0.  0.
        -11    1    5    5    0    0  0.17888179257E+02  0.61943668614E+02  0.33862822842E+03  0.34471159267E+03  0.00000000000E+00 0.  1.
         12    1    5    5    0    0  0.16238531724E+01 -0.16400434339E+02  0.17565502411E+02  0.24086469658E+02  0.00000000000E+00 0. -1.
         11    1    3    3    0    0  0.43358165836E+02 -0.22576435389E+02 -0.38031404099E+03  0.38344281941E+03  0.00000000000E+00 0. -1.
        -12    1    3    3    0    0  0.95068814619E+02 -0.30666237711E+01 -0.25411483963E+03  0.27133343954E+03  0.00000000000E+00 0.  1.
          5    1    4    4  501    0 -0.86075558104E+02  0.17459807498E+02 -0.29122743454E+03  0.30421166580E+03  0.41800000000E+01 0. -1.
         -5    1    4    4    0  501 -0.71863454781E+02 -0.37359982613E+02 -0.58895869291E+02  0.10023133369E+03  0.41800000000E+01 0. -1.
</event>
<event>
11    1  0.6930157E-009  0.1340426E+03  0.7561462E-02  0.1114399E+00
         22   -1    0    0    0    0  0.00000000000E+00  0.00000000000E+00  0.11583587819E+04  0.11583587819E+04  0.00000000000E+00 0.  1.
         22   -1    0    0    0    0 -0.00000000000E+00 -0.00000000000E+00 -0.82809066868E+02  0.82809066868E+02  0.00000000000E+00 0.  1.
         24    2    1    2    0    0 -0.60770401514E+01  0.41246771415E+02  0.88657713622E+02  0.12636074876E+03  0.79803646987E+02 0.  0.
         25    2    1    2    0    0 -0.11259778957E+02 -0.52633735456E+02  0.12035932457E+02  0.13671189300E+03  0.12509270677E+03 0.  0.
        -24    2    1    2    0    0  0.17336819109E+02  0.11386964041E+02  0.97485606893E+03  0.97809520699E+03  0.76783139867E+02 0.  0.
        -11    1    3    3    0    0  0.31362281929E+01  0.41214662323E+02  0.43623475827E+01  0.41563378041E+02  0.00000000000E+00 0.  1.
         12    1    3    3    0    0 -0.92132683443E+01  0.32109091605E-01  0.84295366039E+02  0.84797370716E+02  0.00000000000E+00 0. -1.
         13    1    5    5    0    0  0.32734844036E+02 -0.12617078983E+02  0.81224991489E+03  0.81300718627E+03  0.00000000000E+00 0. -1.
        -14    1    5    5    0    0 -0.15398024927E+02  0.24004043024E+02  0.16260615404E+03  0.16508802072E+03  0.00000000000E+00 0.  1.
          5    1    4    4  501    0 -0.14036492381E+02  0.43379814328E+01  0.60096507547E+02  0.62007288447E+02  0.41800000000E+01 0.  1.
         -5    1    4    4    0  501  0.27767134241E+01 -0.56971716889E+02 -0.48060575090E+02  0.74704604548E+02  0.41800000000E+01 0.  1.
</event>
<event>
11    1  0.6930157E-009  0.1780457E+03  0.7561462E-02  0.1071235E+00
         22   -1    0    0    0    0  0.00000000000E+00  0.00000000000E+00  0.26698673944E+04  0.26698673944E+04  0.00000000000E+00 0.  1.
         22   -1    0    0    0    0 -0.00000000000E+00 -0.00000000000E+00 -0.68935200824E+03  0.68935200824E+03  0.00000000000E+00 0. -1.
         24    2    1    2    0    0 -0.36637044221E+02 -0.10003073729E+03 -0.27607797979E+03  0.30717716171E+03  0.82403497111E+02 0.  0.
         25    2    1    2    0    0  0.36934287090E+02  0.15706548409E+03 -0.37053281365E+03  0.42305877493E+03  0.12510177136E+03 0.  0.
        -24    2    1    2    0    0 -0.29724286814E+00 -0.57034746803E+02  0.26271261796E+04  0.26289834660E+04  0.80678685227E+02 0.  0.
        -11    1    3    3    0    0  0.87609989053E+01 -0.45566599339E+02 -0.41965949293E+02  0.62563655401E+02  0.00000000000E+00 0.  1.
         12    1    3    3    0    0 -0.45398043127E+02 -0.54464137947E+02 -0.23411203050E+03  0.24461350630E+03  0.00000000000E+00 0. -1.
         13    1    5    5    0    0  0.84448882366E+01 -0.63989075765E+02  0.11466378494E+04  0.11484529924E+04  0.00000000000E+00 0. -1.
        -14    1    5    5    0    0 -0.87421311048E+01  0.69543289621E+01  0.14804883302E+04  0.14805304736E+04  0.00000000000E+00 0.  1.
          5    1    4    4  501    0  0.59367490275E+01 -0.21463341530E+02 -0.34810739312E+02  0.41535286085E+02  0.41800000000E+01 0.  1.
         -5    1    4    4    0  501  0.30997538062E+02  0.17852882562E+03 -0.33572207434E+03  0.38152348884E+03  0.41800000000E+01 0.  1.
</event>
<event>
11    1  0.6930157E-009  0.1414890E+03  0.7561462E-02  0.1105907E+00
         22   -1    0    0    0    0  0.00000000000E+00  0.00000000000E+00  0.62319449881E+02  0.62319449881E+02  0.00000000000E+00 0.  1.
         22   -1    0    0    0    0 -0.00000000000E+00 -0.00000000000E+00 -0.11361525848E+04  0.11361525848E+04  0.00000000000E+00 0.  1.
        -24    2    1    2    0    0 -0.27051116327E+02 -0.20029775067E+02 -0.26165570339E+03  0.27571832429E+03  0.80149438234E+02 0.  0.
         25    2    1    2    0    0 -0.12732323809E+02  0.72813427773E+02 -0.80703084888E+03  0.82000669464E+03  0.12509308883E+03 0.  0.
         24    2    1    2    0    0  0.39783440135E+02 -0.52783652707E+02 -0.51465826351E+01  0.10274701574E+03  0.78496024283E+02 0.  0.
        -11    1    5    5    0    0 -0.15928660168E+02 -0.35603820107E+02  0.13910139662E+02  0.41410701592E+02  0.00000000000E+00 0.  1.
         12    1    5    5    0    0  0.55712100303E+02 -0.17179832600E+02 -0.19056722297E+02  0.61336314146E+02  0.00000000000E+00 0. -1.
         13    1    3    3    0    0 -0.80336975361E+01  0.28627863283E+02 -0.14319632865E+03  0.14625075518E+03  0.00000000000E+00 0. -1.
        -14    1    3    3    0    0 -0.19017418790E+02 -0.48657638349E+02 -0.11845937473E+03  0.12946756910E+03  0.00000000000E+00 0.  1.
          5    1    4    4  501    0 -0.75367877889E+01 -0.43653090868E+01 -0.40474338816E+00  0.96692973275E+01  0.41800000000E+01 0. -1.
         -5    1    4    4    0  501 -0.51955360199E+01  0.77178736860E+02 -0.80662610549E+03  0.81033739731E+03  0.41800000000E+01 0. -1.
</event>
<event>
11    1  0.6930157E-009  0.1517581E+03  0.7561462E-02  0.1095096E+00
         22   -1    0    0    0    0  0.00000000000E+00  0.00000000000E+00  0.25709210147E+04  0.25709210147E+04  0.00000000000E+00 0. -1.
         22   -1    0    0    0    0 -0.00000000000E+00 -0.00000000000E+00 -0.15446513099E+04  0.15446513099E+04  0.00000000000E+00 0. -1.
        -24    2    1    2    0    0  0.46399400959E+02  0.72768221053E+02 -0.15181364817E+04  0.15226591093E+04  0.79399420184E+02 0.  0.
         25    2    1    2    0    0 -0.40350585827E+02 -0.37109525970E+02  0.17535256351E+03  0.22226270506E+03  0.12508757667E+03 0.  0.
         24    2    1    2    0    0 -0.60488151315E+01 -0.35658695083E+02  0.23690536229E+04  0.23706505102E+04  0.79124222648E+02 0.  0.
        -11    1    5    5    0    0 -0.21702985714E+02 -0.19255404873E+02  0.28489649745E+03  0.28637004813E+03  0.00000000000E+00 0.  1.
         12    1    5    5    0    0  0.15654170583E+02 -0.16403290210E+02  0.20841571255E+04  0.20842804621E+04  0.00000000000E+00 0. -1.
         13    1    3    3    0    0  0.27254634697E+02  0.76121941277E+02 -0.14351959087E+04  0.14374716211E+04  0.00000000000E+00 0. -1.
        -14    1    3    3    0    0  0.19144766261E+02 -0.33537202233E+01 -0.82940572949E+02  0.85187488258E+02  0.00000000000E+00 0.  1.
          5    1    4    4  501    0 -0.45706709731E+02 -0.56571283768E+02  0.35752260589E+02  0.81148690679E+02  0.41800000000E+01 0. -1.
         -5    1    4    4    0  501  0.53561239035E+01  0.19461757799E+02  0.13960030292E+03  0.14111401438E+03  0.41800000000E+01 0. -1.
</event>
<event>
11    1  0.6930157E-009  0.1387346E+03  0.7561462E-02  0.1108980E+00
         22   -1    0    0    0    0  0.00000000000E+00  0.00000000000E+00  0.22975070558E+04  0.22975070558E+04  0.00000000000E+00 0.  1.
         22   -1    0    0    0    0 -0.00000000000E+00 -0.00000000000E+00 -0.60454687843E+03  0.60454687843E+03  0.00000000000E+00 0.  1.
        -24    2    1    2    0    0 -0.12823670746E+02  0.21679653664E+02 -0.53727019662E+03  0.54385674104E+03  0.80538417411E+02 0.  0.
         25    2    1    2    0    0  0.20869541978E+02  0.38116660323E+02  0.67910363502E+01  0.13259573225E+03  0.12508833863E+03 0.  0.
         24    2    1    2    0    0 -0.80458712316E+01 -0.59796313987E+02  0.22234393377E+04  0.22256014610E+04  0.77324249075E+02 0.  0.
        -13    1    5    5    0    0  0.55982051769E+01 -0.37006337008E+02  0.20302144887E+04  0.20305594497E+04  0.00000000000E+00 0.  1.
         14    1    5    5    0    0 -0.13644076409E+02 -0.22789976979E+02  0.19322484901E+03  0.19504201123E+03  0.00000000000E+00 0. -1.
         13    1    3    3    0    0  0.11577505124E+02 -0.18847122227E+02 -0.55135860444E+02  0.59407202829E+02  0.00000000000E+00 0. -1.
        -14    1    3    3    0    0 -0.24401175870E+02  0.40526775891E+02 -0.48213433618E+03  0.48444953821E+03  0.00000000000E+00 0.  1.
          5    1    4    4  501    0  0.62599658153E+01  0.81220184092E+02  0.21904152238E+02  0.84458094705E+02  0.41800000000E+01 0. -1.
         -5    1    4    4    0  501  0.14609576162E+02 -0.43103523769E+02 -0.15113115888E+02  0.48137637549E+02  0.41800000000E+01 0. -1.
</event>
<event>
11    1  0.6930157E-009  0.1288442E+03  0.7561462E-02  0.1120697E+00
         22   -1    0    0    0    0  0.00000000000E+00  0.00000000000E+00  0.14528186411E+04  0.14528186411E+04  0.00000000000E+00 0. -1.
         22   -1    0    0    0    0 -0.00000000000E+00 -0.00000000000E+00 -0.26288930324E+03  0.26288930324E+03  0.00000000000E+00 0. -1.
         24    2    1    2    0    0 -0.29440947456E+02 -0.70812097759E+01 -0.24095068242E+03  0.25722589288E+03  0.84799856670E+02 0.  0.
         25    2    1    2    0    0  0.67566275578E+02  0.13644134993E+02  0.41870866286E+03  0.44238935689E+03  0.12506012442E+03 0.  0.
        -24    2    1    2    0    0 -0.38125328122E+02 -0.65629252172E+01  0.10121713575E+04  0.10160926946E+04  0.80354804190E+02 0.  0.
        -13    1    3    3    0    0 -0.12808790731E+02  0.14062241131E+02 -0.48933745956E+01  0.19640693994E+02  0.00000000000E+00 0.  1.
         14    1    3    3    0    0 -0.16632156725E+02 -0.21143450907E+02 -0.23605730782E+03  0.23758519889E+03  0.00000000000E+00 0. -1.
         13    1    5    5    0    0 -0.46493931312E+02 -0.16408472084E+02  0.98241989113E+03  0.98365632520E+03  0.00000000000E+00 0. -1.
        -14    1    5    5    0    0  0.83686031900E+01  0.98455468667E+01  0.29751466322E+02  0.32436369414E+02  0.00000000000E+00 0.  1.
          5    1    4    4  501    0 -0.15949737816E+02 -0.29898411625E+02  0.21779968264E+03  0.22045970905E+03  0.41800000000E+01 0.  1.
         -5    1    4    4    0  501  0.83516013394E+02  0.43542546618E+02  0.20090898022E+03  0.22192964784E+03  0.41800000000E+01 0.  1.
</event>
<event>
11    1  0.6930157E-009  0.1592076E+03  0.7561462E-02  0.1087825E+00
         22   -1    0    0    0    0  0.00000000000E+00  0.00000000000E+00  0.14354595067E+04  0.14354595067E+04  0.00000000000E+00 0.  1.
         22   -1    0    0    0    0 -0.00000000000E+00 -0.00000000000E+00 -0.50201947650E+03  0.50201947650E+03  0.00000000000E+00 0.  1.
        -24    2    1    2    0    0  0.95165661442E+00 -0.10019243136E+03 -0.47018615473E+03  0.48705347378E+03  0.78144975977E+02 0.  0.
         25    2    1    2    0    0  0.36007184793E+02  0.51934992941E+02  0.21074927518E+03  0.25308867685E+03  0.12507941683E+03 0.  0.
         24    2    1    2    0    0 -0.36958841407E+02  0.48257438423E+02  0.11928769098E+04  0.11973368326E+04  0.83459166525E+02 0.  0.
        -13    1    5    5    0    0 -0.63882965554E+02  0.29897972662E+02  0.78776619512E+03  0.79091750532E+03  0.00000000000E+00 0.  1.
         14    1    5    5    0    0  0.26924124147E+02  0.18359465762E+02  0.40511071467E+03  0.40641932727E+03  0.00000000000E+00 0. -1.
         13    1    3    3    0    0  0.27034661131E+02 -0.39255928236E+01 -0.10377407654E+03  0.10730956222E+03  0.00000000000E+00 0. -1.
        -14    1    3    3    0    0 -0.26083004516E+02 -0.96266838541E+02 -0.36641207818E+03  0.37974391156E+03  0.00000000000E+00 0.  1.
          5    1    4    4  501    0 -0.26257822526E+02 -0.24909611029E+02  0.30801127088E+02  0.47708948797E+02  0.41800000000E+01 0. -1.
         -5    1    4    4    0  501  0.62265007318E+02  0.76844603970E+02  0.17994814809E+03  0.20537972805E+03  0.41800000000E+01 0. -1.
</event>
<event>
11    1  0.6930157E-009  0.1265100E+03  0.7561462E-02  0.1123633E+00
         22   -1    0    0    0    0  0.00000000000E+00  0.00000000000E+00  0.71695920234E+02  0.71695920234E+02  0.00000000000E+00 0.  1.
         22   -1    0    0    0    0 -0.00000000000E+00 -0.00000000000E+00 -0.15789367861E+04  0.15789367861E+04  0.00000000000E+00 0. -1.
        -24    2    1    2    0    0 -0.17062184906E+02 -0.19604889740E+02 -0.13922478109E+04  0.13947251838E+04  0.78923390256E+02 0.  0.
         25    2    1    2    0    0  0.13095825895E+02 -0.36372045048E+01 -0.11697895285E+03  0.17180306858E+03  0.12508992386E+03 0.  0.
         24    2    1    2    0    0  0.39663590106E+01  0.23242094245E+02  0.19858979749E+01  0.84104453861E+02  0.80707424813E+02 0.  0.
        -13    1    5    5    0    0 -0.24517021890E+02  0.93011061677E+01  0.31359989767E+02  0.40878403791E+02  0.00000000000E+00 0.  1.
         14    1    5    5    0    0  0.28483380901E+02  0.13940988077E+02 -0.29374091792E+02  0.43226050071E+02  0.00000000000E+00 0. -1.
         13    1    3    3    0    0  0.20186705882E+02 -0.25112602725E+02 -0.28126727368E+03  0.28310673810E+03  0.00000000000E+00 0. -1.
        -14    1    3    3    0    0 -0.37248890788E+02  0.55077129855E+01 -0.11109805373E+04  0.11116184458E+04  0.00000000000E+00 0.  1.
          5    1    4    4  501    0  0.29336538878E+02 -0.56155540241E+02 -0.33575182210E+02  0.71825082481E+02  0.41800000000E+01 0. -1.
         -5    1    4    4    0  501 -0.16240712982E+02  0.52518335736E+02 -0.83403770644E+02  0.99977986099E+02  0.41800000000E+01 0. -1.
</event>
<event>
11    1  0.6930157E-009  0.1787365E+03  0.7561462E-02  0.1070669E+00
         22   -1    0    0    0    0  0.00000000000E+00  0.00000000000E+00  0.10573549160E+04  0.10573549160E+04  0.00000000000E+00 0. -1.
         22   -1    0    0    0    0 -0.00000000000E+00 -0.00000000000E+00 -0.10471080398E+03  0.10471080398E+03  0.00000000000E+00 0. -1.
        -24    2    1    2    0    0  0.22801067496E+02 -0.44859172763E+02 -0.42832899954E+02  0.10432056178E+03  0.80721051974E+02 0.  0.
         25    2    1    2    0    0  0.46295081774E+02 -0.78893270607E+02  0.24532202286E+03  0.29016861777E+03  0.12509016387E+03 0.  0.
         24    2    1    2    0    0 -0.69096149271E+02  0.12375244337E+03  0.75015498912E+03  0.76757654043E+03  0.79701271256E+02 0.  0.
        -13    1    5    5    0    0 -0.14179102845E+02  0.68232282870E+02  0.19757072023E+03  0.20950150567E+03  0.00000000000E+00 0.  1.
         14    1    5    5    0    0 -0.54917046426E+02  0.55520160500E+02  0.55258426889E+03  0.55807503477E+03  0.00000000000E+00 0. -1.
         13    1    3    3    0    0 -0.11607407625E+02 -0.17817111226E+02 -0.54941554042E+02  0.58913120141E+02  0.00000000000E+00 0. -1.
        -14    1    3    3    0    0  0.34408475121E+02 -0.27042061537E+02  0.12108654089E+02  0.45407441639E+02  0.00000000000E+00 0.  1.
          5    1    4    4  501    0  0.78296838250E+02 -0.77603027354E+02  0.13045434522E+03  0.17084622712E+03  0.41800000000E+01 0.  1.
         -5    1    4    4    0  501 -0.32001756476E+02 -0.12902432528E+01  0.11486767763E+03  0.11932239065E+03  0.41800000000E+01 0.  1.
</event>
<event>
11    1  0.6930157E-009  0.1395620E+03  0.7561462E-02  0.1108049E+00
         22   -1    0    0    0    0  0.00000000000E+00  0.00000000000E+00  0.10326326884E+03  0.10326326884E+03  0.00000000000E+00 0.  1.
         22   -1    0    0    0    0 -0.00000000000E+00 -0.00000000000E+00 -0.12258640900E+04  0.12258640900E+04  0.00000000000E+00 0.  1.
         24    2    1    2    0    0 -0.55937845942E+01 -0.66342910836E+02 -0.10607390967E+04  0.10654110727E+04  0.74166369094E+02 0.  0.
         25    2    1    2    0    0 -0.55355773315E+02  0.63631594553E+02 -0.60944153049E+02  0.16270969209E+03  0.12508801959E+03 0.  0.
        -24    2    1    2    0    0  0.60949557909E+02  0.27113162823E+01 -0.91757141321E+00  0.10100659407E+03  0.80494038674E+02 0.  0.
        -11    1    3    3    0    0  0.33369458492E+02 -0.28517012809E+02 -0.56636601603E+03  0.56806443728E+03  0.00000000000E+00 0.  1.
         12    1    3    3    0    0 -0.38963243086E+02 -0.37825898026E+02 -0.49437308071E+03  0.49734663546E+03  0.00000000000E+00 0. -1.
         13    1    5    5    0    0  0.14914288629E+02  0.95326140762E+01 -0.37725747823E+02  0.41671798440E+02  0.00000000000E+00 0. -1.
        -14    1    5    5    0    0  0.46035269280E+02 -0.68212977939E+01  0.36808176410E+02  0.59334795625E+02  0.00000000000E+00 0.  1.
          5    1    4    4  501    0  0.31114205221E+02  0.32075050593E+02  0.10523906592E+02  0.46099106792E+02  0.41800000000E+01 0.  1.
         -5    1    4    4    0  501 -0.86469978536E+02  0.31556543960E+02 -0.71468059642E+02  0.11661058530E+03  0.41800000000E+01 0.  1.
</event>
<event>
11    1  0.6930157E-009  0.1373192E+03  0.7561462E-02  0.1110589E+00
         22   -1    0    0    0    0  0.00000000000E+00  0.00000000000E+00  0.23811273940E+04  0.23811273940E+04  0.00000000000E+00 0.  1.
         22   -1    0    0    0    0 -0.00000000000E+00 -0.00000000000E+00 -0.12420955589E+04  0.12420955589E+04  0.00000000000E+00 0. -1.
         24    2    1    2    0    0  0.85841018147E+01  0.20482298600E+02 -0.12217357843E+04  0.12246460703E+04  0.81403067929E+02 0.  0.
         25    2    1    2    0    0 -0.38105422764E+02 -0.67248533714E+02  0.28689554511E+03  0.32238296038E+03  0.12508929135E+03 0.  0.
        -24    2    1    2    0    0  0.29521320949E+02  0.46766235113E+02  0.20738720743E+04  0.20761939222E+04  0.81100141195E+02 0.  0.
        -11    1    3    3    0    0  0.37564146733E+02 -0.25370387582E+01 -0.32967533176E+03  0.33181821237E+03  0.00000000000E+00 0.  1.
         12    1    3    3    0    0 -0.28980044918E+02  0.23019337358E+02 -0.89206045251E+03  0.89282785789E+03  0.00000000000E+00 0. -1.
         11    1    5    5    0    0  0.40145113018E+02  0.23481430804E+02  0.51094582146E+03  0.51305812551E+03  0.00000000000E+00 0. -1.
        -12    1    5    5    0    0 -0.10623792069E+02  0.23284804309E+02  0.15629262528E+04  0.15631357967E+04  0.00000000000E+00 0.  1.
          5    1    4    4  501    0 -0.69299250698E+02 -0.51549511314E+02  0.99975682210E+02  0.13218300835E+03  0.41800000000E+01 0.  1.
         -5    1    4    4    0  501  0.31193827934E+02 -0.15699022400E+02  0.18691986290E+03  0.19019995203E+03  0.41800000000E+01 0.  1.
</event>
<event>
11    1  0.6930157E-009  0.1491049E+03  0.7561462E-02  0.1097797E+00
         22   -1    0    0    0    0  0.00000000000E+00  0.00000000000E+00  0.51127049913E+03  0.51127049913E+03  0.00000000000E+00 0.  1.
         22   -1    0    0    0    0 -0.00000000000E+00 -0.00000000000E+00 -0.14167252144E+04  0.14167252144E+04  0.00000000000E+00 0. -1.
         24    2    1    2    0    0  0.17535031032E+01  0.70472914470E+02 -0.13813271161E+04  0.13853223758E+04  0.77999850157E+02 0.  0.
         25    2    1    2    0    0 -0.62325719183E+02  0.10344728137E+02  0.22135445011E+03  0.26198751294E+03  0.12509258843E+03 0.  0.
        -24    2    1    2    0    0  0.60572216079E+02 -0.80817642607E+02  0.25451795081E+03  0.28068582475E+03  0.61681927775E+02 0.  0.
        -11    1    3    3    0    0  0.21955378746E+02  0.55307263148E+02 -0.48463687091E+03  0.48827638552E+03  0.00000000000E+00 0.  1.
         12    1    3    3    0    0 -0.20201875643E+02  0.15165651322E+02 -0.89669024524E+03  0.89704599028E+03  0.00000000000E+00 0. -1.
         11    1    5    5    0    0  0.48633102646E+02 -0.30483774252E+02  0.78643732282E+02  0.97361572465E+02  0.00000000000E+00 0. -1.
        -12    1    5    5    0    0  0.11939113433E+02 -0.50333868355E+02  0.17587421853E+03  0.18332425229E+03  0.00000000000E+00 0.  1.
          5    1    4    4  501    0 -0.12702653703E+02  0.62160674288E+02  0.70800482844E+02  0.95160325819E+02  0.41800000000E+01 0.  1.
         -5    1    4    4    0  501 -0.49623065480E+02 -0.51815946151E+02  0.15055396726E+03  0.16682718712E+03  0.41800000000E+01 0.  1.
</event>
<event>
11    1  0.6930157E-009  0.1638821E+03  0.7561462E-02  0.1083482E+00
         22   -1    0    0    0    0  0.00000000000E+00  0.00000000000E+00  0.59499013088E+03  0.59499013088E+03  0.00000000000E+00 0. -1.
         22   -1    0    0    0    0 -0.00000000000E+00 -0.00000000000E+00 -0.10237557774E+04  0.10237557774E+04  0.00000000000E+00 0.  1.
        -24    2    1    2    0    0 -0.76610637933E+02  0.58621409327E+02 -0.52587429713E+03  0.54050848101E+03  0.79372427126E+02 0.  0.
         25    2    1    2    0    0  0.13626734908E+03 -0.25140848269E+02 -0.46772315580E+03  0.50360071776E+03  0.12509148562E+03 0.  0.
         24    2    1    2    0    0 -0.59656711145E+02 -0.33480561057E+02  0.56483180642E+03  0.57463670951E+03  0.80576095848E+02 0.  0.
        -11    1    5    5    0    0  0.46677993337E+00 -0.34300426983E+02  0.34593361257E+03  0.34763026548E+03  0.00000000000E+00 0.  1.
         12    1    5    5    0    0 -0.60123491078E+02  0.81986592604E+00  0.21889819385E+03  0.22700644402E+03  0.00000000000E+00 0. -1.
         13    1    3    3    0    0 -0.43817238633E+02  0.75613690441E+02 -0.34451077013E+03  0.35542235625E+03  0.00000000000E+00 0. -1.
        -14    1    3    3    0    0 -0.32793399299E+02 -0.16992281115E+02 -0.18136352700E+03  0.18508612476E+03  0.00000000000E+00 0.  1.
          5    1    4    4  501    0  0.12148131840E+03 -0.40177524087E+02 -0.46455198864E+03  0.48186924233E+03  0.41800000000E+01 0.  1.
         -5    1    4    4    0  501  0.14786030679E+02  0.15036675818E+02 -0.31711671679E+01  0.21731475424E+02  0.41800000000E+01 0.  1.
</event>
<event>
11    1  0.6930157E-009  0.1640763E+03  0.7561462E-02  0.1083305E+00
         22   -1    0    0    0    0  0.00000000000E+00  0.00000000000E+00  0.10835438454E+04  0.10835438454E+04  0.00000000000E+00 0.  1.
         22   -1    0    0    0    0 -0.00000000000E+00 -0.00000000000E+00 -0.13721177762E+04  0.13721177762E+04  0.00000000000E+00 0. -1.
         24    2    1    2    0    0 -0.23571326935E+02  0.35514096628E+02 -0.11355804809E+04  0.11392086408E+04  0.80227428006E+02 0.  0.
         25    2    1    2    0    0  0.10210934586E+03  0.36140472512E+02 -0.20079220230E+03  0.26017848840E+03  0.12507151976E+03 0.  0.
        -24    2    1    2    0    0 -0.78538018929E+02 -0.71654569140E+02  0.10477987524E+04  0.10562744925E+04  0.80814480437E+02 0.  0.
        -13    1    3    3    0    0 -0.34434120326E+02 -0.14721348400E+02 -0.36502456289E+03  0.36694053777E+03  0.00000000000E+00 0.  1.
         14    1    3    3    0    0  0.10862793391E+02  0.50235445028E+02 -0.77055591799E+03  0.77226810304E+03  0.00000000000E+00 0. -1.
         11    1    5    5    0    0 -0.71236651248E+02 -0.32696075697E+02  0.42171643386E+03  0.42893874205E+03  0.00000000000E+00 0. -1.
        -12    1    5    5    0    0 -0.73013676806E+01 -0.38958493443E+02  0.62608231851E+03  0.62733575040E+03  0.00000000000E+00 0.  1.
          5    1    4    4  501    0  0.76508689056E+02 -0.20366850882E+02 -0.42159589362E+02  0.89795832259E+02  0.41800000000E+01 0. -1.
         -5    1    4    4    0  501  0.25600656808E+02  0.56507323393E+02 -0.15863261293E+03  0.17038265614E+03  0.41800000000E+01 0. -1.
</event>
<event>
11    1  0.6930157E-009  0.2291611E+03  0.7561462E-02  0.1035626E+00
         22   -1    0    0    0    0  0.00000000000E+00  0.00000000000E+00  0.14670547642E+04  0.14670547642E+04  0.00000000000E+00 0. -1.
         22   -1    0    0    0    0 -0.00000000000E+00 -0.00000000000E+00 -0.53647858350E+03  0.53647858350E+03  0.00000000000E+00 0.  1.
         24    2    1    2    0    0  0.50477251373E+01 -0.45465083889E+02 -0.49753208027E+03  0.50613589723E+03  0.80887713425E+02 0.  0.
         25    2    1    2    0    0 -0.12140888326E+03 -0.13160902873E+03  0.81690491425E+03  0.84560094095E+03  0.12508500722E+03 0.  0.
        -24    2    1    2    0    0  0.11636115812E+03  0.17707411262E+03  0.61120334674E+03  0.65179650953E+03  0.79837323924E+02 0.  0.
        -11    1    3    3    0    0  0.13540672937E+02 -0.34150388950E+02 -0.48728342760E+03  0.48866628460E+03  0.00000000000E+00 0.  1.
         12    1    3    3    0    0 -0.84929477995E+01 -0.11314694939E+02 -0.10248652668E+02  0.17469612628E+02  0.00000000000E+00 0. -1.
         11    1    5    5    0    0  0.10594625055E+03  0.11047745342E+03  0.34945957807E+03  0.38151261109E+03  0.00000000000E+00 0. -1.
        -12    1    5    5    0    0  0.10414907572E+02  0.66596659208E+02  0.26174376867E+03  0.27028389844E+03  0.00000000000E+00 0.  1.
          5    1    4    4  501    0  0.22179342295E+02 -0.22365883673E+02  0.21137881970E+03  0.21375367552E+03  0.41800000000E+01 0. -1.
         -5    1    4    4    0  501 -0.14358822555E+03 -0.10924314506E+03  0.60552609455E+03  0.63184726543E+03  0.41800000000E+01 0. -1.
</event>
<event>
11    1  0.6930157E-009  0.1322005E+03  0.7561462E-02  0.1116594E+00
         22   -1    0    0    0    0  0.00000000000E+00  0.00000000000E+00  0.22007023794E+03  0.22007023794E+03  0.00000000000E+00 0.  1.
         22   -1    0    0    0    0 -0.00000000000E+00 -0.00000000000E+00 -0.33029455456E+03  0.33029455456E+03  0.00000000000E+00 0. -1.
         24    2    1    2    0    0  0.44487663770E+02 -0.51062165091E+01 -0.26207862849E+03  0.27745918898E+03  0.79329492378E+02 0.  0.
         25    2    1    2    0    0 -0.19112801604E+02  0.92182903847E+01  0.40069803440E+02  0.13305641247E+03  0.12509254050E+03 0.  0.
        -24    2    1    2    0    0 -0.25374862166E+02 -0.41120738756E+01  0.11178450843E+03  0.13984919105E+03  0.80007669213E+02 0.  0.
        -11    1    3    3    0    0  0.29145917313E+02 -0.33545941925E+02 -0.21979163705E+03  0.22423910995E+03  0.00000000000E+00 0.  1.
         12    1    3    3    0    0  0.15341746457E+02  0.28439725416E+02 -0.42286991445E+02  0.53220079026E+02  0.00000000000E+00 0. -1.
         13    1    5    5    0    0  0.55694877047E+01  0.34257761597E+02  0.44199433016E+02  0.56197894105E+02  0.00000000000E+00 0. -1.
        -14    1    5    5    0    0 -0.30944349870E+02 -0.38369835472E+02  0.67585075409E+02  0.83651296949E+02  0.00000000000E+00 0.  1.
          5    1    4    4  501    0 -0.29543115326E+02 -0.26836029583E+02  0.72769869474E+02  0.83101711476E+02  0.41800000000E+01 0.  1.
         -5    1    4    4    0  501  0.10430313722E+02  0.36054319968E+02 -0.32700066034E+02  0.49954700993E+02  0.41800000000E+01 0.  1.
</event>
<event>
11    1  0.6930157E-009  0.1314200E+03  0.7561462E-02  0.1117536E+00
         22   -1    0    0    0    0  0.00000000000E+00  0.00000000000E+00  0.81974182540E+03  0.81974182540E+03  0.00000000000E+00 0.  1.
         22   -1    0    0    0    0 -0.00000000000E+00 -0.00000000000E+00 -0.92097210444E+03  0.92097210444E+03  0.00000000000E+00 0. -1.
        -24    2    1    2    0    0  0.69050359215E+00 -0.30661917754E+02 -0.76091711785E+03  0.76572074731E+03  0.79954816161E+02 0.  0.
         25    2    1    2    0    0 -0.15891648173E+02 -0.72804076337E+01 -0.12824557247E+03  0.18001133202E+03  0.12510637066E+03 0.  0.
         24    2    1    2    0    0  0.15201144581E+02  0.37942325387E+02  0.78793241128E+03  0.79498185051E+03  0.97406175606E+02 0.  0.
        -13    1    5    5    0    0  0.17613274380E+02  0.43474675404E+02  0.78753794231E+03  0.78893363816E+03  0.00000000000E+00 0.  1.
         14    1    5    5    0    0 -0.24121297987E+01 -0.55323500164E+01  0.39446896355E+00  0.60482123502E+01  0.00000000000E+00 0. -1.
         13    1    3    3    0    0 -0.17454273911E+02 -0.10646695435E+02 -0.68202266673E+03  0.68232904213E+03  0.00000000000E+00 0. -1.
        -14    1    3    3    0    0  0.18144777503E+02 -0.20015222319E+02 -0.78894451124E+02  0.83391705183E+02  0.00000000000E+00 0.  1.
          5    1    4    4  501    0  0.10710106022E+02 -0.10324398204E+02  0.22253286269E+02  0.27092078529E+02  0.41800000000E+01 0. -1.
         -5    1    4    4    0  501 -0.26601754196E+02  0.30439905706E+01 -0.15049885874E+03  0.15291925349E+03  0.41800000000E+01 0. -1.
</event>
<event>
11    1  0.6930157E-009  0.1657785E+03  0.7561462E-02  0.1081765E+00
         22   -1    0    0    0    0  0.00000000000E+00  0.00000000000E+00  0.10770511683E+03  0.10770511683E+03  0.00000000000E+00 0.  1.
         22   -1    0    0    0    0 -0.00000000000E+00 -0.00000000000E+00 -0.13751431911E+04  0.13751431911E+04  0.00000000000E+00 0. -1.
        -24    2    1    2    0    0  0.96515494353E+01  0.94206110914E+02 -0.72015279100E+03  0.73082522617E+03  0.80731190307E+02 0.  0.
         25    2    1    2    0    0  0.12056231310E+02 -0.15092419157E+03 -0.60546460015E+03  0.63652036873E+03  0.12508930190E+03 0.  0.
         24    2    1    2    0    0 -0.21707780745E+02  0.56718080660E+02  0.58179316892E+02  0.11550271302E+03  0.79169914635E+02 0.  0.
        -13    1    5    5    0    0 -0.34581361178E+02  0.53265410805E+02  0.85075757718E+01  0.64073811926E+02  0.00000000000E+00 0.  1.
         14    1    5    5    0    0  0.12873580433E+02  0.34526698549E+01  0.49671741121E+02  0.51428901099E+02  0.00000000000E+00 0. -1.
         13    1    3    3    0    0  0.25076900758E+02 -0.31944638213E+01 -0.17644939467E+03  0.17825107133E+03  0.00000000000E+00 0. -1.
        -14    1    3    3    0    0 -0.15425351323E+02  0.97400574735E+02 -0.54370339633E+03  0.55257415484E+03  0.00000000000E+00 0.  1.
          5    1    4    4  501    0  0.38094702182E+01 -0.13109390964E+03 -0.59970920848E+03  0.61389635309E+03  0.41800000000E+01 0. -1.
         -5    1    4    4    0  501  0.82467610920E+01 -0.19830281935E+02 -0.57553916768E+01  0.22624015635E+02  0.41800000000E+01 0. -1.
</event>
<event>
11    1  0.6930157E-009  0.1967613E+03  0.7561462E-02  0.1056838E+00
         22   -1    0    0    0    0  0.00000000000E+00  0.00000000000E+00  0.10131467796E+04  0.10131467796E+04  0.00000000000E+00 0. -1.
         22   -1    0    0    0    0 -0.00000000000E+00 -0.00000000000E+00 -0.12234095812E+04  0.12234095812E+04  0.00000000000E+00 0. -1.
         24    2    1    2    0    0  0.39664045347E+01 -0.15045092978E+03 -0.89735322354E+03  0.91332078191E+03  0.79125395587E+02 0.  0.
         25    2    1    2    0    0  0.51869524169E+02  0.15720053547E+03 -0.28142516199E+03  0.34964465114E+03  0.12509518129E+03 0.  0.
        -24    2    1    2    0    0 -0.55835928704E+02 -0.67496056863E+01  0.96851558397E+03  0.97359092770E+03  0.81814729705E+02 0.  0.
        -13    1    3    3    0    0 -0.54384370194E+01 -0.10046451167E+03 -0.36723247291E+03  0.38076552347E+03  0.00000000000E+00 0.  1.
         14    1    3    3    0    0  0.94048415541E+01 -0.49986418104E+02 -0.53012075063E+03  0.53255525844E+03  0.00000000000E+00 0. -1.
         13    1    5    5    0    0 -0.67725190604E+02 -0.23728538859E+02  0.86794345391E+03  0.87090503741E+03  0.00000000000E+00 0. -1.
        -14    1    5    5    0    0  0.11889261900E+02  0.16978933173E+02  0.10057213006E+03  0.10268589029E+03  0.00000000000E+00 0.  1.
          5    1    4    4  501    0 -0.24456600821E+02  0.85316207279E+02 -0.19282575004E+03  0.21231161727E+03  0.41800000000E+01 0. -1.
         -5    1    4    4    0  501  0.76326124990E+02  0.71884328186E+02 -0.88599411951E+02  0.13733303387E+03  0.41800000000E+01 0. -1.
</event>
<event>
11    1  0.6930157E-009  0.1254453E+03  0.7561462E-02  0.1124995E+00
         22   -1    0    0    0    0  0.00000000000E+00  0.00000000000E+00  0.43214495403E+03  0.43214495403E+03  0.00000000000E+00 0.  1.
         22   -1    0    0    0    0 -0.00000000000E+00 -0.00000000000E+00 -0.85261646706E+03  0.85261646706E+03  0.00000000000E+00 0.  1.
        -24    2    1    2    0    0 -0.26972025632E+01  0.30428226428E+01 -0.81746844950E+03  0.82142022987E+03  0.80374090593E+02 0.  0.
         25    2    1    2    0    0  0.68451812342E+01 -0.10852761275E+02  0.11834331060E+03  0.17266991846E+03  0.12508046468E+03 0.  0.
         24    2    1    2    0    0 -0.41479786711E+01  0.78099386320E+01  0.27865362587E+03  0.29067127276E+03  0.82241988811E+02 0.  0.
        -11    1    5    5    0    0  0.57121127557E+01  0.29884400825E+02  0.25513422698E+03  0.25694197676E+03  0.00000000000E+00 0.  1.
         12    1    5    5    0    0 -0.98600914268E+01 -0.22074462193E+02  0.23519398899E+02  0.33729295999E+02  0.00000000000E+00 0. -1.
         11    1    3    3    0    0 -0.77120281547E+00 -0.13094927511E+02 -0.20831659676E+02  0.24617675056E+02  0.00000000000E+00 0. -1.
        -12    1    3    3    0    0 -0.19259997477E+01  0.16137750154E+02 -0.79663678983E+03  0.79680255482E+03  0.00000000000E+00 0.  1.
          5    1    4    4  501    0  0.38992105306E+02 -0.42508269350E+02  0.14876414057E+02  0.59716976937E+02  0.41800000000E+01 0.  1.
         -5    1    4    4    0  501 -0.32146924072E+02  0.31655508075E+02  0.10346689655E+03  0.11295294153E+03  0.41800000000E+01 0.  1.
</event>
<event>
11    1  0.6930157E-009  0.1310432E+03  0.7561462E-02  0.1117994E+00
         22   -1    0    0    0    0  0.00000000000E+00  0.00000000000E+00  0.94617887368E+03  0.94617887368E+03  0.00000000000E+00 0. -1.
         22   -1    0    0    0    0 -0.00000000000E+00 -0.00000000000E+00 -0.58223914634E+03  0.58223914634E+03  0.00000000000E+00 0.  1.
         24    2    1    2    0    0 -0.54231599930E+01  0.31256118544E+02 -0.52146943439E+03  0.52853486511E+03  0.80077318971E+02 0.  0.
         25    2    1    2    0    0 -0.86122738541E+01  0.65426334868E+01  0.16859408489E+02  0.12668206034E+03  0.12508847846E+03 0.  0.
        -24    2    1    2    0    0  0.14035433847E+02 -0.37798752031E+02  0.86854975325E+03  0.87320109458E+03  0.80471974295E+02 0.  0.
        -13    1    3    3    0    0 -0.32600464262E+02  0.21469680681E+02 -0.44634196165E+03  0.44804562735E+03  0.00000000000E+00 0.  1.
         14    1    3    3    0    0  0.27177304269E+02  0.97864378626E+01 -0.75127472749E+02  0.80489237759E+02  0.00000000000E+00 0. -1.
         11    1    5    5    0    0  0.14910108863E+02 -0.55496520881E+02  0.80982552002E+03  0.81186177890E+03  0.00000000000E+00 0. -1.
        -12    1    5    5    0    0 -0.87467501589E+00  0.17697768851E+02  0.58724233234E+02  0.61339315676E+02  0.00000000000E+00 0.  1.
          5    1    4    4  501    0  0.19436978820E+02 -0.78296140401E+01 -0.49051740943E+02  0.53503688576E+02  0.41800000000E+01 0. -1.
         -5    1    4    4    0  501 -0.28049252674E+02  0.14372247527E+02  0.65911149432E+02  0.73178371764E+02  0.41800000000E+01 0. -1.
</event>
<event>
11    1  0.6930157E-009  0.1675133E+03  0.7561462E-02  0.1080216E+00
         22   -1    0    0    0    0  0.00000000000E+00  0.00000000000E+00  0.11883040842E+04  0.11883040842E+04  0.00000000000E+00 0. -1.
         22   -1    0    0    0    0 -0.00000000000E+00 -0.00000000000E+00 -0.13515606472E+04  0.13515606472E+04  0.00000000000E+00 0.  1.
        -24    2    1    2    0    0 -0.64444131455E+02  0.66518871545E+02 -0.13200603138E+04  0.13247998618E+04  0.62909739284E+02 0.  0.
         25    2    1    2    0    0 -0.53304113801E+02 -0.15814673794E+02  0.17742610860E+03  0.22409535172E+03  0.12508904907E+03 0.  0.
         24    2    1    2    0    0  0.11774824526E+03 -0.50704197751E+02  0.97937764218E+03  0.99096951795E+03  0.80027836188E+02 0.  0.
        -13    1    5    5    0    0  0.38738250713E+02 -0.59606518980E+02  0.42107865480E+03  0.42703726149E+03  0.00000000000E+00 0.  1.
         14    1    5    5    0    0  0.79009994544E+02  0.89023212288E+01  0.55829898738E+03  0.56393225645E+03  0.00000000000E+00 0. -1.
         11    1    3    3    0    0 -0.83029004242E+01 -0.12358219487E+02 -0.14759340937E+03  0.14834243571E+03  0.00000000000E+00 0. -1.
        -12    1    3    3    0    0 -0.56141231031E+02  0.78877091032E+02 -0.11724669044E+04  0.11764574261E+04  0.00000000000E+00 0.  1.
          5    1    4    4  501    0 -0.26901185526E+02  0.41704127732E+02  0.14406304475E+03  0.15242880737E+03  0.41800000000E+01 0. -1.
         -5    1    4    4    0  501 -0.26402928275E+02 -0.57518801526E+02  0.33363063845E+02  0.71666544354E+02  0.41800000000E+01 0. -1.
</event>
<event>
11    1  0.6930157E-009  0.1351535E+03  0.7561462E-02  0.1113094E+00
         22   -1    0    0    0    0  0.00000000000E+00  0.00000000000E+00  0.62621050439E+03  0.62621050439E+03  0.00000000000E+00 0. -1.
         22   -1    0    0    0    0 -0.00000000000E+00 -0.00000000000E+00 -0.30297541710E+03  0.30297541710E+03  0.00000000000E+00 0.  1.
        -24    2    1    2    0    0  0.10058545809E+02 -0.40583785815E+02 -0.26779986146E+03  0.28024075329E+03  0.71203202122E+02 0.  0.
         25    2    1    2    0    0 -0.16039448987E+02 -0.17606860383E+02  0.14887393043E+03  0.19590388492E+03  0.12509044531E+03 0.  0.
         24    2    1    2    0    0  0.59809031781E+01  0.58190646198E+02  0.44216101833E+03  0.45304128328E+03  0.79486575751E+02 0.  0.
        -13    1    5    5    0    0 -0.90857286236E+01 -0.18456783253E+02  0.90242911979E+02  0.92558016806E+02  0.00000000000E+00 0.  1.
         14    1    5    5    0    0  0.15066631802E+02  0.76647429452E+02  0.35191810635E+03  0.36048326648E+03  0.00000000000E+00 0. -1.
         13    1    3    3    0    0  0.19662833902E+02 -0.41824639043E+02 -0.81519909657E+02  0.93709247882E+02  0.00000000000E+00 0. -1.
        -14    1    3    3    0    0 -0.96042880933E+01  0.12408532281E+01 -0.18627995180E+03  0.18653150541E+03  0.00000000000E+00 0.  1.
          5    1    4    4  501    0  0.45022622310E+02  0.54311014201E+01  0.11182132878E+03  0.12073945234E+03  0.41800000000E+01 0. -1.
         -5    1    4    4    0  501 -0.61062071297E+02 -0.23037961804E+02  0.37052601649E+02  0.75164432573E+02  0.41800000000E+01 0. -1.
</event>
<event>
11    1  0.6930157E-009  0.1513557E+03  0.7561462E-02  0.1095502E+00
         22   -1    0    0    0    0  0.00000000000E+00  0.00000000000E+00  0.31056683832E+03  0.31056683832E+03  0.00000000000E+00 0.  1.
         22   -1    0    0    0    0 -0.00000000000E+00 -0.00000000000E+00 -0.13275918742E+03  0.13275918742E+03  0.00000000000E+00 0.  1.
         24    2    1    2    0    0  0.23332637272E+01  0.79082241764E+02 -0.25809451643E+02  0.11628331889E+03  0.81217223392E+02 0.  0.
         25    2    1    2    0    0  0.17788358636E+02 -0.10529882990E+03  0.10400258027E+03  0.19459818799E+03  0.12509056234E+03 0.  0.
        -24    2    1    2    0    0 -0.20121622363E+02  0.26216588134E+02  0.99614522276E+02  0.13244451887E+03  0.80785570183E+02 0.  0.
        -13    1    3    3    0    0 -0.20563807960E+02  0.70543759835E+02 -0.44155084331E+02  0.85726097087E+02  0.00000000000E+00 0.  1.
         14    1    3    3    0    0  0.22897071687E+02  0.85384819289E+01  0.18345632688E+02  0.30557221801E+02  0.00000000000E+00 0. -1.
         13    1    5    5    0    0 -0.36968553459E+02 -0.16840250135E+02  0.53135089714E+02  0.66885018714E+02  0.00000000000E+00 0. -1.
        -14    1    5    5    0    0  0.16846931096E+02  0.43056838269E+02  0.46479432562E+02  0.65559500153E+02  0.00000000000E+00 0.  1.
          5    1    4    4  501    0 -0.90560949604E+01  0.12704379379E+01 -0.23891430853E+02  0.25921028851E+02  0.41800000000E+01 0. -1.
         -5    1    4    4    0  501  0.26844453596E+02 -0.10656926784E+03  0.12789401112E+03  0.16867715914E+03  0.41800000000E+01 0. -1.
</event>
<event>
11    1  0.7714851E-009  0.1428395E+03  0.7561462E-02  0.1104428E+00
         22   -1    0    0    0    0  0.00000000000E+00  0.00000000000E+00  0.34965330020E+03  0.34965330020E+03  0.00000000000E+00 0. -1.
         22   -1    0    0    0    0 -0.00000000000E+00 -0.00000000000E+00 -0.13128014971E+04  0.13128014971E+04  0.00000000000E+00 0.  1.
        -24    2    1    2    0    0  0.59230345306E+02  0.26478004100E+02 -0.11488068357E+04  0.11534272946E+04  0.80175181771E+02 0.  0.
         25    2    1    2    0    0  0.62062519566E+01  0.51703190290E+01 -0.12661591034E+03  0.17816930230E+03  0.12508981480E+03 0.  0.
         24    2    1    2    0    0 -0.65436597262E+02 -0.31648323129E+02  0.31227454905E+03  0.33085820044E+03  0.81658987241E+02 0.  0.
        -13    1    5    5    0    0 -0.14033483325E+01  0.23691115440E+02  0.51768212425E+02  0.56948978524E+02  0.00000000000E+00 0.  1.
         14    1    5    5    0    0 -0.64033248930E+02 -0.55339438569E+02  0.26050633663E+03  0.27390922192E+03  0.00000000000E+00 0. -1.
         13    1    3    3    0    0  0.10913453784E+02  0.48405919595E+02 -0.50114617521E+03  0.50359678856E+03  0.00000000000E+00 0. -1.
        -14    1    3    3    0    0  0.48316891522E+02 -0.21927915495E+02 -0.64766066045E+03  0.64983050604E+03  0.00000000000E+00 0.  1.
          5    1    4    4  501    0  0.61040653675E+02  0.26087324668E+02 -0.67016287924E+02  0.94420152279E+02  0.41800000000E+01 0. -1.
         -5    1    4    4    0  501 -0.54834401718E+02 -0.20917005639E+02 -0.59599622413E+02  0.83749150016E+02  0.41800000000E+01 0. -1.
</event>
<event>
11    1  0.6930157E-009  0.2473746E+03  0.7561462E-02  0.1025307E+00
         22   -1    0    0    0    0  0.00000000000E+00  0.00000000000E+00  0.96535238829E+02  0.96535238829E+02  0.00000000000E+00 0. -1.
         22   -1    0    0    0    0 -0.00000000000E+00 -0.00000000000E+00 -0.26274429482E+04  0.26274429482E+04  0.00000000000E+00 0. -1.
        -24    2    1    2    0    0  0.16784625449E+02  0.74754224901E+01 -0.20197921367E+04  0.20214864734E+04  0.80682595702E+02 0.  0.
         25    2    1    2    0    0  0.15017886795E+03 -0.14561861056E+03 -0.31255058689E+03  0.39635059604E+03  0.12508978173E+03 0.  0.
         24    2    1    2    0    0 -0.16696349340E+03  0.13814318807E+03 -0.19856498577E+03  0.30614111754E+03  0.85638669624E+02 0.  0.
        -11    1    5    5    0    0 -0.15573455837E+02 -0.88879724289E+01 -0.34316422663E+02  0.38718799633E+02  0.00000000000E+00 0.  1.
         12    1    5    5    0    0 -0.15139003756E+03  0.14703116050E+03 -0.16424856311E+03  0.26742231791E+03  0.00000000000E+00 0. -1.
         11    1    3    3    0    0  0.82001394979E+01  0.19845146244E+02 -0.19486580773E+04  0.19487763787E+04  0.00000000000E+00 0. -1.
        -12    1    3    3    0    0  0.85844859511E+01 -0.12369723754E+02 -0.71134059393E+02  0.72710094695E+02  0.00000000000E+00 0.  1.
          5    1    4    4  501    0  0.46913365718E+02 -0.67081237591E+02 -0.22582416122E+03  0.24023900706E+03  0.41800000000E+01 0.  1.
         -5    1    4    4    0  501  0.10326550223E+03 -0.78537372973E+02 -0.86726425665E+02  0.15611158898E+03  0.41800000000E+01 0.  1.
</event>
<event>
11    1  0.6930157E-009  0.1517063E+03  0.7561462E-02  0.1095148E+00
         22   -1    0    0    0    0  0.00000000000E+00  0.00000000000E+00  0.15506454193E+04  0.15506454193E+04  0.00000000000E+00 0.  1.
         22   -1    0    0    0    0 -0.00000000000E+00 -0.00000000000E+00 -0.18773593999E+03  0.18773593999E+03  0.00000000000E+00 0.  1.
         24    2    1    2    0    0  0.75261870274E+02  0.25251462453E+02 -0.10976332047E+03  0.15714697852E+03  0.79656769091E+02 0.  0.
         25    2    1    2    0    0  0.48184937005E+01  0.14783580287E+02  0.25055751504E+02  0.12851563165E+03  0.12508678894E+03 0.  0.
        -24    2    1    2    0    0 -0.80080363975E+02 -0.40035042740E+02  0.14476170483E+04  0.14527187492E+04  0.82346683249E+02 0.  0.
        -11    1    3    3    0    0  0.47730751611E+02 -0.38182972513E+01 -0.10674856827E+03  0.11699598656E+03  0.00000000000E+00 0.  1.
         12    1    3    3    0    0  0.27531118663E+02  0.29069759704E+02 -0.30147522017E+01  0.40150991955E+02  0.00000000000E+00 0. -1.
         13    1    5    5    0    0  0.16520593840E+02 -0.37570132264E+01  0.13651283293E+03  0.13756016402E+03  0.00000000000E+00 0. -1.
        -14    1    5    5    0    0 -0.96600957815E+02 -0.36278029514E+02  0.13111042154E+04  0.13151585851E+04  0.00000000000E+00 0.  1.
          5    1    4    4  501    0 -0.28589511214E+02 -0.47081563136E+02  0.15943563086E+02  0.57495246261E+02  0.41800000000E+01 0.  1.
         -5    1    4    4    0  501  0.33408004915E+02  0.61865143423E+02  0.91121884180E+01  0.71020385389E+02  0.41800000000E+01 0.  1.
</event>
<event>
11    1  0.6930157E-009  0.1804480E+03  0.7561462E-02  0.1069281E+00
         22   -1    0    0    0    0  0.00000000000E+00  0.00000000000E+00  0.12395177625E+04  0.12395177625E+04  0.00000000000E+00 0.  1.
         22   -1    0    0    0    0 -0.00000000000E+00 -0.00000000000E+00 -0.19702767256E+04  0.19702767256E+04  0.00000000000E+00 0. -1.
         24    2    1    2    0    0 -0.35132728088E+02 -0.33074309325E+02 -0.18765093098E+04  0.18788227467E+04  0.79746505219E+02 0.  0.
         25    2    1    2    0    0  0.33262217968E+02 -0.98779722321E+02 -0.11856722783E+02  0.16325766073E+03  0.12509465706E+03 0.  0.
        -24    2    1    2    0    0  0.18705101200E+01  0.13185403165E+03  0.11576070696E+04  0.11677140807E+04  0.78186074067E+02 0.  0.
        -13    1    3    3    0    0 -0.21520832245E+02  0.96094168257E+01 -0.15977925541E+03  0.16150819661E+03  0.00000000000E+00 0.  1.
         14    1    3    3    0    0 -0.13611895843E+02 -0.42683726151E+02 -0.17167300544E+04  0.17173145501E+04  0.00000000000E+00 0. -1.
         11    1    5    5    0    0 -0.11953726817E+02 -0.11803334018E+01  0.31856408985E+02  0.34045786306E+02  0.00000000000E+00 0. -1.
        -12    1    5    5    0    0  0.13824236937E+02  0.13303436505E+03  0.11257506606E+04  0.11336682944E+04  0.00000000000E+00 0.  1.
          5    1    4    4  501    0  0.78523460562E+02 -0.39165801301E+02 -0.54016043039E+01  0.88014450968E+02  0.41800000000E+01 0. -1.
         -5    1    4    4    0  501 -0.45261242594E+02 -0.59613921020E+02 -0.64551184796E+01  0.75243209761E+02  0.41800000000E+01 0. -1.
</event>
<event>
11    1  0.6930157E-009  0.1349319E+03  0.7561462E-02  0.1113353E+00
         22   -1    0    0    0    0  0.00000000000E+00  0.00000000000E+00  0.56672562246E+03  0.56672562246E+03  0.00000000000E+00 0.  1.
         22   -1    0    0    0    0 -0.00000000000E+00 -0.00000000000E+00 -0.23871310644E+03  0.23871310644E+03  0.00000000000E+00 0.  1.
         24    2    1    2    0    0  0.71196735758E+01  0.50519041096E+01 -0.14276493401E+03  0.16094295504E+03  0.73787511866E+02 0.  0.
         25    2    1    2    0    0 -0.35946428089E+02  0.36524276934E+02 -0.27024481562E+02  0.13785443873E+03  0.12508938874E+03 0.  0.
        -24    2    1    2    0    0  0.28826754513E+02 -0.41576181043E+02  0.49780193160E+03  0.50664133513E+03  0.79492884928E+02 0.  0.
        -11    1    3    3    0    0  0.18384318837E+02  0.13793779887E+02 -0.14473517531E+03  0.14654870356E+03  0.00000000000E+00 0.  1.
         12    1    3    3    0    0 -0.11264645262E+02 -0.87418757770E+01  0.19702412996E+01  0.14394251483E+02  0.00000000000E+00 0. -1.
         13    1    5    5    0    0 -0.23644371044E+02 -0.15536939955E+02  0.26807659519E+03  0.26956541632E+03  0.00000000000E+00 0. -1.
        -14    1    5    5    0    0  0.52471125557E+02 -0.26039241088E+02  0.22972533641E+03  0.23707591881E+03  0.00000000000E+00 0.  1.
          5    1    4    4  501    0  0.24333714326E+02 -0.11150431096E+02 -0.50566765910E+02  0.57366645196E+02  0.41800000000E+01 0.  1.
         -5    1    4    4    0  501 -0.60280142415E+02  0.47674708030E+02  0.23542284347E+02  0.80487793532E+02  0.41800000000E+01 0.  1.
</event>
<event>
11    1  0.6930157E-009  0.2088837E+03  0.7561462E-02  0.1048413E+00
         22   -1    0    0    0    0  0.00000000000E+00  0.00000000000E+00  0.54129644256E+03  0.54129644256E+03  0.00000000000E+00 0. -1.
         22   -1    0    0    0    0 -0.00000000000E+00 -0.00000000000E+00 -0.12961700750E+04  0.12961700750E+04  0.00000000000E+00 0.  1.
         24    2    1    2    0    0 -0.83773770376E+02 -0.14608649662E+03 -0.12072531366E+04  0.12215202846E+04  0.79324402843E+02 0.  0.
         25    2    1    2    0    0  0.17229009052E+03  0.58512711349E+02  0.12260306068E+03  0.25255787414E+03  0.12508539732E+03 0.  0.
        -24    2    1    2    0    0 -0.88516320144E+02  0.87573785269E+02  0.32977644345E+03  0.36338835879E+03  0.88285275411E+02 0.  0.
        -11    1    3    3    0    0 -0.95462895459E+02 -0.13737890080E+03 -0.10129537583E+04  0.10266749452E+04  0.00000000000E+00 0.  1.
         12    1    3    3    0    0  0.11689125083E+02 -0.87075958217E+01 -0.19429937833E+03  0.19484533941E+03  0.00000000000E+00 0. -1.
         13    1    5    5    0    0 -0.77327027759E+02  0.15086170556E+02  0.15594576841E+03  0.17471732727E+03  0.00000000000E+00 0. -1.
        -14    1    5    5    0    0 -0.11189292385E+02  0.72487614713E+02  0.17383067504E+03  0.18867103152E+03  0.00000000000E+00 0.  1.
          5    1    4    4  501    0  0.56224261152E+02  0.79564008056E+02  0.83008131462E+02  0.12806022493E+03  0.41800000000E+01 0. -1.
         -5    1    4    4    0  501  0.11606582937E+03 -0.21051296707E+02  0.39594929216E+02  0.12449764921E+03  0.41800000000E+01 0. -1.
</event>
<event>
11    1  0.6930157E-009  0.1550334E+03  0.7561462E-02  0.1091844E+00
         22   -1    0    0    0    0  0.00000000000E+00  0.00000000000E+00  0.13313610603E+04  0.13313610603E+04  0.00000000000E+00 0. -1.
         22   -1    0    0    0    0 -0.00000000000E+00 -0.00000000000E+00 -0.80503672063E+03  0.80503672063E+03  0.00000000000E+00 0. -1.
         24    2    1    2    0    0 -0.20775015146E+02 -0.54765620581E+02 -0.68133173220E+03  0.68871311762E+03  0.81743223751E+02 0.  0.
         25    2    1    2    0    0 -0.41880604775E+02  0.12068749473E+03 -0.48780673009E+02  0.18532945432E+03  0.12509195073E+03 0.  0.
        -24    2    1    2    0    0  0.62655619921E+02 -0.65921874154E+02  0.12564367449E+04  0.12623552090E+04  0.81461399571E+02 0.  0.
        -13    1    3    3    0    0 -0.32497262446E+02 -0.22581754140E+01 -0.10653601037E+03  0.11140508484E+03  0.00000000000E+00 0.  1.
         14    1    3    3    0    0  0.11722247300E+02 -0.52507445167E+02 -0.57479572183E+03  0.57730803278E+03  0.00000000000E+00 0. -1.
         13    1    5    5    0    0  0.28003138808E+02  0.11349596323E+02  0.17342743495E+03  0.17603995090E+03  0.00000000000E+00 0. -1.
        -14    1    5    5    0    0  0.34652481113E+02 -0.77271470477E+02  0.10830093099E+04  0.10863152581E+04  0.00000000000E+00 0.  1.
          5    1    4    4  501    0 -0.82641674523E+02  0.10752206869E+03 -0.39392398259E+02  0.14127942194E+03  0.41800000000E+01 0.  1.
         -5    1    4    4    0  501  0.40761069748E+02  0.13165426041E+02 -0.93882747509E+01  0.44050032379E+02  0.41800000000E+01 0.  1.
</event>
<event>
11    1  0.6930157E-009  0.1386050E+03  0.7561462E-02  0.1109126E+00
         22   -1    0    0    0    0  0.00000000000E+00  0.00000000000E+00  0.18038106829E+04  0.18038106829E+04  0.00000000000E+00 0.  1.
         22   -1    0    0    0    0 -0.00000000000E+00 -0.00000000000E+00 -0.36187368732E+02  0.36187368732E+02  0.00000000000E+00 0.  1.
         24    2    1    2    0    0  0.40241219789E+02  0.37462208232E+02  0.92783753534E+02  0.13639140864E+03  0.83492626116E+02 0.  0.
         25    2    1    2    0    0 -0.52381772002E+02 -0.56470250810E+02  0.40303126940E+03  0.42896759451E+03  0.12508498616E+03 0.  0.
        -24    2    1    2    0    0  0.12140552214E+02  0.19008042578E+02  0.12718082912E+04  0.12746390485E+04  0.81851545878E+02 0.  0.
        -11    1    3    3    0    0 -0.31780665738E+01  0.45298731788E+02  0.16590876539E+02  0.48345965634E+02  0.00000000000E+00 0.  1.
         12    1    3    3    0    0  0.43419286362E+02 -0.78365235564E+01  0.76192876995E+02  0.88045443008E+02  0.00000000000E+00 0. -1.
         13    1    5    5    0    0 -0.27248549528E+02 -0.26082817755E+01  0.19707089455E+03  0.19896287107E+03  0.00000000000E+00 0. -1.
        -14    1    5    5    0    0  0.39389101741E+02  0.21616324353E+02  0.10747373967E+04  0.10756761774E+04  0.00000000000E+00 0.  1.
          5    1    4    4  501    0 -0.94913984379E+01 -0.39320288385E+02  0.24227898858E+02  0.47335348378E+02  0.41800000000E+01 0.  1.
         -5    1    4    4    0  501 -0.42890373564E+02 -0.17149962424E+02  0.37880337054E+03  0.38163224614E+03  0.41800000000E+01 0.  1.
</event>
<event>
11    1  0.6930157E-009  0.1554090E+03  0.7561462E-02  0.1091477E+00
         22   -1    0    0    0    0  0.00000000000E+00  0.00000000000E+00  0.12548401253E+03  0.12548401253E+03  0.00000000000E+00 0. -1.
         22   -1    0    0    0    0 -0.00000000000E+00 -0.00000000000E+00 -0.72351062064E+03  0.72351062064E+03  0.00000000000E+00 0.  1.
         24    2    1    2    0    0 -0.15996957189E+02 -0.26262746423E+01 -0.55707462939E+03  0.56333496568E+03  0.82166543610E+02 0.  0.
         25    2    1    2    0    0 -0.75717520590E+02 -0.31558945139E+02 -0.51997603808E+02  0.15836557173E+03  0.12508714388E+03 0.  0.
        -24    2    1    2    0    0  0.91714477779E+02  0.34185219781E+02  0.11045625080E+02  0.12729409576E+03  0.80632538700E+02 0.  0.
        -11    1    3    3    0    0 -0.48343849904E+02  0.84300894222E+01 -0.35778993446E+03  0.36113962872E+03  0.00000000000E+00 0.  1.
         12    1    3    3    0    0  0.32346892715E+02 -0.11056364064E+02 -0.19928469493E+03  0.20219533696E+03  0.00000000000E+00 0. -1.
         11    1    5    5    0    0  0.73655355155E+02 -0.52909068290E+01  0.30281007318E+02  0.79812558175E+02  0.00000000000E+00 0. -1.
        -12    1    5    5    0    0  0.18059122624E+02  0.39476126610E+02 -0.19235382238E+02  0.47481537590E+02  0.00000000000E+00 0.  1.
          5    1    4    4  501    0 -0.87661067663E+02 -0.18940905420E+02 -0.83202268926E+02  0.12240633413E+03  0.41800000000E+01 0. -1.
         -5    1    4    4    0  501  0.11943547073E+02 -0.12618039719E+02  0.31204665118E+02  0.35959237591E+02  0.41800000000E+01 0. -1.
</event>
<event>
11    1  0.6930157E-009  0.1459592E+03  0.7561462E-02  0.1101081E+00
         22   -1    0    0    0    0  0.00000000000E+00  0.00000000000E+00  0.23853844867E+04  0.23853844867E+04  0.00000000000E+00 0. -1.
         22   -1    0    0    0    0 -0.00000000000E+00 -0.00000000000E+00 -0.22909794934E+03  0.22909794934E+03  0.00000000000E+00 0. -1.
        -24    2    1    2    0    0  0.20536884735E+02 -0.33415478543E+02 -0.21207023490E+03  0.23077451734E+03  0.82126338552E+02 0.  0.
         25    2    1    2    0    0 -0.66661578967E+02 -0.30523135758E+02  0.95755225805E+03  0.96846739516E+03  0.12508933076E+03 0.  0.
         24    2    1    2    0    0  0.46124694232E+02  0.63938614301E+02  0.14108045142E+04  0.14152405235E+04  0.79503008280E+02 0.  0.
        -13    1    5    5    0    0  0.56199303607E+02  0.35815373853E+02  0.56627852730E+03  0.57018634955E+03  0.00000000000E+00 0.  1.
         14    1    5    5    0    0 -0.10074609375E+02  0.28123240447E+02  0.84452598689E+03  0.84505417397E+03  0.00000000000E+00 0. -1.
         13    1    3    3    0    0  0.47368756020E+02  0.26783026707E+00 -0.12398758636E+03  0.13272826508E+03  0.00000000000E+00 0. -1.
        -14    1    3    3    0    0 -0.26831871286E+02 -0.33683308810E+02 -0.88082648538E+02  0.98046252261E+02  0.00000000000E+00 0.  1.
          5    1    4    4  501    0 -0.50669490822E+02 -0.72834787753E+02  0.43693674791E+03  0.44587385849E+03  0.41800000000E+01 0. -1.
         -5    1    4    4    0  501 -0.15992088145E+02  0.42311651995E+02  0.52061551014E+03  0.52259353667E+03  0.41800000000E+01 0. -1.
</event>
<event>
11    1  0.6930157E-009  0.1451830E+03  0.7561462E-02  0.1101905E+00
         22   -1    0    0    0    0  0.00000000000E+00  0.00000000000E+00  0.31796531343E+03  0.31796531343E+03  0.00000000000E+00 0. -1.
         22   -1    0    0    0    0 -0.00000000000E+00 -0.00000000000E+00 -0.27674331612E+03  0.27674331612E+03  0.00000000000E+00 0.  1.
        -24    2    1    2    0    0  0.62308813684E+02  0.35361363136E+02 -0.19580025592E+03  0.22571658997E+03  0.86472102468E+02 0.  0.
         25    2    1    2    0    0 -0.59512840145E+02 -0.72819043793E+02  0.53956861504E+02  0.16554390016E+03  0.12509615780E+03 0.  0.
         24    2    1    2    0    0 -0.27959735388E+01  0.37457680657E+02  0.18306539172E+03  0.20344813943E+03  0.80419602590E+02 0.  0.
        -13    1    5    5    0    0  0.15732813480E+02  0.22240653017E+02  0.10454332260E+02  0.29179806881E+02  0.00000000000E+00 0.  1.
         14    1    5    5    0    0 -0.18528787019E+02  0.15217027640E+02  0.17261105946E+03  0.17426833255E+03  0.00000000000E+00 0. -1.
         13    1    3    3    0    0 -0.15684071116E+02 -0.11565440168E+02 -0.51981686039E+02  0.55514369100E+02  0.00000000000E+00 0. -1.
        -14    1    3    3    0    0  0.77992884800E+02  0.46926803304E+02 -0.14381856988E+03  0.17020222087E+03  0.00000000000E+00 0.  1.
          5    1    4    4  501    0  0.47095967431E+01 -0.48808296087E+02 -0.29559151493E+02  0.57407716427E+02  0.41800000000E+01 0.  1.
         -5    1    4    4    0  501 -0.64222436888E+02 -0.24010747706E+02  0.83516012997E+02  0.10813618373E+03  0.41800000000E+01 0.  1.
</event>
<event>
11    1  0.6930157E-009  0.1389426E+03  0.7561462E-02  0.1108745E+00
         22   -1    0    0    0    0  0.00000000000E+00  0.00000000000E+00  0.16836001025E+03  0.16836001025E+03  0.00000000000E+00 0.  1.
         22   -1    0    0    0    0 -0.00000000000E+00 -0.00000000000E+00 -0.28457812331E+04  0.28457812331E+04  0.00000000000E+00 0.  1.
        -24    2    1    2    0    0  0.49062416098E+02 -0.25450937777E+02 -0.26652553976E+04  0.26667940944E+04  0.71760274924E+02 0.  0.
         25    2    1    2    0    0 -0.65127412622E+02 -0.33850076039E+02 -0.12834155232E+03  0.19366599488E+03  0.12509019145E+03 0.  0.
         24    2    1    2    0    0  0.16064996524E+02  0.59301013816E+02  0.11617572702E+03  0.15368115404E+03  0.79664315747E+02 0.  0.
        -11    1    5    5    0    0  0.32196928352E+02  0.62773357577E+02  0.11757895476E+03  0.13712019260E+03  0.00000000000E+00 0.  1.
         12    1    5    5    0    0 -0.16131931827E+02 -0.34723437611E+01 -0.14032277320E+01  0.16560961438E+02  0.00000000000E+00 0. -1.
         11    1    3    3    0    0  0.12626088414E+02  0.24056164512E+02 -0.58473551535E+03  0.58536632981E+03  0.00000000000E+00 0. -1.
        -12    1    3    3    0    0  0.36436327684E+02 -0.49507102289E+02 -0.20805198822E+04  0.20814277646E+04  0.00000000000E+00 0.  1.
          5    1    4    4  501    0 -0.44229183530E+02 -0.72335322496E+02 -0.37641177986E+02  0.92859841894E+02  0.41800000000E+01 0. -1.
         -5    1    4    4    0  501 -0.20898229092E+02  0.38485246458E+02 -0.90700374337E+02  0.10080615298E+03  0.41800000000E+01 0. -1.
</event>
<event>
11    1  0.6930157E-009  0.1716029E+03  0.7561462E-02  0.1076645E+00
         22   -1    0    0    0    0  0.00000000000E+00  0.00000000000E+00  0.13350928146E+04  0.13350928146E+04  0.00000000000E+00 0.  1.
         22   -1    0    0    0    0 -0.00000000000E+00 -0.00000000000E+00 -0.98862014514E+02  0.98862014514E+02  0.00000000000E+00 0. -1.
        -24    2    1    2    0    0 -0.47225521680E+02  0.52231591132E+02 -0.27440311514E+02  0.10990671406E+03  0.79800539407E+02 0.  0.
         25    2    1    2    0    0  0.44160035630E+02  0.74275680167E+02  0.20712873264E+03  0.25693527082E+03  0.12508571500E+03 0.  0.
         24    2    1    2    0    0  0.30654860498E+01 -0.12650727130E+03  0.10565423790E+04  0.10671128443E+04  0.80215565093E+02 0.  0.
        -11    1    5    5    0    0  0.32184484504E+02 -0.11333972753E+03  0.81984025222E+03  0.82826310677E+03  0.00000000000E+00 0.  1.
         12    1    5    5    0    0 -0.29118998454E+02 -0.13167543769E+02  0.23670212677E+03  0.23884973749E+03  0.00000000000E+00 0. -1.
         13    1    3    3    0    0 -0.62902721941E+02  0.40128980847E+02  0.17480335670E+01  0.74633391674E+02  0.00000000000E+00 0. -1.
        -14    1    3    3    0    0  0.15677200261E+02  0.12102610285E+02 -0.29188345081E+02  0.35273322388E+02  0.00000000000E+00 0.  1.
          5    1    4    4  501    0  0.36642121603E+02  0.96145094027E+02  0.20937503719E+03  0.23332788685E+03  0.41800000000E+01 0.  1.
         -5    1    4    4    0  501  0.75179140269E+01 -0.21869413860E+02 -0.22463045570E+01  0.23607383974E+02  0.41800000000E+01 0.  1.
</event>
<event>
11    1  0.6930157E-009  0.1372792E+03  0.7561462E-02  0.1110635E+00
         22   -1    0    0    0    0  0.00000000000E+00  0.00000000000E+00  0.77548447527E+03  0.77548447527E+03  0.00000000000E+00 0.  1.
         22   -1    0    0    0    0 -0.00000000000E+00 -0.00000000000E+00 -0.80580445010E+02  0.80580445010E+02  0.00000000000E+00 0. -1.
        -24    2    1    2    0    0 -0.12487450711E+02  0.48047478694E+02 -0.39392820209E+01  0.95745866476E+02  0.81775646559E+02 0.  0.
         25    2    1    2    0    0 -0.44939113285E+02 -0.51385753947E+02  0.16759315036E+03  0.21998817010E+03  0.12508921346E+03 0.  0.
         24    2    1    2    0    0  0.57426563996E+02  0.33382752529E+01  0.53125016192E+03  0.54033088371E+03  0.80135978270E+02 0.  0.
        -13    1    5    5    0    0  0.49907524604E+02  0.36255526136E+02  0.40376857523E+03  0.40845353044E+03  0.00000000000E+00 0.  1.
         14    1    5    5    0    0  0.75190393925E+01 -0.32917250883E+02  0.12748158670E+03  0.13187735327E+03  0.00000000000E+00 0. -1.
         11    1    3    3    0    0 -0.62243911098E+01  0.31076295971E+02 -0.42579894038E+02  0.53080378600E+02  0.00000000000E+00 0. -1.
        -12    1    3    3    0    0 -0.62630596012E+01  0.16971182724E+02  0.38640612018E+02  0.42665487876E+02  0.00000000000E+00 0.  1.
          5    1    4    4  501    0 -0.37025475331E+02 -0.88023936270E+02  0.80091905423E+02  0.12470479098E+03  0.41800000000E+01 0. -1.
         -5    1    4    4    0  501 -0.79136379546E+01  0.36638182323E+02  0.87501244938E+02  0.95283379114E+02  0.41800000000E+01 0. -1.
</event>
<event>
11    1  0.6930157E-009  0.1530378E+03  0.7561462E-02  0.1093815E+00
         22   -1    0    0    0    0  0.00000000000E+00  0.00000000000E+00  0.10753203562E+04  0.10753203562E+04  0.00000000000E+00 0.  1.
         22   -1    0    0    0    0 -0.00000000000E+00 -0.00000000000E+00 -0.29574245888E+03  0.29574245888E+03  0.00000000000E+00 0. -1.
         24    2    1    2    0    0  0.52471038083E+02 -0.68024274859E+02 -0.22174825223E+03  0.25139453499E+03  0.81525536176E+02 0.  0.
         25    2    1    2    0    0 -0.38716617026E+02  0.10425226618E+03  0.65942084783E+02  0.17989847783E+03  0.12509033674E+03 0.  0.
        -24    2    1    2    0    0 -0.13754421056E+02 -0.36227991318E+02  0.93538406477E+03  0.93976980226E+03  0.81989518555E+02 0.  0.
        -13    1    3    3    0    0  0.37374675442E+02 -0.40928355441E+01 -0.28188087147E+02  0.46991338821E+02  0.00000000000E+00 0.  1.
         14    1    3    3    0    0  0.15096362641E+02 -0.63931439315E+02 -0.19356016508E+03  0.20440319617E+03  0.00000000000E+00 0. -1.
         11    1    5    5    0    0  0.20346436473E+02 -0.43031184284E+02  0.33320939042E+03  0.33659197578E+03  0.00000000000E+00 0. -1.
        -12    1    5    5    0    0 -0.34100857530E+02  0.68031929665E+01  0.60217467435E+03  0.60317782647E+03  0.00000000000E+00 0.  1.
          5    1    4    4  501    0 -0.59340617896E+02  0.12460730382E+03  0.55488500861E+02  0.14881107225E+03  0.41800000000E+01 0.  1.
         -5    1    4    4    0  501  0.20624000870E+02 -0.20355037638E+02  0.10453583922E+02  0.31087405584E+02  0.41800000000E+01 0.  1.
</event>
<event>
11    1  0.6930157E-009  0.1744997E+03  0.7561462E-02  0.1074181E+00
         22   -1    0    0    0    0  0.00000000000E+00  0.00000000000E+00  0.15124521965E+03  0.15124521965E+03  0.00000000000E+00 0. -1.
         22   -1    0    0    0    0 -0.00000000000E+00 -0.00000000000E+00 -0.14852977067E+04  0.14852977067E+04  0.00000000000E+00 0.  1.
         24    2    1    2    0    0  0.90091582454E+02  0.81594008747E+02 -0.13387893702E+04  0.13468136798E+04  0.82316675220E+02 0.  0.
         25    2    1    2    0    0 -0.13255722542E+03 -0.38674431228E+02  0.22427667364E+02  0.18766312965E+03  0.12508924943E+03 0.  0.
        -24    2    1    2    0    0  0.42465642967E+02 -0.42919577519E+02 -0.17690784230E+02  0.10206611685E+03  0.80368572180E+02 0.  0.
        -11    1    3    3    0    0  0.88401807027E+01  0.62778730820E+02 -0.57821124442E+03  0.58167650890E+03  0.00000000000E+00 0.  1.
         12    1    3    3    0    0  0.81251401751E+02  0.18815277927E+02 -0.76057812574E+03  0.76513717092E+03  0.00000000000E+00 0. -1.
         11    1    5    5    0    0  0.62515638958E+02 -0.31297310731E+02  0.43981545771E+01  0.70050485629E+02  0.00000000000E+00 0. -1.
        -12    1    5    5    0    0 -0.20049995990E+02 -0.11622266788E+02 -0.22088938808E+02  0.32015631216E+02  0.00000000000E+00 0.  1.
          5    1    4    4  501    0 -0.74411265652E+02 -0.67180145250E+02 -0.29463925321E+02  0.10457439298E+03  0.41800000000E+01 0.  1.
         -5    1    4    4    0  501 -0.58145959769E+02  0.28505714022E+02  0.51891592685E+02  0.83088736665E+02  0.41800000000E+01 0.  1.
</event>
<event>
11    1  0.6930157E-009  0.1678730E+03  0.7561462E-02  0.1079898E+00
         22   -1    0    0    0    0  0.00000000000E+00  0.00000000000E+00  0.68479159623E+03  0.68479159623E+03  0.00000000000E+00 0.  1.
         22   -1    0    0    0    0 -0.00000000000E+00 -0.00000000000E+00 -0.11013671662E+03  0.11013671662E+03  0.00000000000E+00 0.  1.
         24    2    1    2    0    0 -0.65827329504E+02  0.14610668045E+02 -0.25451735313E+02  0.10567794884E+03  0.77287315331E+02 0.  0.
         25    2    1    2    0    0  0.16020492009E+03 -0.10561770569E+01  0.28042521116E+03  0.34634161625E+03  0.12508990430E+03 0.  0.
        -24    2    1    2    0    0 -0.94377590584E+02 -0.13554490988E+02  0.31968140376E+03  0.34290874775E+03  0.79368479560E+02 0.  0.
        -13    1    3    3    0    0 -0.34491648566E+02  0.25313781968E+02 -0.48996801487E+02  0.65047274611E+02  0.00000000000E+00 0.  1.
         14    1    3    3    0    0 -0.31335680938E+02 -0.10703113923E+02  0.23545066174E+02  0.40630674233E+02  0.00000000000E+00 0. -1.
         13    1    5    5    0    0  0.12906247747E+02 -0.93133929611E+01  0.55665649386E+02  0.57896243755E+02  0.00000000000E+00 0. -1.
        -14    1    5    5    0    0 -0.10728383833E+03 -0.42410980272E+01  0.26401575437E+03  0.28501250400E+03  0.00000000000E+00 0.  1.
          5    1    4    4  501    0  0.85666316166E+02 -0.62714768782E+02  0.13939384202E+03  0.17527114863E+03  0.41800000000E+01 0.  1.
         -5    1    4    4    0  501  0.74538603922E+02  0.61658591726E+02  0.14103136914E+03  0.17107046762E+03  0.41800000000E+01 0.  1.
</event>
<event>
11    1  0.1345857E-008  0.1447194E+03  0.7561462E-02  0.1102400E+00
         22   -1    0    0    0    0  0.00000000000E+00  0.00000000000E+00  0.28500893569E+03  0.28500893569E+03  0.00000000000E+00 0.  1.
         22   -1    0    0    0    0 -0.00000000000E+00 -0.00000000000E+00 -0.78128320440E+03  0.78128320440E+03  0.00000000000E+00 0.  1.
        -24    2    1    2    0    0 -0.10016636155E+02 -0.69843411361E+02 -0.58559800313E+03  0.59526377410E+03  0.80221595410E+02 0.  0.
         25    2    1    2    0    0  0.81056802010E+02  0.52812193405E+02 -0.14389826241E+03  0.21380692056E+03  0.12508939377E+03 0.  0.
         24    2    1    2    0    0 -0.71040165855E+02  0.17031217956E+02  0.23322199683E+03  0.25722144543E+03  0.80209753988E+02 0.  0.
        -11    1    5    5    0    0 -0.81259530587E+02  0.33882766515E+02  0.20122273762E+03  0.21964003122E+03  0.00000000000E+00 0.  1.
         12    1    5    5    0    0  0.10219364732E+02 -0.16851548558E+02  0.31999259208E+02  0.37581414213E+02  0.00000000000E+00 0. -1.
         11    1    3    3    0    0  0.26415186449E+02  0.17843800854E+01 -0.14476348951E+03  0.14716458127E+03  0.00000000000E+00 0. -1.
        -12    1    3    3    0    0 -0.36431822604E+02 -0.71627791446E+02 -0.44083451362E+03  0.44809919282E+03  0.00000000000E+00 0.  1.
          5    1    4    4  501    0  0.33101266680E+02 -0.23019284957E+02  0.40411875677E+01  0.40735548760E+02  0.41800000000E+01 0.  1.
         -5    1    4    4    0  501  0.47955535330E+02  0.75831478362E+02 -0.14793944997E+03  0.17307137180E+03  0.41800000000E+01 0.  1.
</event>
<event>
11    1  0.6930157E-009  0.2576162E+03  0.7561462E-02  0.1019918E+00
         22   -1    0    0    0    0  0.00000000000E+00  0.00000000000E+00  0.62441099304E+03  0.62441099304E+03  0.00000000000E+00 0.  1.
         22   -1    0    0    0    0 -0.00000000000E+00 -0.00000000000E+00 -0.15014600827E+04  0.15014600827E+04  0.00000000000E+00 0. -1.
         24    2    1    2    0    0 -0.10535580014E+03  0.19656950098E+03 -0.13972353300E+04  0.14172215604E+04  0.80690584677E+02 0.  0.
         25    2    1    2    0    0  0.17502805339E+03 -0.23800740592E+03  0.22502235162E+03  0.39187462022E+03  0.12509322323E+03 0.  0.
        -24    2    1    2    0    0 -0.69672253254E+02  0.41437904935E+02  0.29516388875E+03  0.31677489510E+03  0.81567702583E+02 0.  0.
        -13    1    3    3    0    0 -0.71118514258E+02  0.18619606774E+03 -0.12439640094E+04  0.12598306535E+04  0.00000000000E+00 0.  1.
         14    1    3    3    0    0 -0.34237285882E+02  0.10373433240E+02 -0.15327132062E+03  0.15739090694E+03  0.00000000000E+00 0. -1.
         13    1    5    5    0    0 -0.54621308586E+02  0.33137121158E+02  0.87184716161E+02  0.10808668226E+03  0.00000000000E+00 0. -1.
        -14    1    5    5    0    0 -0.15050944668E+02  0.83007837778E+01  0.20797917259E+03  0.20868821284E+03  0.00000000000E+00 0.  1.
          5    1    4    4  501    0  0.19137554140E+03 -0.22519719395E+03  0.19135823654E+03  0.35209916373E+03  0.41800000000E+01 0.  1.
         -5    1    4    4    0  501 -0.16347488004E+02 -0.12810211963E+02  0.33664115085E+02  0.39775456491E+02  0.41800000000E+01 0.  1.
</event>
<event>
11    1  0.6930157E-009  0.1663980E+03  0.7561462E-02  0.1081209E+00
         22   -1    0    0    0    0  0.00000000000E+00  0.00000000000E+00  0.79863156294E+03  0.79863156294E+03  0.00000000000E+00 0. -1.
         22   -1    0    0    0    0 -0.00000000000E+00 -0.00000000000E+00 -0.12446984278E+04  0.12446984278E+04  0.00000000000E+00 0. -1.
        -24    2    1    2    0    0  0.13537266091E+02  0.39812726020E+02 -0.12026872670E+04  0.12061465485E+04  0.81021747922E+02 0.  0.
         25    2    1    2    0    0  0.83394376570E+02  0.24716264363E+02  0.14927361800E+03  0.21329737136E+03  0.12509052655E+03 0.  0.
         24    2    1    2    0    0 -0.96931642661E+02 -0.64528990384E+02  0.60734678414E+03  0.62388607083E+03  0.82486236613E+02 0.  0.
        -11    1    5    5    0    0 -0.30829908825E+02 -0.50812600412E+02  0.14612250216E+03  0.15774723223E+03  0.00000000000E+00 0.  1.
         12    1    5    5    0    0 -0.66101733836E+02 -0.13716389972E+02  0.46122428198E+03  0.46613883860E+03  0.00000000000E+00 0. -1.
         13    1    3    3    0    0  0.16395266236E+02  0.58505566424E+02 -0.11035807585E+04  0.11052520964E+04  0.00000000000E+00 0. -1.
        -14    1    3    3    0    0 -0.28580001449E+01 -0.18692840404E+02 -0.99106508477E+02  0.10089445212E+03  0.00000000000E+00 0.  1.
          5    1    4    4  501    0  0.10715140540E+03  0.23032835925E+02  0.69275687669E+02  0.12972481841E+03  0.41800000000E+01 0. -1.
         -5    1    4    4    0  501 -0.23757028827E+02  0.16834284383E+01  0.79997930332E+02  0.83572552955E+02  0.41800000000E+01 0. -1.
</event>
<event>
11    1  0.6930157E-009  0.1476344E+03  0.7561462E-02  0.1099321E+00
         22   -1    0    0    0    0  0.00000000000E+00  0.00000000000E+00  0.38722305708E+03  0.38722305708E+03  0.00000000000E+00 0.  1.
         22   -1    0    0    0    0 -0.00000000000E+00 -0.00000000000E+00 -0.17538516680E+04  0.17538516680E+04  0.00000000000E+00 0.  1.
         24    2    1    2    0    0 -0.14505104340E+02 -0.15729548701E+02 -0.16676171038E+04  0.16700198172E+04  0.86957278510E+02 0.  0.
         25    2    1    2    0    0 -0.55349902208E+02 -0.24722158447E+02 -0.11359988371E+02  0.13946704123E+03  0.12508880629E+03 0.  0.
        -24    2    1    2    0    0  0.69855006549E+02  0.40451707148E+02  0.31234848127E+03  0.33158786661E+03  0.76634698250E+02 0.  0.
        -13    1    3    3    0    0 -0.33022842148E+02  0.88055067914E+01 -0.14317887094E+04  0.14321965484E+04  0.00000000000E+00 0.  1.
         14    1    3    3    0    0  0.18517737808E+02 -0.24535055493E+02 -0.23582839443E+03  0.23782326880E+03  0.00000000000E+00 0. -1.
         11    1    5    5    0    0 -0.23684503425E+01 -0.10726646789E+02  0.11223028704E+03  0.11276660782E+03  0.00000000000E+00 0. -1.
        -12    1    5    5    0    0  0.72223456891E+02  0.51178353937E+02  0.20011819423E+03  0.21882125879E+03  0.00000000000E+00 0.  1.
          5    1    4    4  501    0 -0.91491519185E+02  0.30525264088E+01  0.24056984077E+01  0.91669383030E+02  0.41800000000E+01 0. -1.
         -5    1    4    4    0  501  0.36141616977E+02 -0.27774684855E+02 -0.13765686779E+02  0.47797658196E+02  0.41800000000E+01 0. -1.
</event>
<event>
11    1  0.6930157E-009  0.2085846E+03  0.7561462E-02  0.1048614E+00
         22   -1    0    0    0    0  0.00000000000E+00  0.00000000000E+00  0.55580298195E+03  0.55580298195E+03  0.00000000000E+00 0. -1.
         22   -1    0    0    0    0 -0.00000000000E+00 -0.00000000000E+00 -0.10217188327E+04  0.10217188327E+04  0.00000000000E+00 0.  1.
         24    2    1    2    0    0  0.15588373075E+03  0.72726708704E+02 -0.51303283423E+03  0.54716973501E+03  0.81259573260E+02 0.  0.
         25    2    1    2    0    0 -0.15387121766E+03 -0.48477728451E+02 -0.46671913452E+03  0.50941226385E+03  0.12509061615E+03 0.  0.
        -24    2    1    2    0    0 -0.20125130955E+01 -0.24248980252E+02  0.51383611799E+03  0.52093981581E+03  0.82211144575E+02 0.  0.
        -13    1    3    3    0    0  0.50536912886E+02  0.66252182440E+02 -0.25932008774E+03  0.27237885224E+03  0.00000000000E+00 0.  1.
         14    1    3    3    0    0  0.10534681787E+03  0.64745262640E+01 -0.25371274649E+03  0.27479088277E+03  0.00000000000E+00 0. -1.
         11    1    5    5    0    0  0.13876674053E+02  0.25106741821E+02  0.27772187061E+03  0.27919947704E+03  0.00000000000E+00 0. -1.
        -12    1    5    5    0    0 -0.15889187149E+02 -0.49355722074E+02  0.23611424738E+03  0.24174033877E+03  0.00000000000E+00 0.  1.
          5    1    4    4  501    0 -0.10364497731E+03 -0.90919988221E+02 -0.32886167522E+03  0.35661772167E+03  0.41800000000E+01 0.  1.
         -5    1    4    4    0  501 -0.50226240344E+02  0.42442259770E+02 -0.13785745931E+03  0.15279454218E+03  0.41800000000E+01 0.  1.
</event>
<event>
11    1  0.6930157E-009  0.1350088E+03  0.7561462E-02  0.1113263E+00
         22   -1    0    0    0    0  0.00000000000E+00  0.00000000000E+00  0.39857211692E+03  0.39857211692E+03  0.00000000000E+00 0.  1.
         22   -1    0    0    0    0 -0.00000000000E+00 -0.00000000000E+00 -0.10801643009E+04  0.10801643009E+04  0.00000000000E+00 0. -1.
        -24    2    1    2    0    0 -0.43464987696E+01 -0.50810162289E+02 -0.10096908453E+04  0.10141948573E+04  0.80715803096E+02 0.  0.
         25    2    1    2    0    0 -0.37611907382E+02  0.46751069845E+02  0.16285235938E+02  0.13968805316E+03  0.12508886912E+03 0.  0.
         24    2    1    2    0    0  0.41958406151E+02  0.40590924443E+01  0.31181342538E+03  0.32485350735E+03  0.80778740475E+02 0.  0.
        -13    1    5    5    0    0  0.43740204160E+02 -0.32424835756E+02  0.19537946876E+03  0.20282433840E+03  0.00000000000E+00 0.  1.
         14    1    5    5    0    0 -0.17817980090E+01  0.36483928200E+02  0.11643395661E+03  0.12202916895E+03  0.00000000000E+00 0. -1.
         13    1    3    3    0    0 -0.28236496498E+02 -0.33550394863E+02 -0.88431125306E+03  0.88539783206E+03  0.00000000000E+00 0. -1.
        -14    1    3    3    0    0  0.23889997728E+02 -0.17259767427E+02 -0.12537959227E+03  0.12879702528E+03  0.00000000000E+00 0.  1.
          5    1    4    4  501    0 -0.28964641426E+02  0.65457008875E+02  0.58492193816E+02  0.92533127048E+02  0.41800000000E+01 0. -1.
         -5    1    4    4    0  501 -0.86472659559E+01 -0.18705939030E+02 -0.42206957877E+02  0.47154926114E+02  0.41800000000E+01 0. -1.
</event>
<event>
11    1  0.6930157E-009  0.1506277E+03  0.7561462E-02  0.1096239E+00
         22   -1    0    0    0    0  0.00000000000E+00  0.00000000000E+00  0.16433693255E+03  0.16433693255E+03  0.00000000000E+00 0. -1.
         22   -1    0    0    0    0 -0.00000000000E+00 -0.00000000000E+00 -0.12968340642E+04  0.12968340642E+04  0.00000000000E+00 0. -1.
         24    2    1    2    0    0  0.52310909777E+01 -0.26574093751E+02 -0.71912139031E+03  0.72400964617E+03  0.79503754527E+02 0.  0.
         25    2    1    2    0    0 -0.62071207534E+02  0.87081739779E+02 -0.54069158460E+03  0.56518240710E+03  0.12509076478E+03 0.  0.
        -24    2    1    2    0    0  0.56840116556E+02 -0.60507646029E+02  0.12731584327E+03  0.17197894347E+03  0.80470236551E+02 0.  0.
        -13    1    3    3    0    0  0.63760620158E+01  0.28297007716E+02 -0.23203815882E+03  0.23384414032E+03  0.00000000000E+00 0.  1.
         14    1    3    3    0    0 -0.11449710381E+01 -0.54871101466E+02 -0.48708323148E+03  0.49016550585E+03  0.00000000000E+00 0. -1.
         13    1    5    5    0    0  0.63161240238E+02 -0.24930058234E+02  0.11546307010E+03  0.13394988103E+03  0.00000000000E+00 0. -1.
        -14    1    5    5    0    0 -0.63211236814E+01 -0.35577587795E+02  0.11852773171E+02  0.38029062436E+02  0.00000000000E+00 0.  1.
          5    1    4    4  501    0  0.23782649460E+02  0.32436836891E+02 -0.51392186906E+02  0.65394128772E+02  0.41800000000E+01 0. -1.
         -5    1    4    4    0  501 -0.85853856993E+02  0.54644902888E+02 -0.48929939770E+03  0.49978827833E+03  0.41800000000E+01 0. -1.
</event>
<event>
11    1  0.6930157E-009  0.1405921E+03  0.7561462E-02  0.1106899E+00
         22   -1    0    0    0    0  0.00000000000E+00  0.00000000000E+00  0.11353384448E+04  0.11353384448E+04  0.00000000000E+00 0.  1.
         22   -1    0    0    0    0 -0.00000000000E+00 -0.00000000000E+00 -0.26316298099E+03  0.26316298099E+03  0.00000000000E+00 0. -1.
        -24    2    1    2    0    0  0.40641552062E+02 -0.50152732730E+02 -0.22542870469E+03  0.24801270280E+03  0.80778508870E+02 0.  0.
         25    2    1    2    0    0 -0.15066663268E+01  0.70764129057E+02  0.19047546795E+03  0.23862235500E+03  0.12509953002E+03 0.  0.
         24    2    1    2    0    0 -0.39134885735E+02 -0.20611396327E+02  0.90712870060E+03  0.91186636804E+03  0.81617551919E+02 0.  0.
        -13    1    5    5    0    0 -0.42074331511E+02 -0.11096071499E+01  0.85647710597E+03  0.85751064929E+03  0.00000000000E+00 0.  1.
         14    1    5    5    0    0  0.29394457761E+01 -0.19501789177E+02  0.50651594627E+02  0.54355718750E+02  0.00000000000E+00 0. -1.
         11    1    3    3    0    0 -0.15120346734E+02 -0.36876493766E+02 -0.13659613463E+03  0.14229196982E+03  0.00000000000E+00 0. -1.
        -12    1    3    3    0    0  0.55761898796E+02 -0.13276238965E+02 -0.88832570056E+02  0.10572073298E+03  0.00000000000E+00 0.  1.
          5    1    4    4  501    0  0.45071180702E+02  0.21268425720E+02  0.15285163313E+03  0.16082553097E+03  0.41800000000E+01 0.  1.
         -5    1    4    4    0  501 -0.46577847029E+02  0.49495703337E+02  0.37623834822E+02  0.77796824032E+02  0.41800000000E+01 0.  1.
</event>
<event>
11    1  0.6930157E-009  0.1419969E+03  0.7561462E-02  0.1105349E+00
         22   -1    0    0    0    0  0.00000000000E+00  0.00000000000E+00  0.12177473008E+04  0.12177473008E+04  0.00000000000E+00 0. -1.
         22   -1    0    0    0    0 -0.00000000000E+00 -0.00000000000E+00 -0.21072389656E+03  0.21072389656E+03  0.00000000000E+00 0.  1.
         24    2    1    2    0    0  0.23719701018E+02  0.43225439844E+02 -0.17877864656E+03  0.20349453072E+03  0.83768470813E+02 0.  0.
         25    2    1    2    0    0 -0.76309339519E+02  0.26506661163E+00  0.31074255434E+03  0.34355705191E+03  0.12508927725E+03 0.  0.
        -24    2    1    2    0    0  0.52589638500E+02 -0.43490506456E+02  0.87505949641E+03  0.88141961468E+03  0.80711341593E+02 0.  0.
        -13    1    3    3    0    0 -0.95714750868E+01  0.49397865465E+02 -0.15264276261E+03  0.16072204337E+03  0.00000000000E+00 0.  1.
         14    1    3    3    0    0  0.33291176105E+02 -0.61724256206E+01 -0.26135883948E+02  0.42772487352E+02  0.00000000000E+00 0. -1.
         11    1    5    5    0    0 -0.18906842951E+02 -0.67625046463E+01  0.31280522381E+03  0.31344905204E+03  0.00000000000E+00 0. -1.
        -12    1    5    5    0    0  0.71496481451E+02 -0.36728001810E+02  0.56225427260E+03  0.56797056264E+03  0.00000000000E+00 0.  1.
          5    1    4    4  501    0  0.68561796178E+00 -0.86726796580E+01 -0.97967033143E+01  0.13752572133E+02  0.41800000000E+01 0.  1.
         -5    1    4    4    0  501 -0.76994957480E+02  0.89377462697E+01  0.32053925765E+03  0.32980447978E+03  0.41800000000E+01 0.  1.
</event>
<event>
11    1  0.6930157E-009  0.1489488E+03  0.7561462E-02  0.1097958E+00
         22   -1    0    0    0    0  0.00000000000E+00  0.00000000000E+00  0.13914324301E+04  0.13914324301E+04  0.00000000000E+00 0.  1.
         22   -1    0    0    0    0 -0.00000000000E+00 -0.00000000000E+00 -0.31304790314E+03  0.31304790314E+03  0.00000000000E+00 0. -1.
         24    2    1    2    0    0  0.10727387480E+02  0.62445481640E+01 -0.28310647604E+03  0.29214078526E+03  0.71013311503E+02 0.  0.
         25    2    1    2    0    0  0.35470711337E+02 -0.72728026319E+02  0.22345626495E+03  0.26856632654E+03  0.12509049617E+03 0.  0.
        -24    2    1    2    0    0 -0.46198098817E+02  0.66483478155E+02  0.11380347381E+04  0.11437732215E+04  0.80869029032E+02 0.  0.
        -13    1    3    3    0    0 -0.24940602795E+02  0.12160724737E+01 -0.46242824011E+02  0.52553889224E+02  0.00000000000E+00 0.  1.
         14    1    3    3    0    0  0.35667990275E+02  0.50284756903E+01 -0.23686365203E+03  0.23958689604E+03  0.00000000000E+00 0. -1.
         11    1    5    5    0    0 -0.13017793725E+02 -0.13843535721E+02  0.82216272517E+02  0.84383777477E+02  0.00000000000E+00 0. -1.
        -12    1    5    5    0    0 -0.33180305092E+02  0.80327013876E+02  0.10558184656E+04  0.10593894440E+04  0.00000000000E+00 0.  1.
          5    1    4    4  501    0  0.60284861439E+02 -0.96018299662E+02  0.15594947244E+03  0.19285094955E+03  0.41800000000E+01 0.  1.
         -5    1    4    4    0  501 -0.24814150102E+02  0.23290273344E+02  0.67506792514E+02  0.75715376993E+02  0.41800000000E+01 0.  1.
</event>
<event>
11    1  0.1250939E-008  0.1444684E+03  0.7561462E-02  0.1102669E+00
         22   -1    0    0    0    0  0.00000000000E+00  0.00000000000E+00  0.10146492287E+04  0.10146492287E+04  0.00000000000E+00 0.  1.
         22   -1    0    0    0    0 -0.00000000000E+00 -0.00000000000E+00 -0.65940329396E+03  0.65940329396E+03  0.00000000000E+00 0.  1.
         24    2    1    2    0    0 -0.50658005770E+01 -0.85515632397E+02 -0.52349341385E+03  0.53652493999E+03  0.80467826908E+02 0.  0.
         25    2    1    2    0    0 -0.25594043816E+02  0.64666036105E+01 -0.93522015485E+02  0.15839248342E+03  0.12507973210E+03 0.  0.
        -24    2    1    2    0    0  0.30659844393E+02  0.79049028787E+02  0.97226136410E+03  0.97913509927E+03  0.78896181770E+02 0.  0.
        -11    1    3    3    0    0 -0.61306103456E+01 -0.97285170327E+02 -0.50669428386E+03  0.51598554829E+03  0.00000000000E+00 0.  1.
         12    1    3    3    0    0  0.10648097686E+01  0.11769537929E+02 -0.16799129984E+02  0.20539391694E+02  0.00000000000E+00 0. -1.
         13    1    5    5    0    0 -0.14732437074E+02  0.67244047326E+02  0.56085658729E+03  0.56506541047E+03  0.00000000000E+00 0. -1.
        -14    1    5    5    0    0  0.45392281467E+02  0.11804981461E+02  0.41140477681E+03  0.41406968880E+03  0.00000000000E+00 0.  1.
          5    1    4    4  501    0  0.13980785364E+02 -0.34937027516E+02  0.10744629432E+02  0.39357054167E+02  0.41800000000E+01 0.  1.
         -5    1    4    4    0  501 -0.39574829180E+02  0.41403631127E+02 -0.10426664492E+03  0.11903542925E+03  0.41800000000E+01 0.  1.
</event>
<event>
11    1  0.6930157E-009  0.1406958E+03  0.7561462E-02  0.1106784E+00
         22   -1    0    0    0    0  0.00000000000E+00  0.00000000000E+00  0.71432609219E+03  0.71432609219E+03  0.00000000000E+00 0.  1.
         22   -1    0    0    0    0 -0.00000000000E+00 -0.00000000000E+00 -0.13451676190E+04  0.13451676190E+04  0.00000000000E+00 0.  1.
        -24    2    1    2    0    0 -0.39599185837E+02 -0.51025793873E+02 -0.12973999459E+04  0.13014112824E+04  0.79075781620E+02 0.  0.
         25    2    1    2    0    0  0.44728475310E+02  0.33648097972E+02  0.65709832497E+02  0.15198295688E+03  0.12509278994E+03 0.  0.
         24    2    1    2    0    0 -0.51292894731E+01  0.17377695902E+02  0.60084858662E+03  0.60609947186E+03  0.77519364161E+02 0.  0.
        -11    1    5    5    0    0 -0.35406529420E+02  0.28501223428E+02  0.28413083967E+03  0.28774342063E+03  0.00000000000E+00 0.  1.
         12    1    5    5    0    0  0.30277239947E+02 -0.11123527526E+02  0.31671774695E+03  0.31835605123E+03  0.00000000000E+00 0. -1.
         11    1    3    3    0    0 -0.45408809128E+01  0.13504390260E+02 -0.54109325035E+02  0.55953616608E+02  0.00000000000E+00 0. -1.
        -12    1    3    3    0    0 -0.35058304924E+02 -0.64530184133E+02 -0.12432906209E+04  0.12454576658E+04  0.00000000000E+00 0.  1.
          5    1    4    4  501    0 -0.41359163217E+02  0.24967246114E+02  0.11642883597E+02  0.49869558841E+02  0.41800000000E+01 0.  1.
         -5    1    4    4    0  501  0.86087638527E+02  0.86808518571E+01  0.54066948900E+02  0.10211339804E+03  0.41800000000E+01 0.  1.
</event>
<event>
11    1  0.6930157E-009  0.2053914E+03  0.7561462E-02  0.1050775E+00
         22   -1    0    0    0    0  0.00000000000E+00  0.00000000000E+00  0.11125801859E+04  0.11125801859E+04  0.00000000000E+00 0.  1.
         22   -1    0    0    0    0 -0.00000000000E+00 -0.00000000000E+00 -0.14084332087E+04  0.14084332087E+04  0.00000000000E+00 0. -1.
        -24    2    1    2    0    0  0.10249817098E+03  0.12633273486E+03 -0.13381752772E+04  0.13503981480E+04  0.79976563760E+02 0.  0.
         25    2    1    2    0    0 -0.14343983398E+03 -0.10198873924E+03  0.12728410126E+03  0.25064966617E+03  0.12508926338E+03 0.  0.
         24    2    1    2    0    0  0.40941663001E+02 -0.24343995619E+02  0.91503815311E+03  0.91996558040E+03  0.82298223433E+02 0.  0.
        -13    1    5    5    0    0  0.60122488140E+02 -0.14108240808E+01  0.73555981739E+03  0.73801419293E+03  0.00000000000E+00 0.  1.
         14    1    5    5    0    0 -0.19180825139E+02 -0.22933171538E+02  0.17947833572E+03  0.18195138747E+03  0.00000000000E+00 0. -1.
         11    1    3    3    0    0  0.11566148609E+03  0.11842381574E+03 -0.12469170206E+04  0.12578568424E+04  0.00000000000E+00 0. -1.
        -12    1    3    3    0    0 -0.13163315105E+02  0.79089191194E+01 -0.91258256542E+02  0.92541305660E+02  0.00000000000E+00 0.  1.
          5    1    4    4  501    0 -0.52607471617E+02 -0.10979210911E+03  0.52450679154E+02  0.13262880319E+03  0.41800000000E+01 0.  1.
         -5    1    4    4    0  501 -0.90832362367E+02  0.78033698634E+01  0.74833422110E+02  0.11802086298E+03  0.41800000000E+01 0.  1.
</event>
<event>
11    1  0.6930157E-009  0.1464474E+03  0.7561462E-02  0.1100565E+00
         22   -1    0    0    0    0  0.00000000000E+00  0.00000000000E+00  0.37564913276E+03  0.37564913276E+03  0.00000000000E+00 0.  1.
         22   -1    0    0    0    0 -0.00000000000E+00 -0.00000000000E+00 -0.75001720448E+03  0.75001720448E+03  0.00000000000E+00 0. -1.
        -24    2    1    2    0    0 -0.28401687015E+02 -0.71001653052E+02 -0.68899259647E+03  0.69694502792E+03  0.71928321244E+02 0.  0.
         25    2    1    2    0    0  0.27178469262E+02  0.62692640345E+02  0.48202767607E+02  0.15046419847E+03  0.12508769672E+03 0.  0.
         24    2    1    2    0    0  0.12232177531E+01  0.83090127076E+01  0.26642175714E+03  0.27825711086E+03  0.79849427757E+02 0.  0.
        -11    1    5    5    0    0 -0.44382666636E+01  0.13279123298E+02  0.26968425795E+03  0.27004746308E+03  0.00000000000E+00 0.  1.
         12    1    5    5    0    0  0.56614844167E+01 -0.49701105900E+01 -0.32625008176E+01  0.82096477794E+01  0.00000000000E+00 0. -1.
         11    1    3    3    0    0 -0.11215863970E+02 -0.64470348294E+02 -0.28022797793E+03  0.28776716461E+03  0.00000000000E+00 0. -1.
        -12    1    3    3    0    0 -0.17185823045E+02 -0.65313047584E+01 -0.40876461853E+03  0.40917786331E+03  0.00000000000E+00 0.  1.
          5    1    4    4  501    0  0.17739451026E+02 -0.26633554603E+02  0.51167297417E+02  0.60494620244E+02  0.41800000000E+01 0.  1.
         -5    1    4    4    0  501  0.94390182357E+01  0.89326194948E+02 -0.29645298094E+01  0.89969578226E+02  0.41800000000E+01 0.  1.
</event>
<event>
11    1  0.6930157E-009  0.1451583E+03  0.7561462E-02  0.1101931E+00
         22   -1    0    0    0    0  0.00000000000E+00  0.00000000000E+00  0.10213926079E+04  0.10213926079E+04  0.00000000000E+00 0.  1.
         22   -1    0    0    0    0 -0.00000000000E+00 -0.00000000000E+00 -0.11603213369E+04  0.11603213369E+04  0.00000000000E+00 0.  1.
         24    2    1    2    0    0  0.72691168378E+02  0.25088439283E+02 -0.10137691655E+04  0.10194951350E+04  0.75689984532E+02 0.  0.
         25    2    1    2    0    0 -0.48473330767E+02  0.40052049404E+02 -0.10606806963E+03  0.17564204732E+03  0.12508342390E+03 0.  0.
        -24    2    1    2    0    0 -0.24217837611E+02 -0.65140488687E+02  0.98090850616E+03  0.98657676238E+03  0.79513669828E+02 0.  0.
        -11    1    3    3    0    0  0.65204478513E+02 -0.10837996976E+02 -0.78751292376E+03  0.79028203275E+03  0.00000000000E+00 0.  1.
         12    1    3    3    0    0  0.74866898652E+01  0.35926436259E+02 -0.22625624172E+03  0.22921310230E+03  0.00000000000E+00 0. -1.
         11    1    5    5    0    0 -0.26145481728E+02  0.73903210121E+01  0.14487531798E+03  0.14740102042E+03  0.00000000000E+00 0. -1.
        -12    1    5    5    0    0  0.19276441174E+01 -0.72530809699E+02  0.83603318818E+03  0.83917574196E+03  0.00000000000E+00 0.  1.
          5    1    4    4  501    0 -0.31151514721E+02  0.24689700788E+02 -0.13358637066E+03  0.13943740180E+03  0.41800000000E+01 0.  1.
         -5    1    4    4    0  501 -0.17321816046E+02  0.15362348616E+02  0.27518301027E+02  0.36204645525E+02  0.41800000000E+01 0.  1.
</event>
<event>
11    1  0.6930157E-009  0.1303931E+03  0.7561462E-02  0.1118787E+00
         22   -1    0    0    0    0  0.00000000000E+00  0.00000000000E+00  0.47085104212E+03  0.47085104212E+03  0.00000000000E+00 0. -1.
         22   -1    0    0    0    0 -0.00000000000E+00 -0.00000000000E+00 -0.37171965754E+03  0.37171965754E+03  0.00000000000E+00 0. -1.
        -24    2    1    2    0    0  0.36491408977E+02  0.64854771931E+01 -0.31221360694E+03  0.32527151162E+03  0.83369872076E+02 0.  0.
         25    2    1    2    0    0 -0.36007773998E+02  0.14475647741E+02  0.40155117162E+02  0.13698985041E+03  0.12509069316E+03 0.  0.
         24    2    1    2    0    0 -0.48363497901E+00 -0.20961124935E+02  0.37118987435E+03  0.38030933764E+03  0.80085372035E+02 0.  0.
        -11    1    5    5    0    0  0.24419787286E+02  0.16196589800E+02  0.71064026417E+02  0.76868403020E+02  0.00000000000E+00 0.  1.
         12    1    5    5    0    0 -0.24903422265E+02 -0.37157714735E+02  0.30012584793E+03  0.30344093462E+03  0.00000000000E+00 0. -1.
         13    1    3    3    0    0  0.40398316192E+02  0.28394121172E+02 -0.96373073035E+02  0.10828674561E+03  0.00000000000E+00 0. -1.
        -14    1    3    3    0    0 -0.39069072153E+01 -0.21908643979E+02 -0.21584053390E+03  0.21698476601E+03  0.00000000000E+00 0.  1.
          5    1    4    4  501    0 -0.85619200607E+00 -0.43559294911E+02  0.52019995187E+02  0.67983068018E+02  0.41800000000E+01 0.  1.
         -5    1    4    4    0  501 -0.35151581992E+02  0.58034942652E+02 -0.11864878024E+02  0.69006782389E+02  0.41800000000E+01 0.  1.
</event>
<event>
11    1  0.6930157E-009  0.1510822E+03  0.7561462E-02  0.1095778E+00
         22   -1    0    0    0    0  0.00000000000E+00  0.00000000000E+00  0.19898448197E+04  0.19898448197E+04  0.00000000000E+00 0. -1.
         22   -1    0    0    0    0 -0.00000000000E+00 -0.00000000000E+00 -0.34590886684E+03  0.34590886684E+03  0.00000000000E+00 0.  1.
         24    2    1    2    0    0 -0.15648168273E+02  0.81847745097E+02 -0.30391757107E+03  0.32558725543E+03  0.81836742049E+02 0.  0.
         25    2    1    2    0    0  0.20697904793E+02 -0.11381860741E+03  0.20993662727E+03  0.27037690301E+03  0.12508878268E+03 0.  0.
        -24    2    1    2    0    0 -0.50497365196E+01  0.31970862314E+02  0.17379168966E+04  0.17397895281E+04  0.73924464878E+02 0.  0.
        -11    1    3    3    0    0 -0.21696217845E+02  0.91350756136E+02 -0.19868014117E+03  0.21974868603E+03  0.00000000000E+00 0.  1.
         12    1    3    3    0    0  0.60480495714E+01 -0.95030110392E+01 -0.10523742990E+03  0.10583856941E+03  0.00000000000E+00 0. -1.
         11    1    5    5    0    0  0.16554032990E+02  0.49075733185E+02  0.12768072836E+04  0.12778573094E+04  0.00000000000E+00 0. -1.
        -12    1    5    5    0    0 -0.21603769509E+02 -0.17104870872E+02  0.46110961301E+03  0.46193221870E+03  0.00000000000E+00 0.  1.
          5    1    4    4  501    0  0.65182282315E+02 -0.10335500609E+03  0.13191881368E+03  0.17986392916E+03  0.41800000000E+01 0.  1.
         -5    1    4    4    0  501 -0.44484377523E+02 -0.10463601322E+02  0.78017813597E+02  0.90512973847E+02  0.41800000000E+01 0.  1.
</event>
<event>
11    1  0.6930157E-009  0.1729183E+03  0.7561462E-02  0.1075520E+00
         22   -1    0    0    0    0  0.00000000000E+00  0.00000000000E+00  0.37858205707E+03  0.37858205707E+03  0.00000000000E+00 0. -1.
         22   -1    0    0    0    0 -0.00000000000E+00 -0.00000000000E+00 -0.20531559646E+04  0.20531559646E+04  0.00000000000E+00 0. -1.
         24    2    1    2    0    0 -0.11017845304E+03  0.65287724535E+02 -0.16255257612E+04  0.16324711890E+04  0.78907566793E+02 0.  0.
         25    2    1    2    0    0  0.99888570606E+02  0.17453600098E+02 -0.39962033001E+03  0.43084347613E+03  0.12508932037E+03 0.  0.
        -24    2    1    2    0    0  0.10289882436E+02 -0.82741324633E+02  0.35057218368E+03  0.36842335655E+03  0.76700099068E+02 0.  0.
        -11    1    3    3    0    0 -0.18728165363E+02  0.54385805169E+02 -0.54467826023E+03  0.54770700849E+03  0.00000000000E+00 0.  1.
         12    1    3    3    0    0 -0.91450287679E+02  0.10901919366E+02 -0.10808475010E+04  0.10847641805E+04  0.00000000000E+00 0. -1.
         13    1    5    5    0    0  0.30048848559E+02 -0.56807944825E+02  0.30889201993E+03  0.31550650687E+03  0.00000000000E+00 0. -1.
        -14    1    5    5    0    0 -0.19758966123E+02 -0.25933379808E+02  0.41680163748E+02  0.52916849685E+02  0.00000000000E+00 0.  1.
          5    1    4    4  501    0  0.75462649757E+02  0.61825227329E+02 -0.17357274661E+03  0.19915305925E+03  0.41800000000E+01 0.  1.
         -5    1    4    4    0  501  0.24425920849E+02 -0.44371627231E+02 -0.22604758340E+03  0.23169041688E+03  0.41800000000E+01 0.  1.
</event>
<event>
11    1  0.6930157E-009  0.2229345E+03  0.7561462E-02  0.1039395E+00
         22   -1    0    0    0    0  0.00000000000E+00  0.00000000000E+00  0.34102491254E+04  0.34102491254E+04  0.00000000000E+00 0. -1.
         22   -1    0    0    0    0 -0.00000000000E+00 -0.00000000000E+00 -0.86146639330E+03  0.86146639330E+03  0.00000000000E+00 0.  1.
        -24    2    1    2    0    0 -0.18387881092E+03 -0.93011048234E+01 -0.79765505691E+03  0.82252462563E+03  0.79970258810E+02 0.  0.
         25    2    1    2    0    0  0.19550236884E+03 -0.35326207752E+02  0.22108041244E+03  0.32247911060E+03  0.12508841208E+03 0.  0.
         24    2    1    2    0    0 -0.11623557914E+02  0.44627312576E+02  0.31253573765E+04  0.31267117824E+04  0.79631245255E+02 0.  0.
        -13    1    5    5    0    0 -0.42385242683E+02  0.25724516943E+02  0.12118940005E+04  0.12129077987E+04  0.00000000000E+00 0.  1.
         14    1    5    5    0    0  0.30761684770E+02  0.18902795632E+02  0.19134633760E+04  0.19138039838E+04  0.00000000000E+00 0. -1.
         13    1    3    3    0    0 -0.45679105441E+02 -0.22866147874E+02 -0.11418770220E+03  0.12509305627E+03  0.00000000000E+00 0. -1.
        -14    1    3    3    0    0 -0.13819970548E+03  0.13565043051E+02 -0.68346735471E+03  0.69743156936E+03  0.00000000000E+00 0.  1.
          5    1    4    4  501    0 -0.68281211047E+01  0.14929945638E+02  0.49892248068E+02  0.52689992710E+02  0.41800000000E+01 0. -1.
         -5    1    4    4    0  501  0.20233048994E+03 -0.50256153391E+02  0.17118816437E+03  0.26978911789E+03  0.41800000000E+01 0. -1.
</event>
<event>
11    1  0.6930157E-009  0.2306057E+03  0.7561462E-02  0.1034770E+00
         22   -1    0    0    0    0  0.00000000000E+00  0.00000000000E+00  0.68298637783E+03  0.68298637783E+03  0.00000000000E+00 0.  1.
         22   -1    0    0    0    0 -0.00000000000E+00 -0.00000000000E+00 -0.76090162585E+03  0.76090162585E+03  0.00000000000E+00 0. -1.
         24    2    1    2    0    0  0.16139686179E+02  0.23759493857E+02 -0.53345260651E+03  0.54025281501E+03  0.80476193483E+02 0.  0.
         25    2    1    2    0    0 -0.20406636393E+03 -0.62770369227E+02 -0.12989382945E+03  0.27947384802E+03  0.12510005859E+03 0.  0.
        -24    2    1    2    0    0  0.18792667775E+03  0.39010875370E+02  0.58543118794E+03  0.62416134064E+03  0.10004708255E+03 0.  0.
        -13    1    3    3    0    0  0.37954347820E+02  0.24136621564E+02 -0.16109094305E+03  0.16725250656E+03  0.00000000000E+00 0.  1.
         14    1    3    3    0    0 -0.21814661641E+02 -0.37712770670E+00 -0.37236166347E+03  0.37300030845E+03  0.00000000000E+00 0. -1.
         11    1    5    5    0    0  0.14735048110E+03 -0.15449585846E+02  0.38409510662E+03  0.41167937150E+03  0.00000000000E+00 0. -1.
        -12    1    5    5    0    0  0.40576196646E+02  0.54460461216E+02  0.20133608132E+03  0.21248196914E+03  0.00000000000E+00 0.  1.
          5    1    4    4  501    0 -0.12007715291E+03  0.27819211792E+02 -0.73931412196E+02  0.14379067183E+03  0.41800000000E+01 0. -1.
         -5    1    4    4    0  501 -0.83989211017E+02 -0.90589581019E+02 -0.55962417252E+02  0.13568317619E+03  0.41800000000E+01 0. -1.
</event>
<event>
11    1  0.6930157E-009  0.1288099E+03  0.7561462E-02  0.1120740E+00
         22   -1    0    0    0    0  0.00000000000E+00  0.00000000000E+00  0.11083022487E+04  0.11083022487E+04  0.00000000000E+00 0. -1.
         22   -1    0    0    0    0 -0.00000000000E+00 -0.00000000000E+00 -0.15280097629E+03  0.15280097629E+03  0.00000000000E+00 0. -1.
        -24    2    1    2    0    0 -0.21844852622E+01 -0.30267997559E+02 -0.10199916170E+03  0.15405783745E+03  0.11139598125E+03 0.  0.
         25    2    1    2    0    0  0.39972391591E+02  0.28358303365E+02  0.17795862470E+03  0.22297472436E+03  0.12508585108E+03 0.  0.
         24    2    1    2    0    0 -0.37787906328E+02  0.19096941940E+01  0.87954180937E+03  0.88407066313E+03  0.80966475670E+02 0.  0.
        -11    1    5    5    0    0  0.23703664278E+02  0.98774476185E+01  0.34246581699E+03  0.34342723170E+03  0.00000000000E+00 0.  1.
         12    1    5    5    0    0 -0.61491570607E+02 -0.79677534245E+01  0.53707599238E+03  0.54064343143E+03  0.00000000000E+00 0. -1.
         13    1    3    3    0    0 -0.22422832249E+02  0.21295951318E+01 -0.11226569363E+03  0.11450285825E+03  0.00000000000E+00 0. -1.
        -14    1    3    3    0    0  0.20238346987E+02 -0.32397592691E+02  0.10266531934E+02  0.39554979192E+02  0.00000000000E+00 0.  1.
          5    1    4    4  501    0  0.64945731378E+02  0.18346044531E+02  0.32558333703E+02  0.75046937763E+02  0.41800000000E+01 0. -1.
         -5    1    4    4    0  501 -0.24973339787E+02  0.10012258834E+02  0.14540029099E+03  0.14792778660E+03  0.41800000000E+01 0. -1.
</event>
<event>
11    1  0.6930157E-009  0.1353588E+03  0.7561462E-02  0.1112855E+00
         22   -1    0    0    0    0  0.00000000000E+00  0.00000000000E+00  0.22867075241E+04  0.22867075241E+04  0.00000000000E+00 0. -1.
         22   -1    0    0    0    0 -0.00000000000E+00 -0.00000000000E+00 -0.31099180679E+03  0.31099180679E+03  0.00000000000E+00 0.  1.
        -24    2    1    2    0    0 -0.72356707639E+01 -0.19538384297E+02 -0.28860578864E+03  0.30001140628E+03  0.79242913068E+02 0.  0.
         25    2    1    2    0    0  0.56137046037E+02  0.33587367377E+02  0.30506576057E+03  0.33613904985E+03  0.12507942826E+03 0.  0.
         24    2    1    2    0    0 -0.48901375273E+02 -0.14048983080E+02  0.19592557454E+04  0.19615488748E+04  0.80013710312E+02 0.  0.
        -13    1    5    5    0    0 -0.15600875387E+02 -0.45903083173E+02  0.10763536279E+04  0.10774449465E+04  0.00000000000E+00 0.  1.
         14    1    5    5    0    0 -0.33300499886E+02  0.31854100093E+02  0.88290211750E+03  0.88410392832E+03  0.00000000000E+00 0. -1.
         11    1    3    3    0    0  0.25994806341E+02  0.13531726522E+02 -0.61609310066E+02  0.68224223456E+02  0.00000000000E+00 0. -1.
        -12    1    3    3    0    0 -0.33230477105E+02 -0.33070110819E+02 -0.22699647857E+03  0.23178718282E+03  0.00000000000E+00 0.  1.
          5    1    4    4  501    0  0.10946163531E+02 -0.40870350856E+02  0.45294142054E+02  0.62122747681E+02  0.41800000000E+01 0.  1.
         -5    1    4    4    0  501  0.45190882506E+02  0.74457718232E+02  0.25977161851E+03  0.27401630216E+03  0.41800000000E+01 0.  1.
</event>
<event>
11    1  0.6930157E-009  0.1418303E+03  0.7561462E-02  0.1105532E+00
         22   -1    0    0    0    0  0.00000000000E+00  0.00000000000E+00  0.95350905373E+03  0.95350905373E+03  0.00000000000E+00 0. -1.
         22   -1    0    0    0    0 -0.00000000000E+00 -0.00000000000E+00 -0.60839718337E+02  0.60839718337E+02  0.00000000000E+00 0.  1.
         24    2    1    2    0    0 -0.61556936699E+01 -0.60349449039E+02  0.56284189041E+02  0.11352632374E+03  0.77719802376E+02 0.  0.
         25    2    1    2    0    0  0.50072163072E+02  0.72760520231E+02  0.17200657202E+03  0.23029299318E+03  0.12508911651E+03 0.  0.
        -24    2    1    2    0    0 -0.43916469402E+02 -0.12411071193E+02  0.66437857433E+03  0.67052945516E+03  0.78282624039E+02 0.  0.
        -11    1    3    3    0    0 -0.32457859839E+02 -0.36622968549E+02  0.23406379059E+01  0.48992173625E+02  0.00000000000E+00 0.  1.
         12    1    3    3    0    0  0.26302166169E+02 -0.23726480490E+02  0.53943551135E+02  0.64534150112E+02  0.00000000000E+00 0. -1.
         11    1    5    5    0    0 -0.50858610475E+01 -0.31218078270E+02  0.48518525667E+03  0.48621514547E+03  0.00000000000E+00 0. -1.
        -12    1    5    5    0    0 -0.38830608354E+02  0.18807007078E+02  0.17919331766E+03  0.18431430969E+03  0.00000000000E+00 0.  1.
          5    1    4    4  501    0  0.23892123037E+02  0.10563439160E+03  0.10380635594E+03  0.15007561483E+03  0.41800000000E+01 0. -1.
         -5    1    4    4    0  501  0.26180040035E+02 -0.32873871373E+02  0.68200216084E+02  0.80217378349E+02  0.41800000000E+01 0. -1.
</event>
<event>
11    1  0.6930157E-009  0.1474240E+03  0.7561462E-02  0.1099540E+00
         22   -1    0    0    0    0  0.00000000000E+00  0.00000000000E+00  0.63757587137E+03  0.63757587137E+03  0.00000000000E+00 0. -1.
         22   -1    0    0    0    0 -0.00000000000E+00 -0.00000000000E+00 -0.48658703591E+03  0.48658703591E+03  0.00000000000E+00 0. -1.
         24    2    1    2    0    0 -0.61400876950E+02 -0.44152319740E+02 -0.37419148861E+03  0.39000310671E+03  0.79772539534E+02 0.  0.
         25    2    1    2    0    0  0.57074024886E+02  0.86347057495E+02 -0.35535702131E+02  0.16620643710E+03  0.12509410438E+03 0.  0.
        -24    2    1    2    0    0  0.43268520640E+01 -0.42194737755E+02  0.56071602621E+03  0.56795336347E+03  0.79808793304E+02 0.  0.
        -13    1    3    3    0    0 -0.79308759904E+02 -0.31915890837E+02 -0.25771522269E+03  0.27152465724E+03  0.00000000000E+00 0.  1.
         14    1    3    3    0    0  0.17907882955E+02 -0.12236428903E+02 -0.11647626592E+03  0.11847844947E+03  0.00000000000E+00 0. -1.
         13    1    5    5    0    0 -0.23576932607E+02 -0.34720720119E+02  0.48660269793E+03  0.48840924008E+03  0.00000000000E+00 0. -1.
        -14    1    5    5    0    0  0.27903784671E+02 -0.74740176360E+01  0.74113328279E+02  0.79544123398E+02  0.00000000000E+00 0.  1.
          5    1    4    4  501    0 -0.16343915974E+02 -0.21998169289E+02  0.68816268834E+01  0.28563477204E+02  0.41800000000E+01 0. -1.
         -5    1    4    4    0  501  0.73417940860E+02  0.10834522678E+03 -0.42417329015E+02  0.13764295989E+03  0.41800000000E+01 0. -1.
</event>
<event>
11    1  0.6930157E-009  0.1392901E+03  0.7561462E-02  0.1108354E+00
         22   -1    0    0    0    0  0.00000000000E+00  0.00000000000E+00  0.15342558802E+03  0.15342558802E+03  0.00000000000E+00 0.  1.
         22   -1    0    0    0    0 -0.00000000000E+00 -0.00000000000E+00 -0.10126118315E+04  0.10126118315E+04  0.00000000000E+00 0. -1.
        -24    2    1    2    0    0  0.15641603518E+02 -0.59888898532E+02 -0.82695732143E+03  0.83327477380E+03  0.81591036622E+02 0.  0.
         25    2    1    2    0    0  0.25185516769E+02  0.62361987150E+02 -0.13499579539E+03  0.19594630083E+03  0.12509100822E+03 0.  0.
         24    2    1    2    0    0 -0.40827120287E+02 -0.24730886186E+01  0.10276687330E+03  0.13681634494E+03  0.80527709992E+02 0.  0.
        -11    1    5    5    0    0 -0.11313228725E+02  0.28124280428E+02  0.85879895971E+02  0.91073161940E+02  0.00000000000E+00 0.  1.
         12    1    5    5    0    0 -0.29513891562E+02 -0.30597369046E+02  0.16886977331E+02  0.45743183001E+02  0.00000000000E+00 0. -1.
         11    1    3    3    0    0  0.40022778009E+01 -0.46391812039E+01 -0.57647531566E+03  0.57650787488E+03  0.00000000000E+00 0. -1.
        -12    1    3    3    0    0  0.11639325717E+02 -0.55249717328E+02 -0.25048200576E+03  0.25676689891E+03  0.00000000000E+00 0.  1.
          5    1    4    4  501    0  0.31873928803E+02  0.52451995927E+02 -0.15807282698E+03  0.16962208064E+03  0.41800000000E+01 0. -1.
         -5    1    4    4    0  501 -0.66884120337E+01  0.99099912233E+01  0.23077031584E+02  0.26324220184E+02  0.41800000000E+01 0. -1.
</event>
<event>
11    1  0.6930157E-009  0.1364584E+03  0.7561462E-02  0.1111579E+00
         22   -1    0    0    0    0  0.00000000000E+00  0.00000000000E+00  0.68960581508E+03  0.68960581508E+03  0.00000000000E+00 0.  1.
         22   -1    0    0    0    0 -0.00000000000E+00 -0.00000000000E+00 -0.53715357861E+03  0.53715357861E+03  0.00000000000E+00 0.  1.
         24    2    1    2    0    0 -0.43991244380E+02 -0.31189981484E+02 -0.48263928552E+03  0.49178115189E+03  0.77459517808E+02 0.  0.
         25    2    1    2    0    0  0.17933042790E+01  0.67117432484E+02  0.63601461119E+02  0.15556656579E+03  0.12509134603E+03 0.  0.
        -24    2    1    2    0    0  0.42197940101E+02 -0.35927451000E+02  0.57149006087E+03  0.57941167600E+03  0.77753152567E+02 0.  0.
        -11    1    3    3    0    0 -0.19714772809E+02 -0.33440005598E+02 -0.44651569004E+03  0.44819991933E+03  0.00000000000E+00 0.  1.
         12    1    3    3    0    0 -0.24276471571E+02  0.22500241135E+01 -0.36123595483E+02  0.43581232556E+02  0.00000000000E+00 0. -1.
         13    1    5    5    0    0  0.51161614181E+01 -0.54215447211E+00 -0.46386302395E+00  0.51656759512E+01  0.00000000000E+00 0. -1.
        -14    1    5    5    0    0  0.37081778683E+02 -0.35385296528E+02  0.57195392389E+03  0.57424600005E+03  0.00000000000E+00 0.  1.
          5    1    4    4  501    0  0.10516427037E+02  0.18666780017E+02  0.94702546258E+02  0.97185845582E+02  0.41800000000E+01 0.  1.
         -5    1    4    4    0  501 -0.87231227576E+01  0.48450652468E+02 -0.31101085139E+02  0.58380720208E+02  0.41800000000E+01 0.  1.
</event>
<event>
11    1  0.6930157E-009  0.1560486E+03  0.7561462E-02  0.1090854E+00
         22   -1    0    0    0    0  0.00000000000E+00  0.00000000000E+00  0.64854557585E+03  0.64854557585E+03  0.00000000000E+00 0.  1.
         22   -1    0    0    0    0 -0.00000000000E+00 -0.00000000000E+00 -0.77286991677E+03  0.77286991677E+03  0.00000000000E+00 0. -1.
        -24    2    1    2    0    0  0.97393386434E+02  0.66191574933E+01 -0.70214149004E+03  0.71299640637E+03  0.76366998690E+02 0.  0.
         25    2    1    2    0    0 -0.34963964541E+02 -0.20931999119E+02  0.10614836695E+02  0.13199020827E+03  0.12509241751E+03 0.  0.
         24    2    1    2    0    0 -0.62429421893E+02  0.14312841626E+02  0.56720231243E+03  0.57642887798E+03  0.80308766585E+02 0.  0.
        -11    1    5    5    0    0 -0.42000455488E+02  0.46204946873E+02  0.28962116649E+03  0.29627580977E+03  0.00000000000E+00 0.  1.
         12    1    5    5    0    0 -0.20428966405E+02 -0.31892105247E+02  0.27758114594E+03  0.28015306821E+03  0.00000000000E+00 0. -1.
         13    1    3    3    0    0  0.79624138888E+02  0.23696815632E+02 -0.65041179753E+03  0.65569585093E+03  0.00000000000E+00 0. -1.
        -14    1    3    3    0    0  0.17769247546E+02 -0.17077658138E+02 -0.51729692514E+02  0.57300555437E+02  0.00000000000E+00 0.  1.
          5    1    4    4  501    0 -0.51914464157E+02  0.41108489254E+02 -0.17050752552E+01  0.66373181023E+02  0.41800000000E+01 0.  1.
         -5    1    4    4    0  501  0.16950499616E+02 -0.62040488373E+02  0.12319911950E+02  0.65617027252E+02  0.41800000000E+01 0.  1.
</event>
<event>
11    1  0.6930157E-009  0.1404674E+03  0.7561462E-02  0.1107038E+00
         22   -1    0    0    0    0  0.00000000000E+00  0.00000000000E+00  0.19075771447E+03  0.19075771447E+03  0.00000000000E+00 0. -1.
         22   -1    0    0    0    0 -0.00000000000E+00 -0.00000000000E+00 -0.93280077623E+03  0.93280077623E+03  0.00000000000E+00 0.  1.
         24    2    1    2    0    0  0.49419393081E+02  0.46944684477E+02 -0.59421305630E+03  0.60338379566E+03  0.79603823838E+02 0.  0.
         25    2    1    2    0    0 -0.31182478782E+02 -0.40679334714E+02 -0.30838023665E+03  0.33670905311E+03  0.12508981107E+03 0.  0.
        -24    2    1    2    0    0 -0.18236914299E+02 -0.62653497635E+01  0.16055023119E+03  0.18346564192E+03  0.86668479732E+02 0.  0.
        -11    1    3    3    0    0  0.35016869241E+02 -0.76890103730E+01 -0.38533399552E+03  0.38699817843E+03  0.00000000000E+00 0.  1.
         12    1    3    3    0    0  0.14402523841E+02  0.54633694850E+02 -0.20887906079E+03  0.21638561723E+03  0.00000000000E+00 0. -1.
         13    1    5    5    0    0 -0.48376701639E+02 -0.23781043328E+02  0.99488394208E+02  0.11315380623E+03  0.00000000000E+00 0. -1.
        -14    1    5    5    0    0  0.30139787339E+02  0.17515693564E+02  0.61061836985E+02  0.70311835688E+02  0.00000000000E+00 0.  1.
          5    1    4    4  501    0  0.44082705573E+02 -0.37695011569E+02 -0.10915950876E+03  0.12368293973E+03  0.41800000000E+01 0.  1.
         -5    1    4    4    0  501 -0.75265184355E+02 -0.29843231445E+01 -0.19922072789E+03  0.21302611338E+03  0.41800000000E+01 0.  1.
</event>
<event>
11    1  0.6930157E-009  0.1354202E+03  0.7561462E-02  0.1112783E+00
         22   -1    0    0    0    0  0.00000000000E+00  0.00000000000E+00  0.24443918653E+04  0.24443918653E+04  0.00000000000E+00 0. -1.
         22   -1    0    0    0    0 -0.00000000000E+00 -0.00000000000E+00 -0.45312234772E+03  0.45312234772E+03  0.00000000000E+00 0.  1.
         24    2    1    2    0    0  0.17860913545E+01  0.31198768396E+02 -0.42557163471E+03  0.43570052654E+03  0.88018062277E+02 0.  0.
         25    2    1    2    0    0  0.40220807244E+02 -0.60333836385E+02  0.22226590938E+03  0.26515230768E+03  0.12508287911E+03 0.  0.
        -24    2    1    2    0    0 -0.42006898599E+02  0.29135067988E+02  0.21945752429E+04  0.21966613788E+04  0.80915292950E+02 0.  0.
        -13    1    3    3    0    0 -0.18703742424E+02  0.44086429082E+02 -0.38840631619E+03  0.39134755610E+03  0.00000000000E+00 0.  1.
         14    1    3    3    0    0  0.20489833779E+02 -0.12887660686E+02 -0.37165318520E+02  0.44352970441E+02  0.00000000000E+00 0. -1.
         13    1    5    5    0    0 -0.27263172746E+02  0.14681743822E+02  0.20806492054E+04  0.20808796098E+04  0.00000000000E+00 0. -1.
        -14    1    5    5    0    0 -0.14743725853E+02  0.14453324166E+02  0.11392603744E+03  0.11578176902E+03  0.00000000000E+00 0.  1.
          5    1    4    4  501    0  0.80683320623E+01 -0.95374173713E+02  0.13288044664E+03  0.16381702137E+03  0.41800000000E+01 0.  1.
         -5    1    4    4    0  501  0.32152475182E+02  0.35040337328E+02  0.89385462743E+02  0.10133528630E+03  0.41800000000E+01 0.  1.
</event>
<event>
11    1  0.6930157E-009  0.1602983E+03  0.7561462E-02  0.1086797E+00
         22   -1    0    0    0    0  0.00000000000E+00  0.00000000000E+00  0.98217140101E+03  0.98217140101E+03  0.00000000000E+00 0.  1.
         22   -1    0    0    0    0 -0.00000000000E+00 -0.00000000000E+00 -0.13144947976E+03  0.13144947976E+03  0.00000000000E+00 0.  1.
        -24    2    1    2    0    0 -0.50131347320E+02 -0.53254071778E+02 -0.78236802020E+02  0.13437645261E+03  0.81159630860E+02 0.  0.
         25    2    1    2    0    0  0.19093625703E+02 -0.65700269969E+02  0.30316241725E+03  0.33501695855E+03  0.12509124377E+03 0.  0.
         24    2    1    2    0    0  0.31037721617E+02  0.11895434175E+03  0.62579630602E+03  0.64422746961E+03  0.91074367316E+02 0.  0.
        -13    1    5    5    0    0  0.42459146214E+02  0.10980804543E+03  0.61467581143E+03  0.62584897467E+03  0.00000000000E+00 0.  1.
         14    1    5    5    0    0 -0.11421424597E+02  0.91462963219E+01  0.11120494592E+02  0.18378494938E+02  0.00000000000E+00 0. -1.
         13    1    3    3    0    0 -0.32317877236E+02  0.32637338213E+01  0.43044406190E+01  0.32766222800E+02  0.00000000000E+00 0. -1.
        -14    1    3    3    0    0 -0.17813470084E+02 -0.56517805599E+02 -0.82541242639E+02  0.10161022981E+03  0.00000000000E+00 0.  1.
          5    1    4    4  501    0 -0.37547043242E+02 -0.55339078567E+02  0.79240485899E+02  0.10377244855E+03  0.41800000000E+01 0.  1.
         -5    1    4    4    0  501  0.56640668944E+02 -0.10361191402E+02  0.22392193135E+03  0.23124451000E+03  0.41800000000E+01 0.  1.
</event>
<event>
11    1  0.6930157E-009  0.1760125E+03  0.7561462E-02  0.1072915E+00
         22   -1    0    0    0    0  0.00000000000E+00  0.00000000000E+00  0.11772963624E+04  0.11772963624E+04  0.00000000000E+00 0.  1.
         22   -1    0    0    0    0 -0.00000000000E+00 -0.00000000000E+00 -0.11600628472E+03  0.11600628472E+03  0.00000000000E+00 0. -1.
        -24    2    1    2    0    0  0.26522186777E+01 -0.13892640788E+03  0.82946875763E+02  0.17830821685E+03  0.74873592978E+02 0.  0.
         25    2    1    2    0    0 -0.22925813274E+02  0.11010366837E+03  0.40205506733E+02  0.17295123031E+03  0.12508890674E+03 0.  0.
         24    2    1    2    0    0  0.20273594596E+02  0.28822739513E+02  0.93813769514E+03  0.94204319992E+03  0.78110732480E+02 0.  0.
        -13    1    5    5    0    0  0.69263268016E+01  0.11659864725E+01  0.81840354969E+03  0.81843368923E+03  0.00000000000E+00 0.  1.
         14    1    5    5    0    0  0.13347267795E+02  0.27656753041E+02  0.11973414545E+03  0.12360951069E+03  0.00000000000E+00 0. -1.
         11    1    3    3    0    0 -0.86085776092E+01 -0.13730709344E+03  0.55051880936E+02  0.14818250609E+03  0.00000000000E+00 0. -1.
        -12    1    3    3    0    0  0.11260796287E+02 -0.16193144467E+01  0.27894994827E+02  0.30125710758E+02  0.00000000000E+00 0.  1.
          5    1    4    4  501    0 -0.22666559742E+02  0.11919898499E+03  0.70949160855E+02  0.14061801726E+03  0.41800000000E+01 0.  1.
         -5    1    4    4    0  501 -0.25925353167E+00 -0.90953166216E+01 -0.30743654122E+02  0.32333213042E+02  0.41800000000E+01 0.  1.
</event>
<event>
11    1  0.6930157E-009  0.1496041E+03  0.7561462E-02  0.1097284E+00
         22   -1    0    0    0    0  0.00000000000E+00  0.00000000000E+00  0.66511793377E+03  0.66511793377E+03  0.00000000000E+00 0. -1.
         22   -1    0    0    0    0 -0.00000000000E+00 -0.00000000000E+00 -0.18916689320E+03  0.18916689320E+03  0.00000000000E+00 0.  1.
        -24    2    1    2    0    0  0.85058519867E+02 -0.40950803284E+01 -0.13978881978E+03  0.18222485022E+03  0.80082834734E+02 0.  0.
         25    2    1    2    0    0 -0.53977686126E+02 -0.56442453876E+01  0.17047940680E+03  0.21830313769E+03  0.12509030210E+03 0.  0.
         24    2    1    2    0    0 -0.31080833740E+02  0.97393257160E+01  0.44526045355E+03  0.45375683905E+03  0.81101940797E+02 0.  0.
        -13    1    5    5    0    0 -0.17052826494E+02  0.43686291386E+02  0.18193761631E+03  0.18788450489E+03  0.00000000000E+00 0.  1.
         14    1    5    5    0    0 -0.14028007246E+02 -0.33946965670E+02  0.26332283723E+03  0.26587233416E+03  0.00000000000E+00 0. -1.
         11    1    3    3    0    0  0.84098521725E+02 -0.29811993627E+02 -0.93361532601E+02  0.12914213909E+03  0.00000000000E+00 0. -1.
        -12    1    3    3    0    0  0.95999814150E+00  0.25716913299E+02 -0.46427287179E+02  0.53082711129E+02  0.00000000000E+00 0.  1.
          5    1    4    4  501    0  0.25582519087E+02  0.11859605763E+02 -0.88027191400E+00  0.28519516306E+02  0.41800000000E+01 0. -1.
         -5    1    4    4    0  501 -0.79560205213E+02 -0.17503851150E+02  0.17135967871E+03  0.18978362139E+03  0.41800000000E+01 0. -1.
</event>
<event>
11    1  0.6930157E-009  0.2140466E+03  0.7561462E-02  0.1045012E+00
         22   -1    0    0    0    0  0.00000000000E+00  0.00000000000E+00  0.32718867595E+03  0.32718867595E+03  0.00000000000E+00 0. -1.
         22   -1    0    0    0    0 -0.00000000000E+00 -0.00000000000E+00 -0.60690927308E+03  0.60690927308E+03  0.00000000000E+00 0. -1.
         24    2    1    2    0    0 -0.66153836546E+02  0.95039193684E+01 -0.31055699715E+03  0.32774320763E+03  0.80643084598E+02 0.  0.
         25    2    1    2    0    0 -0.81718957859E+02  0.94315802668E+02 -0.22311516778E+03  0.28460528020E+03  0.12508528577E+03 0.  0.
        -24    2    1    2    0    0  0.14787279441E+03 -0.10381972204E+03  0.25395156781E+03  0.32174946120E+03  0.79915073545E+02 0.  0.
        -11    1    3    3    0    0 -0.85010227180E+01  0.25053732947E+02 -0.26383253744E+02  0.37363524994E+02  0.00000000000E+00 0.  1.
         12    1    3    3    0    0 -0.57652813828E+02 -0.15549813579E+02 -0.28417374341E+03  0.29037968264E+03  0.00000000000E+00 0. -1.
         11    1    5    5    0    0  0.66399183202E+02 -0.93567906943E+02  0.16133868819E+03  0.19797468790E+03  0.00000000000E+00 0. -1.
        -12    1    5    5    0    0  0.81473611203E+02 -0.10251815093E+02  0.92612879615E+02  0.12377477330E+03  0.00000000000E+00 0.  1.
          5    1    4    4  501    0  0.11923349745E+02 -0.15461200463E+02 -0.13694415973E+01  0.20014064035E+02  0.41800000000E+01 0. -1.
         -5    1    4    4    0  501 -0.93642307605E+02  0.10977700313E+03 -0.22174572618E+03  0.26459121616E+03  0.41800000000E+01 0. -1.
</event>
<event>
11    1  0.6930157E-009  0.1456155E+03  0.7561462E-02  0.1101445E+00
         22   -1    0    0    0    0  0.00000000000E+00  0.00000000000E+00  0.53057406563E+03  0.53057406563E+03  0.00000000000E+00 0. -1.
         22   -1    0    0    0    0 -0.00000000000E+00 -0.00000000000E+00 -0.10286507609E+04  0.10286507609E+04  0.00000000000E+00 0.  1.
         24    2    1    2    0    0 -0.22543246058E+02  0.54130787331E+00 -0.70793585774E+03  0.71246537373E+03  0.76975574888E+02 0.  0.
         25    2    1    2    0    0  0.79168713226E+02 -0.48512511036E+02 -0.29314860934E+03  0.33197152181E+03  0.12509130766E+03 0.  0.
        -24    2    1    2    0    0 -0.56625467168E+02  0.47971203162E+02  0.50300777184E+03  0.51478793097E+03  0.80511585954E+02 0.  0.
        -11    1    3    3    0    0  0.24004610566E+02  0.45690508236E+01 -0.42465284927E+03  0.42535531024E+03  0.00000000000E+00 0.  1.
         12    1    3    3    0    0 -0.46547856623E+02 -0.40277429503E+01 -0.28328300847E+03  0.28711006349E+03  0.00000000000E+00 0. -1.
         13    1    5    5    0    0 -0.59357988445E+02  0.28935320777E+02  0.48120886224E+03  0.48571863530E+03  0.00000000000E+00 0. -1.
        -14    1    5    5    0    0  0.27325212767E+01  0.19035882385E+02  0.21798909598E+02  0.29069295664E+02  0.00000000000E+00 0.  1.
          5    1    4    4  501    0 -0.66597038616E+01 -0.34337516633E+02 -0.11331322965E+02  0.37003891473E+02  0.41800000000E+01 0. -1.
         -5    1    4    4    0  501  0.85828417087E+02 -0.14174994403E+02 -0.28181728638E+03  0.29496763034E+03  0.41800000000E+01 0. -1.
</event>
<event>
11    1  0.6930157E-009  0.1365765E+03  0.7561462E-02  0.1111443E+00
         22   -1    0    0    0    0  0.00000000000E+00  0.00000000000E+00  0.15865241526E+03  0.15865241526E+03  0.00000000000E+00 0. -1.
         22   -1    0    0    0    0 -0.00000000000E+00 -0.00000000000E+00 -0.62609316111E+03  0.62609316111E+03  0.00000000000E+00 0.  1.
         24    2    1    2    0    0 -0.19697660941E+02  0.46404449266E+02 -0.52213151941E+03  0.53064247297E+03  0.80117038107E+02 0.  0.
         25    2    1    2    0    0 -0.25442497846E+02  0.59765007792E+01 -0.10860682413E+02  0.12825043176E+03  0.12508868680E+03 0.  0.
        -24    2    1    2    0    0  0.45140158787E+02 -0.52380950045E+02  0.65551455972E+02  0.12585267164E+03  0.82222282359E+02 0.  0.
        -11    1    3    3    0    0 -0.36215246283E+02 -0.82249123273E+01 -0.23156630339E+03  0.23452536347E+03  0.00000000000E+00 0.  1.
         12    1    3    3    0    0  0.16517585342E+02  0.54629361593E+02 -0.29056521602E+03  0.29611710949E+03  0.00000000000E+00 0. -1.
         13    1    5    5    0    0  0.24738856676E+02 -0.29126116699E+02  0.82252978562E+02  0.90696715409E+02  0.00000000000E+00 0. -1.
        -14    1    5    5    0    0  0.20401302112E+02 -0.23254833346E+02 -0.16701522590E+02  0.35155956233E+02  0.00000000000E+00 0.  1.
          5    1    4    4  501    0  0.25855784807E+01 -0.47931516870E+02  0.28266519982E+02  0.55862188262E+02  0.41800000000E+01 0. -1.
         -5    1    4    4    0  501 -0.28028076327E+02  0.53908017649E+02 -0.39127202395E+02  0.72388243498E+02  0.41800000000E+01 0. -1.
</event>
<event>
11    1  0.6930157E-009  0.1374076E+03  0.7561462E-02  0.1110488E+00
         22   -1    0    0    0    0  0.00000000000E+00  0.00000000000E+00  0.12404747962E+04  0.12404747962E+04  0.00000000000E+00 0. -1.
         22   -1    0    0    0    0 -0.00000000000E+00 -0.00000000000E+00 -0.48420637822E+03  0.48420637822E+03  0.00000000000E+00 0. -1.
        -24    2    1    2    0    0 -0.53086206340E+02  0.25850693162E+02 -0.45032212240E+03  0.46110084094E+03  0.79608843403E+02 0.  0.
         25    2    1    2    0    0 -0.26759483513E+01  0.26358111601E+01  0.12265153737E+03  0.17522939128E+03  0.12509129366E+03 0.  0.
         24    2    1    2    0    0  0.55762154692E+02 -0.28486504322E+02  0.10839390030E+04  0.10883509422E+04  0.75253653234E+02 0.  0.
        -11    1    5    5    0    0  0.58477197582E+02 -0.22508909699E+01  0.44032927565E+03  0.44420099070E+03  0.00000000000E+00 0.  1.
         12    1    5    5    0    0 -0.27150428908E+01 -0.26235613352E+02  0.64360972732E+03  0.64414995147E+03  0.00000000000E+00 0. -1.
         13    1    3    3    0    0 -0.49449510858E+02  0.46183548081E+02 -0.41244084850E+03  0.41795409766E+03  0.00000000000E+00 0. -1.
        -14    1    3    3    0    0 -0.36366954822E+01 -0.20332854920E+02 -0.37881273903E+02  0.43146743281E+02  0.00000000000E+00 0.  1.
          5    1    4    4  501    0  0.13083885426E+02  0.44700267781E+02  0.24346860497E+01  0.46826297032E+02  0.41800000000E+01 0. -1.
         -5    1    4    4    0  501 -0.15759833777E+02 -0.42064456621E+02  0.12021685132E+03  0.12840309425E+03  0.41800000000E+01 0. -1.
</event>
<event>
11    1  0.6930157E-009  0.3140351E+03  0.7561462E-02  0.9944202E-01
         22   -1    0    0    0    0  0.00000000000E+00  0.00000000000E+00  0.44459145259E+03  0.44459145259E+03  0.00000000000E+00 0.  1.
         22   -1    0    0    0    0 -0.00000000000E+00 -0.00000000000E+00 -0.59638533781E+03  0.59638533781E+03  0.00000000000E+00 0.  1.
         24    2    1    2    0    0 -0.26262441007E+03 -0.10171866122E+03 -0.33913483344E+03  0.44829342648E+03  0.81463452973E+02 0.  0.
         25    2    1    2    0    0  0.31431457613E+03  0.26040935355E+02 -0.33137121585E+02  0.34090522682E+03  0.12508605745E+03 0.  0.
        -24    2    1    2    0    0 -0.51690166062E+02  0.75677725860E+02  0.22047806980E+03  0.25177813710E+03  0.79891548992E+02 0.  0.
        -11    1    3    3    0    0 -0.78315260460E+02 -0.57990544485E+00 -0.12989806443E+03  0.15168099240E+03  0.00000000000E+00 0.  1.
         12    1    3    3    0    0 -0.18430914961E+03 -0.10113875577E+03 -0.20923676900E+03  0.29661243408E+03  0.00000000000E+00 0. -1.
         11    1    5    5    0    0 -0.33334859426E+02 -0.77004722924E+01  0.85199300965E+02  0.91811932838E+02  0.00000000000E+00 0. -1.
        -12    1    5    5    0    0 -0.18355306637E+02  0.83378198153E+02  0.13527876883E+03  0.15996620426E+03  0.00000000000E+00 0.  1.
          5    1    4    4  501    0  0.63547817366E+02 -0.37998936469E+02  0.19671658387E+02  0.76724773108E+02  0.41800000000E+01 0. -1.
         -5    1    4    4    0  501  0.25076675876E+03  0.64039871824E+02 -0.52808779972E+02  0.26418045372E+03  0.41800000000E+01 0. -1.
</event>
<event>
11    1  0.6930157E-009  0.1524360E+03  0.7561462E-02  0.1094415E+00
         22   -1    0    0    0    0  0.00000000000E+00  0.00000000000E+00  0.55516155747E+03  0.55516155747E+03  0.00000000000E+00 0.  1.
         22   -1    0    0    0    0 -0.00000000000E+00 -0.00000000000E+00 -0.21037981595E+03  0.21037981595E+03  0.00000000000E+00 0. -1.
         24    2    1    2    0    0 -0.88407230687E+02  0.12694839629E+02 -0.53958797516E+02  0.13250012433E+03  0.81656192209E+02 0.  0.
         25    2    1    2    0    0  0.83241041680E+02 -0.13285633247E+02 -0.63661154891E+02  0.16373123969E+03  0.12509834986E+03 0.  0.
        -24    2    1    2    0    0  0.51661890077E+01  0.59079361804E+00  0.46240169393E+03  0.46931000941E+03  0.80059476874E+02 0.  0.
        -13    1    3    3    0    0  0.44303681362E+00 -0.18188903909E+02  0.79872021511E+01  0.19870276929E+02  0.00000000000E+00 0.  1.
         14    1    3    3    0    0 -0.88850267501E+02  0.30883743538E+02 -0.61945999667E+02  0.11262984740E+03  0.00000000000E+00 0. -1.
         13    1    5    5    0    0  0.60919834071E+01 -0.29973870186E+02  0.79369725762E+02  0.85059382335E+02  0.00000000000E+00 0. -1.
        -14    1    5    5    0    0 -0.92579439936E+00  0.30564663804E+02  0.38303196817E+03  0.38425062708E+03  0.00000000000E+00 0.  1.
          5    1    4    4  501    0  0.10708292962E+03 -0.36761369355E+02 -0.32614245136E+02  0.11789534969E+03  0.41800000000E+01 0. -1.
         -5    1    4    4    0  501 -0.23841887942E+02  0.23475736108E+02 -0.31046909755E+02  0.45835889996E+02  0.41800000000E+01 0. -1.
</event>
<event>
11    1  0.6930157E-009  0.1470842E+03  0.7561462E-02  0.1099896E+00
         22   -1    0    0    0    0  0.00000000000E+00  0.00000000000E+00  0.78177499761E+03  0.78177499761E+03  0.00000000000E+00 0.  1.
         22   -1    0    0    0    0 -0.00000000000E+00 -0.00000000000E+00 -0.48394786238E+03  0.48394786238E+03  0.00000000000E+00 0.  1.
        -24    2    1    2    0    0 -0.10797514035E+02  0.60603301426E+02 -0.39461046123E+03  0.40739911419E+03  0.80419373781E+02 0.  0.
         25    2    1    2    0    0  0.55370300842E+02 -0.12023923804E+03  0.27229344397E+02  0.18411965883E+03  0.12504106123E+03 0.  0.
         24    2    1    2    0    0 -0.44572786807E+02  0.59635936609E+02  0.66520825207E+03  0.67420408697E+03  0.80659494181E+02 0.  0.
        -13    1    5    5    0    0 -0.42665054565E+02 -0.68664598954E+01  0.26896337722E+03  0.27241283641E+03  0.00000000000E+00 0.  1.
         14    1    5    5    0    0 -0.19077322415E+01  0.66502396504E+02  0.39624487485E+03  0.40179125056E+03  0.00000000000E+00 0. -1.
         11    1    3    3    0    0  0.76536902692E+01 -0.17951198166E+02 -0.10288701861E+03  0.10472135927E+03  0.00000000000E+00 0. -1.
        -12    1    3    3    0    0 -0.18451204304E+02  0.78554499593E+02 -0.29172344262E+03  0.30267775492E+03  0.00000000000E+00 0.  1.
          5    1    4    4  501    0  0.61155121744E+02 -0.10199952600E+03 -0.30759446423E+02  0.12291244105E+03  0.41800000000E+01 0.  1.
         -5    1    4    4    0  501 -0.57848209027E+01 -0.18239712035E+02  0.57988790820E+02  0.61207217784E+02  0.41800000000E+01 0.  1.
</event>
<event>
11    1  0.6930157E-009  0.1362644E+03  0.7561462E-02  0.1111803E+00
         22   -1    0    0    0    0  0.00000000000E+00  0.00000000000E+00  0.30571153316E+03  0.30571153316E+03  0.00000000000E+00 0.  1.
         22   -1    0    0    0    0 -0.00000000000E+00 -0.00000000000E+00 -0.21447640943E+03  0.21447640943E+03  0.00000000000E+00 0.  1.
        -24    2    1    2    0    0 -0.15623117378E+02  0.49033864271E+02 -0.14437915468E+03  0.17356479477E+03  0.81430928010E+02 0.  0.
         25    2    1    2    0    0  0.39984665197E+02 -0.65087340283E+02  0.73291978910E+02  0.16389120242E+03  0.12511385511E+03 0.  0.
         24    2    1    2    0    0 -0.24361547818E+02  0.16053476012E+02  0.16232229950E+03  0.18273194540E+03  0.78684406647E+02 0.  0.
        -13    1    5    5    0    0  0.17081132146E+02  0.25425553876E+01  0.12243510183E+03  0.12364701300E+03  0.00000000000E+00 0.  1.
         14    1    5    5    0    0 -0.41442679964E+02  0.13510920625E+02  0.39887197676E+02  0.59084932404E+02  0.00000000000E+00 0. -1.
         11    1    3    3    0    0 -0.45071893640E+02  0.44279684041E+02 -0.75146965174E+02  0.98179592533E+02  0.00000000000E+00 0. -1.
        -12    1    3    3    0    0  0.29448776262E+02  0.47541802302E+01 -0.69232189506E+02  0.75385202240E+02  0.00000000000E+00 0.  1.
          5    1    4    4  501    0 -0.18430008689E+02 -0.82917816115E+02  0.37186351944E+02  0.92818783770E+02  0.41800000000E+01 0.  1.
         -5    1    4    4    0  501  0.58414673886E+02  0.17830475832E+02  0.36105626966E+02  0.71072418646E+02  0.41800000000E+01 0.  1.
</event>
<event>
11    1  0.6930157E-009  0.3060684E+03  0.7561462E-02  0.9976552E-01
         22   -1    0    0    0    0  0.00000000000E+00  0.00000000000E+00  0.16903657728E+04  0.16903657728E+04  0.00000000000E+00 0. -1.
         22   -1    0    0    0    0 -0.00000000000E+00 -0.00000000000E+00 -0.18016735042E+04  0.18016735042E+04  0.00000000000E+00 0.  1.
         24    2    1    2    0    0  0.21513520625E+03 -0.18537807840E+03 -0.15315203827E+04  0.15595616641E+04  0.77651224090E+02 0.  0.
         25    2    1    2    0    0 -0.23675285644E+03  0.10933986115E+03 -0.17198367001E+03  0.33650187815E+03  0.12509201006E+03 0.  0.
        -24    2    1    2    0    0  0.21617650192E+02  0.76038217247E+02  0.15921963213E+04  0.15959757348E+04  0.76159616811E+02 0.  0.
        -11    1    3    3    0    0  0.15356974282E+03 -0.84424123229E+02 -0.97397817213E+03  0.98961840033E+03  0.00000000000E+00 0.  1.
         12    1    3    3    0    0  0.61565463429E+02 -0.10095395517E+03 -0.55754221055E+03  0.56994326375E+03  0.00000000000E+00 0. -1.
         13    1    5    5    0    0  0.22367994852E+02  0.89704749144E+02  0.14902124491E+04  0.14930774973E+04  0.00000000000E+00 0. -1.
        -14    1    5    5    0    0 -0.75034466000E+00 -0.13666531897E+02  0.10198387216E+03  0.10289823756E+03  0.00000000000E+00 0.  1.
          5    1    4    4  501    0 -0.57962466696E+02 -0.23999907836E+02 -0.59945760448E+02  0.86871224909E+02  0.41800000000E+01 0. -1.
         -5    1    4    4    0  501 -0.17879038974E+03  0.13333976899E+03 -0.11203790956E+03  0.24963065324E+03  0.41800000000E+01 0. -1.
</event>
<event>
11    1  0.6930157E-009  0.1447943E+03  0.7561462E-02  0.1102320E+00
         22   -1    0    0    0    0  0.00000000000E+00  0.00000000000E+00  0.16734875527E+04  0.16734875527E+04  0.00000000000E+00 0.  1.
         22   -1    0    0    0    0 -0.00000000000E+00 -0.00000000000E+00 -0.11722944427E+04  0.11722944427E+04  0.00000000000E+00 0. -1.
        -24    2    1    2    0    0 -0.42765457860E+02  0.58962616410E+02 -0.11236405288E+04  0.11299993819E+04  0.95000476781E+02 0.  0.
         25    2    1    2    0    0  0.21843722271E+02 -0.78368853232E+02  0.81452188478E+02  0.17000118162E+03  0.12508843826E+03 0.  0.
         24    2    1    2    0    0  0.20921735589E+02  0.19406236822E+02  0.15433814504E+04  0.15457814319E+04  0.81238001036E+02 0.  0.
        -11    1    5    5    0    0 -0.97495634989E+00  0.39193143014E+01  0.13943550186E+04  0.13943608678E+04  0.00000000000E+00 0.  1.
         12    1    5    5    0    0  0.21896691939E+02  0.15486922521E+02  0.14902643175E+03  0.15142056415E+03  0.00000000000E+00 0. -1.
         13    1    3    3    0    0 -0.73053488909E+02  0.38954818210E+02 -0.83179549805E+03  0.83590552138E+03  0.00000000000E+00 0. -1.
        -14    1    3    3    0    0  0.30288031049E+02  0.20007798200E+02 -0.29184503074E+03  0.29409386050E+03  0.00000000000E+00 0.  1.
          5    1    4    4  501    0 -0.19887421064E+02 -0.88378955030E+02  0.16705567104E+02  0.92211157574E+02  0.41800000000E+01 0.  1.
         -5    1    4    4    0  501  0.41731143336E+02  0.10010101798E+02  0.64746621375E+02  0.77790024049E+02  0.41800000000E+01 0.  1.
</event>
<event>
11    1  0.6930157E-009  0.1463319E+03  0.7561462E-02  0.1100687E+00
         22   -1    0    0    0    0  0.00000000000E+00  0.00000000000E+00  0.27480160939E+04  0.27480160939E+04  0.00000000000E+00 0.  1.
         22   -1    0    0    0    0 -0.00000000000E+00 -0.00000000000E+00 -0.30003173407E+03  0.30003173407E+03  0.00000000000E+00 0.  1.
         24    2    1    2    0    0  0.64361203390E+02 -0.38635324947E+02 -0.27184810655E+03  0.29392884457E+03  0.82811350653E+02 0.  0.
         25    2    1    2    0    0 -0.11442130261E+03  0.24443129002E+02  0.42823049116E+03  0.46121350964E+03  0.12508735694E+03 0.  0.
        -24    2    1    2    0    0  0.50060099222E+02  0.14192195946E+02  0.22916019752E+04  0.22929054738E+04  0.57170506766E+02 0.  0.
        -11    1    3    3    0    0  0.60169435967E+02 -0.26416176152E+02 -0.27315189466E+03  0.28094507105E+03  0.00000000000E+00 0.  1.
         12    1    3    3    0    0  0.41917674221E+01 -0.12219148796E+02  0.13037881106E+01  0.12983773521E+02  0.00000000000E+00 0. -1.
         11    1    5    5    0    0  0.29063665903E+02  0.22733619396E+02  0.59009212361E+03  0.59124464350E+03  0.00000000000E+00 0. -1.
        -12    1    5    5    0    0  0.20996433319E+02 -0.85414234498E+01  0.17015098516E+04  0.17016608303E+04  0.00000000000E+00 0.  1.
          5    1    4    4  501    0 -0.46506158752E+02 -0.48918176950E+02  0.12827869468E+03  0.14501278133E+03  0.41800000000E+01 0.  1.
         -5    1    4    4    0  501 -0.67915143860E+02  0.73361305952E+02  0.29995179648E+03  0.31620072831E+03  0.41800000000E+01 0.  1.
</event>
<event>
11    1  0.6930157E-009  0.1353892E+03  0.7561462E-02  0.1112819E+00
         22   -1    0    0    0    0  0.00000000000E+00  0.00000000000E+00  0.46610129898E+03  0.46610129898E+03  0.00000000000E+00 0.  1.
         22   -1    0    0    0    0 -0.00000000000E+00 -0.00000000000E+00 -0.42699428180E+04  0.42699428180E+04  0.00000000000E+00 0.  1.
         24    2    1    2    0    0  0.41731484742E+02 -0.30914910339E+02 -0.41996356116E+04  0.42007428790E+04  0.81266329163E+02 0.  0.
         25    2    1    2    0    0 -0.17767142163E+02  0.35268473558E+02  0.65252541908E+00  0.13117665325E+03  0.12508937605E+03 0.  0.
        -24    2    1    2    0    0 -0.23964342579E+02 -0.43535632185E+01  0.39514156723E+03  0.40412458471E+03  0.81157738908E+02 0.  0.
        -11    1    3    3    0    0  0.61294245740E+02 -0.10440629525E+02 -0.34715841466E+04  0.34721409070E+04  0.00000000000E+00 0.  1.
         12    1    3    3    0    0 -0.19562760998E+02 -0.20474280814E+02 -0.72805146503E+03  0.72860197195E+03  0.00000000000E+00 0. -1.
         13    1    5    5    0    0 -0.33946055667E+02 -0.29050393912E+02  0.12636486912E+03  0.13403111664E+03  0.00000000000E+00 0. -1.
        -14    1    5    5    0    0  0.99817130887E+01  0.24696830693E+02  0.26877669812E+03  0.27009346807E+03  0.00000000000E+00 0.  1.
          5    1    4    4  501    0 -0.29563148140E+00  0.41554592262E+02 -0.56886190024E+02  0.70571825479E+02  0.41800000000E+01 0. -1.
         -5    1    4    4    0  501 -0.17471510681E+02 -0.62861187038E+01  0.57538715443E+02  0.60604827767E+02  0.41800000000E+01 0. -1.
</event>
<event>
11    1  0.6930157E-009  0.3365573E+03  0.7561462E-02  0.9858060E-01
         22   -1    0    0    0    0  0.00000000000E+00  0.00000000000E+00  0.47590812504E+03  0.47590812504E+03  0.00000000000E+00 0.  1.
         22   -1    0    0    0    0 -0.00000000000E+00 -0.00000000000E+00 -0.34928339966E+04  0.34928339966E+04  0.00000000000E+00 0. -1.
        -24    2    1    2    0    0 -0.37597363525E+02 -0.19526835609E+03 -0.21011963011E+04  0.21121688222E+04  0.81779857098E+02 0.  0.
         25    2    1    2    0    0  0.16226128668E+03 -0.98838329798E+02 -0.13173789093E+04  0.13368754261E+04  0.12510385089E+03 0.  0.
         24    2    1    2    0    0 -0.12466392315E+03  0.29410668589E+03  0.40164933886E+03  0.51969787338E+03  0.81999096162E+02 0.  0.
        -13    1    5    5    0    0 -0.76063252951E+02  0.25813790152E+03  0.33513107759E+03  0.42980650741E+03  0.00000000000E+00 0.  1.
         14    1    5    5    0    0 -0.48600670201E+02  0.35968784371E+02  0.66518261271E+02  0.89891365969E+02  0.00000000000E+00 0. -1.
         11    1    3    3    0    0 -0.62172387921E+02 -0.11977783228E+03 -0.14018515907E+04  0.14083323533E+04  0.00000000000E+00 0. -1.
        -12    1    3    3    0    0  0.24575024396E+02 -0.75490523818E+02 -0.69934471043E+03  0.70383646895E+03  0.00000000000E+00 0.  1.
          5    1    4    4  501    0  0.11062680599E+03 -0.12663423156E+03 -0.93630300780E+03  0.95129139259E+03  0.41800000000E+01 0.  1.
         -5    1    4    4    0  501  0.51634480685E+02  0.27795901760E+02 -0.38107590151E+03  0.38558403346E+03  0.41800000000E+01 0.  1.
</event>
<event>
11    1  0.6930157E-009  0.1496718E+03  0.7561462E-02  0.1097215E+00
         22   -1    0    0    0    0  0.00000000000E+00  0.00000000000E+00  0.10432157544E+04  0.10432157544E+04  0.00000000000E+00 0.  1.
         22   -1    0    0    0    0 -0.00000000000E+00 -0.00000000000E+00 -0.21019971918E+04  0.21019971918E+04  0.00000000000E+00 0. -1.
         24    2    1    2    0    0 -0.52536549564E+02 -0.18723162055E+02 -0.20671728541E+04  0.20694433473E+04  0.79255996274E+02 0.  0.
         25    2    1    2    0    0  0.49444725321E+02 -0.65629875360E+02  0.15857030850E+03  0.21803546043E+03  0.12507141107E+03 0.  0.
        -24    2    1    2    0    0  0.30918242435E+01  0.84353037415E+02  0.84982110827E+03  0.85773413846E+03  0.79918345413E+02 0.  0.
        -13    1    3    3    0    0 -0.43335985380E+02 -0.31474875456E+02 -0.65599063812E+03  0.65817352781E+03  0.00000000000E+00 0.  1.
         14    1    3    3    0    0 -0.92005641849E+01  0.12751713401E+02 -0.14111822160E+04  0.14112698195E+04  0.00000000000E+00 0. -1.
         11    1    5    5    0    0 -0.33332699693E+01 -0.15440693654E+02  0.14410467338E+03  0.14496786747E+03  0.00000000000E+00 0. -1.
        -12    1    5    5    0    0  0.64250942128E+01  0.99793731070E+02  0.70571643489E+03  0.71276627100E+03  0.00000000000E+00 0.  1.
          5    1    4    4  501    0  0.61642722962E+02 -0.58562907654E+01  0.17808909967E+02  0.64565866445E+02  0.41800000000E+01 0.  1.
         -5    1    4    4    0  501 -0.12197997641E+02 -0.59773584595E+02  0.14076139853E+03  0.15346959399E+03  0.41800000000E+01 0.  1.
</event>
<event>
11    1  0.6930157E-009  0.1361076E+03  0.7561462E-02  0.1111984E+00
         22   -1    0    0    0    0  0.00000000000E+00  0.00000000000E+00  0.31653688871E+03  0.31653688871E+03  0.00000000000E+00 0.  1.
         22   -1    0    0    0    0 -0.00000000000E+00 -0.00000000000E+00 -0.73166492168E+03  0.73166492168E+03  0.00000000000E+00 0. -1.
        -24    2    1    2    0    0  0.46503213081E+02  0.11963745667E+02 -0.61287296082E+03  0.62008609932E+03  0.81165413966E+02 0.  0.
         25    2    1    2    0    0 -0.19088663947E+02 -0.59092258338E+02 -0.60629055333E+02  0.15224802413E+03  0.12508919383E+03 0.  0.
         24    2    1    2    0    0 -0.27414549134E+02  0.47128512671E+02  0.25837398317E+03  0.27586768695E+03  0.79832395111E+02 0.  0.
        -11    1    5    5    0    0  0.59248488106E+01  0.50123735634E+02  0.21625630317E+03  0.22206819081E+03  0.00000000000E+00 0.  1.
         12    1    5    5    0    0 -0.33339397944E+02 -0.29952229636E+01  0.42117680000E+02  0.53799496136E+02  0.00000000000E+00 0. -1.
         13    1    3    3    0    0  0.68645152798E+02  0.18271813348E+02 -0.48134403910E+03  0.48655739655E+03  0.00000000000E+00 0. -1.
        -14    1    3    3    0    0 -0.22141939717E+02 -0.63080676806E+01 -0.13152892172E+03  0.13352870277E+03  0.00000000000E+00 0.  1.
          5    1    4    4  501    0  0.12594551777E+02  0.32409531483E+02  0.47425560204E+01  0.35340694716E+02  0.41800000000E+01 0.  1.
         -5    1    4    4    0  501 -0.31683215724E+02 -0.91501789820E+02 -0.65371611354E+02  0.11690732941E+03  0.41800000000E+01 0.  1.
</event>
<event>
11    1  0.6930157E-009  0.1511932E+03  0.7561462E-02  0.1095666E+00
         22   -1    0    0    0    0  0.00000000000E+00  0.00000000000E+00  0.28741053101E+03  0.28741053101E+03  0.00000000000E+00 0.  1.
         22   -1    0    0    0    0 -0.00000000000E+00 -0.00000000000E+00 -0.68170885844E+03  0.68170885844E+03  0.00000000000E+00 0.  1.
        -24    2    1    2    0    0 -0.22470559572E+02  0.57180765149E+01 -0.58807521754E+03  0.59407992106E+03  0.80999189360E+02 0.  0.
         25    2    1    2    0    0  0.26580188553E+02 -0.89175754160E+02  0.83725743833E+01  0.15613233569E+03  0.12509350381E+03 0.  0.
         24    2    1    2    0    0 -0.41096289803E+01  0.83457677645E+02  0.18540431572E+03  0.21890713269E+03  0.81015427233E+02 0.  0.
        -13    1    5    5    0    0  0.32719819882E+02  0.51204169215E+02  0.13788632264E+03  0.15068208762E+03  0.00000000000E+00 0.  1.
         14    1    5    5    0    0 -0.36829448862E+02  0.32253508430E+02  0.47517993080E+02  0.68225045078E+02  0.00000000000E+00 0. -1.
         13    1    3    3    0    0  0.23169537934E+02  0.14635456983E+02 -0.37446312981E+03  0.37546459177E+03  0.00000000000E+00 0. -1.
        -14    1    3    3    0    0 -0.45640097507E+02 -0.89173804686E+01 -0.21361208773E+03  0.21861532928E+03  0.00000000000E+00 0.  1.
          5    1    4    4  501    0 -0.25978285963E+02  0.17708139106E+02 -0.14338887167E+02  0.34806976562E+02  0.41800000000E+01 0. -1.
         -5    1    4    4    0  501  0.52558474516E+02 -0.10688389327E+03  0.22711461550E+02  0.12132535913E+03  0.41800000000E+01 0. -1.
</event>
<event>
11    1  0.6930157E-009  0.1607278E+03  0.7561462E-02  0.1086395E+00
         22   -1    0    0    0    0  0.00000000000E+00  0.00000000000E+00  0.11758311336E+04  0.11758311336E+04  0.00000000000E+00 0.  1.
         22   -1    0    0    0    0 -0.00000000000E+00 -0.00000000000E+00 -0.68980587876E+03  0.68980587876E+03  0.00000000000E+00 0.  1.
        -24    2    1    2    0    0 -0.37329291610E+02  0.88011059931E+02 -0.66140753460E+03  0.67312367823E+03  0.80598614639E+02 0.  0.
         25    2    1    2    0    0  0.11728304704E+03 -0.18578359661E+02  0.43873528564E+03  0.47142046085E+03  0.12509249168E+03 0.  0.
         24    2    1    2    0    0 -0.79953755433E+02 -0.69432700271E+02  0.70869750383E+03  0.72109287330E+03  0.80680091216E+02 0.  0.
        -11    1    5    5    0    0 -0.95406185844E+02 -0.68785468073E+02  0.63209276848E+03  0.64294249267E+03  0.00000000000E+00 0.  1.
         12    1    5    5    0    0  0.15452430411E+02 -0.64723219782E+00  0.76604735351E+02  0.78150380635E+02  0.00000000000E+00 0. -1.
         11    1    3    3    0    0 -0.52183873462E+01 -0.90787638776E+01 -0.21071778654E+03  0.21097782131E+03  0.00000000000E+00 0. -1.
        -12    1    3    3    0    0 -0.32110904264E+02  0.97089823809E+02 -0.45068974806E+03  0.46214585692E+03  0.00000000000E+00 0.  1.
          5    1    4    4  501    0  0.10982320580E+03  0.31286910291E+02  0.23240566725E+03  0.25897852007E+03  0.41800000000E+01 0. -1.
         -5    1    4    4    0  501  0.74598412422E+01 -0.49865269952E+02  0.20632961839E+03  0.21244194078E+03  0.41800000000E+01 0. -1.
</event>
<event>
11    1  0.6930157E-009  0.2171440E+03  0.7561462E-02  0.1043021E+00
         22   -1    0    0    0    0  0.00000000000E+00  0.00000000000E+00  0.13026300475E+04  0.13026300475E+04  0.00000000000E+00 0. -1.
         22   -1    0    0    0    0 -0.00000000000E+00 -0.00000000000E+00 -0.68070951757E+03  0.68070951757E+03  0.00000000000E+00 0.  1.
         24    2    1    2    0    0 -0.16581807479E+02 -0.59099718371E+02 -0.62436535017E+03  0.63268286583E+03  0.81778879784E+02 0.  0.
         25    2    1    2    0    0 -0.13986991497E+03 -0.40609688887E+02  0.17220397781E+03  0.25790516539E+03  0.12509246346E+03 0.  0.
        -24    2    1    2    0    0  0.15645172245E+03  0.99709407258E+02  0.10740819023E+04  0.10927515338E+04  0.77684455045E+02 0.  0.
        -11    1    3    3    0    0 -0.13811937960E+02 -0.70014395737E+02 -0.61122792604E+03  0.61537985245E+03  0.00000000000E+00 0.  1.
         12    1    3    3    0    0 -0.27698695185E+01  0.10914677367E+02 -0.13137424130E+02  0.17303013377E+02  0.00000000000E+00 0. -1.
         13    1    5    5    0    0  0.92144955673E+02  0.64082675644E+02  0.83813909310E+03  0.84562073150E+03  0.00000000000E+00 0. -1.
        -14    1    5    5    0    0  0.64306766775E+02  0.35626731613E+02  0.23594280919E+03  0.24713080234E+03  0.00000000000E+00 0.  1.
          5    1    4    4  501    0 -0.30772220351E+02 -0.63636033455E+02  0.10808643488E+03  0.12921541744E+03  0.41800000000E+01 0.  1.
         -5    1    4    4    0  501 -0.10909769462E+03  0.23026344568E+02  0.64117542931E+02  0.12868974795E+03  0.41800000000E+01 0.  1.
</event>
<event>
11    1  0.6930157E-009  0.1671681E+03  0.7561462E-02  0.1080523E+00
         22   -1    0    0    0    0  0.00000000000E+00  0.00000000000E+00  0.12966068680E+04  0.12966068680E+04  0.00000000000E+00 0.  1.
         22   -1    0    0    0    0 -0.00000000000E+00 -0.00000000000E+00 -0.53224739454E+03  0.53224739454E+03  0.00000000000E+00 0. -1.
        -24    2    1    2    0    0 -0.26766808485E+02  0.10564800343E+03 -0.46623061479E+03  0.48547412301E+03  0.80225776938E+02 0.  0.
         25    2    1    2    0    0  0.66835123833E+02 -0.13272541309E+03  0.11904624458E+03  0.22782069181E+03  0.12508912906E+03 0.  0.
         24    2    1    2    0    0 -0.40068315348E+02  0.27077409664E+02  0.11115438437E+04  0.11155594477E+04  0.81268130335E+02 0.  0.
        -13    1    5    5    0    0 -0.64409983246E+02  0.15649094075E+02  0.87060185188E+03  0.87312148329E+03  0.00000000000E+00 0.  1.
         14    1    5    5    0    0  0.24341667898E+02  0.11428315589E+02  0.24094199179E+03  0.24243796444E+03  0.00000000000E+00 0. -1.
         11    1    3    3    0    0 -0.10032588344E+02  0.10837968088E+03 -0.44594399715E+03  0.45903470092E+03  0.00000000000E+00 0. -1.
        -12    1    3    3    0    0 -0.16734220141E+02 -0.27316774469E+01 -0.20286617638E+02  0.26439422093E+02  0.00000000000E+00 0.  1.
          5    1    4    4  501    0  0.59618203203E+02 -0.15684344966E+03  0.11030685319E+03  0.20084638935E+03  0.41800000000E+01 0. -1.
         -5    1    4    4    0  501  0.72169206306E+01  0.24118036566E+02  0.87393913893E+01  0.26974302457E+02  0.41800000000E+01 0. -1.
</event>
<event>
11    1  0.6930157E-009  0.2100062E+03  0.7561462E-02  0.1047665E+00
         22   -1    0    0    0    0  0.00000000000E+00  0.00000000000E+00  0.16014743129E+03  0.16014743129E+03  0.00000000000E+00 0. -1.
         22   -1    0    0    0    0 -0.00000000000E+00 -0.00000000000E+00 -0.11547324187E+04  0.11547324187E+04  0.00000000000E+00 0.  1.
        -24    2    1    2    0    0  0.21569173441E+02 -0.17228685342E+03 -0.95430028639E+03  0.97321341724E+03  0.79418699265E+02 0.  0.
         25    2    1    2    0    0 -0.55457546076E+02  0.13362826576E+03 -0.11296426321E+03  0.22212864119E+03  0.12509258829E+03 0.  0.
         24    2    1    2    0    0  0.33888372636E+02  0.38658587660E+02  0.72679562230E+02  0.11953779151E+03  0.79775037662E+02 0.  0.
        -11    1    5    5    0    0  0.32062149158E+00  0.46807251981E+01 -0.17160570084E+02  0.17790366835E+02  0.00000000000E+00 0.  1.
         12    1    5    5    0    0  0.33567751144E+02  0.33977862462E+02  0.89840132314E+02  0.10174742468E+03  0.00000000000E+00 0. -1.
         11    1    3    3    0    0 -0.20040038296E+02 -0.92458463962E+01 -0.88228830784E+02  0.90947322071E+02  0.00000000000E+00 0. -1.
        -12    1    3    3    0    0  0.41609211737E+02 -0.16304100703E+03 -0.86607145561E+03  0.88226609517E+03  0.00000000000E+00 0.  1.
          5    1    4    4  501    0 -0.64763769632E+02  0.13962740252E+03 -0.55831182871E+02  0.16378263269E+03  0.41800000000E+01 0. -1.
         -5    1    4    4    0  501  0.93062235562E+01 -0.59991367543E+01 -0.57133080334E+02  0.58346008494E+02  0.41800000000E+01 0. -1.
</event>
<event>
11    1  0.6930157E-009  0.1481383E+03  0.7561462E-02  0.1098796E+00
         22   -1    0    0    0    0  0.00000000000E+00  0.00000000000E+00  0.23007468690E+04  0.23007468690E+04  0.00000000000E+00 0.  1.
         22   -1    0    0    0    0 -0.00000000000E+00 -0.00000000000E+00 -0.29059175526E+03  0.29059175526E+03  0.00000000000E+00 0. -1.
         24    2    1    2    0    0 -0.57731420082E+02 -0.54112120992E+02 -0.26376602357E+03  0.28708803844E+03  0.81154101069E+02 0.  0.
         25    2    1    2    0    0  0.74979721532E+02  0.48017099534E+02  0.39886331827E+03  0.42739517579E+03  0.12508832535E+03 0.  0.
        -24    2    1    2    0    0 -0.17248301450E+02  0.60950214581E+01  0.18750578190E+04  0.18768554100E+04  0.80060927935E+02 0.  0.
        -13    1    3    3    0    0 -0.12352561646E+02  0.17791952574E+02 -0.22291134343E+02  0.31081087914E+02  0.00000000000E+00 0.  1.
         14    1    3    3    0    0 -0.45378858435E+02 -0.71904073566E+02 -0.24147488923E+03  0.25600695052E+03  0.00000000000E+00 0. -1.
         13    1    5    5    0    0  0.16847651437E+02  0.30579297106E+02  0.53357808718E+03  0.53471909624E+03  0.00000000000E+00 0. -1.
        -14    1    5    5    0    0 -0.34095952887E+02 -0.24484275648E+02  0.13414797319E+04  0.13421363138E+04  0.00000000000E+00 0.  1.
          5    1    4    4  501    0 -0.21224645903E+02 -0.12042262644E+02  0.17153398404E+03  0.17331151654E+03  0.41800000000E+01 0. -1.
         -5    1    4    4    0  501  0.96204367435E+02  0.60059362178E+02  0.22732933423E+03  0.25408365925E+03  0.41800000000E+01 0. -1.
</event>
<event>
11    1  0.6930157E-009  0.1282409E+03  0.7561462E-02  0.1121449E+00
         22   -1    0    0    0    0  0.00000000000E+00  0.00000000000E+00  0.20744982982E+04  0.20744982982E+04  0.00000000000E+00 0. -1.
         22   -1    0    0    0    0 -0.00000000000E+00 -0.00000000000E+00 -0.75577329018E+03  0.75577329018E+03  0.00000000000E+00 0.  1.
        -24    2    1    2    0    0  0.15598473760E+02  0.24127655724E+02 -0.71818202432E+03  0.72353879953E+03  0.83051298674E+02 0.  0.
         25    2    1    2    0    0  0.12531058882E+02 -0.17654463549E+02  0.85067817719E+02  0.15281518703E+03  0.12508892939E+03 0.  0.
         24    2    1    2    0    0 -0.28129532642E+02 -0.64731921751E+01  0.19518392146E+04  0.19539176018E+04  0.85349294623E+02 0.  0.
        -11    1    5    5    0    0  0.28911860867E+02  0.17205666889E+01  0.42159012201E+03  0.42258382249E+03  0.00000000000E+00 0.  1.
         12    1    5    5    0    0 -0.57041393509E+02 -0.81937588640E+01  0.15302490926E+04  0.15313337793E+04  0.00000000000E+00 0. -1.
         11    1    3    3    0    0 -0.10742698973E+02 -0.13892546771E+01 -0.11111279222E+02  0.15517607281E+02  0.00000000000E+00 0. -1.
        -12    1    3    3    0    0  0.26341172732E+02  0.25516910401E+02 -0.70707074510E+03  0.70802119225E+03  0.00000000000E+00 0.  1.
          5    1    4    4  501    0  0.46451455927E+02  0.68266696153E+01 -0.10603897155E+02  0.48314140898E+02  0.41800000000E+01 0.  1.
         -5    1    4    4    0  501 -0.33920397045E+02 -0.24481133164E+02  0.95671714874E+02  0.10450104614E+03  0.41800000000E+01 0.  1.
</event>
<event>
11    1  0.6930157E-009  0.1499338E+03  0.7561462E-02  0.1096946E+00
         22   -1    0    0    0    0  0.00000000000E+00  0.00000000000E+00  0.32807772840E+03  0.32807772840E+03  0.00000000000E+00 0.  1.
         22   -1    0    0    0    0 -0.00000000000E+00 -0.00000000000E+00 -0.17407952451E+04  0.17407952451E+04  0.00000000000E+00 0. -1.
         24    2    1    2    0    0 -0.44510002670E+02 -0.71326294369E+02 -0.14396076351E+04  0.14442788120E+04  0.80016018333E+02 0.  0.
         25    2    1    2    0    0 -0.47636828619E+01  0.84592561988E+02 -0.27182440161E+03  0.31099010380E+03  0.12509094745E+03 0.  0.
        -24    2    1    2    0    0  0.49273685532E+02 -0.13266267619E+02  0.29871452003E+03  0.31360405767E+03  0.80704712192E+02 0.  0.
        -11    1    3    3    0    0  0.22160401881E+02 -0.10171509860E+02 -0.22866961198E+03  0.22996594197E+03  0.00000000000E+00 0.  1.
         12    1    3    3    0    0 -0.66670404551E+02 -0.61154784509E+02 -0.12109380231E+04  0.12143128701E+04  0.00000000000E+00 0. -1.
         11    1    5    5    0    0  0.17814417443E+02  0.29103005515E+02  0.59064253512E+02  0.68212348162E+02  0.00000000000E+00 0. -1.
        -12    1    5    5    0    0  0.31459268089E+02 -0.42369273135E+02  0.23965026652E+03  0.24539170951E+03  0.00000000000E+00 0.  1.
          5    1    4    4  501    0 -0.46149676929E+02  0.26877301773E+02 -0.21003997543E+03  0.21676357099E+03  0.41800000000E+01 0.  1.
         -5    1    4    4    0  501  0.41385994067E+02  0.57715260214E+02 -0.61784426179E+02  0.94226532807E+02  0.41800000000E+01 0.  1.
</event>
<event>
11    1  0.6930157E-009  0.1366895E+03  0.7561462E-02  0.1111312E+00
         22   -1    0    0    0    0  0.00000000000E+00  0.00000000000E+00  0.13910997108E+04  0.13910997108E+04  0.00000000000E+00 0. -1.
         22   -1    0    0    0    0 -0.00000000000E+00 -0.00000000000E+00 -0.55057805539E+03  0.55057805539E+03  0.00000000000E+00 0. -1.
        -24    2    1    2    0    0  0.37174704230E+01  0.49344941634E+02 -0.39085391294E+03  0.40191321305E+03  0.79490293157E+02 0.  0.
         25    2    1    2    0    0  0.34031023882E+02 -0.88946750989E+02 -0.11182102638E+03  0.19292794962E+03  0.12509043411E+03 0.  0.
         24    2    1    2    0    0 -0.37748494305E+02  0.39601809355E+02  0.13431965947E+04  0.13468366035E+04  0.82452970456E+02 0.  0.
        -13    1    5    5    0    0 -0.60553639873E+02  0.44804003381E+02  0.98373809710E+03  0.98661785191E+03  0.00000000000E+00 0.  1.
         14    1    5    5    0    0  0.22805145568E+02 -0.52021940254E+01  0.35945849764E+03  0.36021875161E+03  0.00000000000E+00 0. -1.
         11    1    3    3    0    0  0.17178254094E+02  0.67892812974E+02 -0.31400594238E+03  0.32172077694E+03  0.00000000000E+00 0. -1.
        -12    1    3    3    0    0 -0.13460783671E+02 -0.18547871340E+02 -0.76847970565E+02  0.80192436103E+02  0.00000000000E+00 0.  1.
          5    1    4    4  501    0  0.64779110985E+02 -0.98611019891E+02 -0.61748263112E+02  0.13323207895E+03  0.41800000000E+01 0.  1.
         -5    1    4    4    0  501 -0.30748087103E+02  0.96642689021E+01 -0.50072763269E+02  0.59695870672E+02  0.41800000000E+01 0.  1.
</event>
<event>
11    1  0.6930157E-009  0.2089604E+03  0.7561462E-02  0.1048362E+00
         22   -1    0    0    0    0  0.00000000000E+00  0.00000000000E+00  0.74047327404E+03  0.74047327404E+03  0.00000000000E+00 0.  1.
         22   -1    0    0    0    0 -0.00000000000E+00 -0.00000000000E+00 -0.27427776721E+03  0.27427776721E+03  0.00000000000E+00 0.  1.
         24    2    1    2    0    0 -0.60087352982E+02  0.97757773303E+01 -0.20823325268E+03  0.23033599147E+03  0.77379103329E+02 0.  0.
         25    2    1    2    0    0  0.43760266705E+01  0.16071079679E+03  0.35831485356E+03  0.41217027667E+03  0.12509073856E+03 0.  0.
        -24    2    1    2    0    0  0.55711326312E+02 -0.17048657412E+03  0.31611390594E+03  0.37224477311E+03  0.80428513250E+02 0.  0.
        -11    1    3    3    0    0 -0.43326499479E+02 -0.18170372751E+02 -0.18351825313E+03  0.18943678955E+03  0.00000000000E+00 0.  1.
         12    1    3    3    0    0 -0.16760853503E+02  0.27946150082E+02 -0.24714999548E+02  0.40899201914E+02  0.00000000000E+00 0. -1.
         11    1    5    5    0    0 -0.94129533578E+01 -0.29356744768E+02  0.10911787342E+03  0.11338929603E+03  0.00000000000E+00 0. -1.
        -12    1    5    5    0    0  0.65124279670E+02 -0.14112982935E+03  0.20699603252E+03  0.25885547708E+03  0.00000000000E+00 0.  1.
          5    1    4    4  501    0 -0.47045976139E+02  0.21165668459E+02  0.12699459704E+03  0.13713646295E+03  0.41800000000E+01 0.  1.
         -5    1    4    4    0  501  0.51422002810E+02  0.13954512833E+03  0.23132025652E+03  0.27503381372E+03  0.41800000000E+01 0.  1.
</event>
<event>
11    1  0.6930157E-009  0.1604835E+03  0.7561462E-02  0.1086623E+00
         22   -1    0    0    0    0  0.00000000000E+00  0.00000000000E+00  0.47086374933E+02  0.47086374933E+02  0.00000000000E+00 0. -1.
         22   -1    0    0    0    0 -0.00000000000E+00 -0.00000000000E+00 -0.26895975850E+04  0.26895975850E+04  0.00000000000E+00 0.  1.
         24    2    1    2    0    0 -0.54590426483E+02 -0.10250430520E+02 -0.15697742920E+04  0.15727431651E+04  0.79022462407E+02 0.  0.
         25    2    1    2    0    0  0.14509548201E+03  0.38671894296E+02 -0.99388451765E+03  0.10129178702E+04  0.12509181881E+03 0.  0.
        -24    2    1    2    0    0 -0.90505055527E+02 -0.28421463776E+02 -0.78852400410E+02  0.15102292458E+03  0.87127940512E+02 0.  0.
        -13    1    3    3    0    0 -0.26507994092E+02 -0.31982316946E+02 -0.12972925364E+04  0.12979574212E+04  0.00000000000E+00 0.  1.
         14    1    3    3    0    0 -0.28082432391E+02  0.21731886426E+02 -0.27248175562E+03  0.27478574389E+03  0.00000000000E+00 0. -1.
         13    1    5    5    0    0 -0.85325273656E+02 -0.19851378472E+02 -0.18104631831E+02  0.89455336596E+02  0.00000000000E+00 0. -1.
        -14    1    5    5    0    0 -0.51797818708E+01 -0.85700853041E+01 -0.60747768579E+02  0.61567587980E+02  0.00000000000E+00 0.  1.
          5    1    4    4  501    0 -0.14373968407E+02  0.27006490251E+02 -0.25860780859E+03  0.26044468232E+03  0.41800000000E+01 0. -1.
         -5    1    4    4    0  501  0.15946945042E+03  0.11665404045E+02 -0.73527670906E+03  0.75247318793E+03  0.41800000000E+01 0. -1.
</event>
<event>
11    1  0.6930157E-009  0.1685347E+03  0.7561462E-02  0.1079314E+00
         22   -1    0    0    0    0  0.00000000000E+00  0.00000000000E+00  0.79089897333E+03  0.79089897333E+03  0.00000000000E+00 0.  1.
         22   -1    0    0    0    0 -0.00000000000E+00 -0.00000000000E+00 -0.77326113296E+03  0.77326113296E+03  0.00000000000E+00 0.  1.
         24    2    1    2    0    0  0.32594206687E+02  0.10639493655E+03 -0.69494571633E+03  0.70773138533E+03  0.74511075096E+02 0.  0.
         25    2    1    2    0    0  0.31403266452E+02 -0.17650568165E+03  0.11689392399E+03  0.24789518937E+03  0.12508962645E+03 0.  0.
        -24    2    1    2    0    0 -0.63997473139E+02  0.70110745100E+02  0.59568963271E+03  0.60853353159E+03  0.80347541367E+02 0.  0.
        -11    1    3    3    0    0  0.70866848111E+01  0.70438242991E+02 -0.22870948353E+03  0.23941552797E+03  0.00000000000E+00 0.  1.
         12    1    3    3    0    0  0.25507521876E+02  0.35956693559E+02 -0.46623623280E+03  0.46831585737E+03  0.00000000000E+00 0. -1.
         13    1    5    5    0    0 -0.24730428646E+02 -0.35581160577E+01  0.44298572295E+02  0.50858802564E+02  0.00000000000E+00 0. -1.
        -14    1    5    5    0    0 -0.39267044493E+02  0.73668861158E+02  0.55139106041E+03  0.55767472902E+03  0.00000000000E+00 0.  1.
          5    1    4    4  501    0  0.69404172375E+02 -0.14823308663E+03  0.11542146735E+03  0.20032367469E+03  0.41800000000E+01 0.  1.
         -5    1    4    4    0  501 -0.38000905924E+02 -0.28272595021E+02  0.14724566377E+01  0.47571514679E+02  0.41800000000E+01 0.  1.
</event>
<event>
11    1  0.6930157E-009  0.3345927E+03  0.7561462E-02  0.9865282E-01
         22   -1    0    0    0    0  0.00000000000E+00  0.00000000000E+00  0.40293086961E+03  0.40293086961E+03  0.00000000000E+00 0. -1.
         22   -1    0    0    0    0 -0.00000000000E+00 -0.00000000000E+00 -0.13567966958E+04  0.13567966958E+04  0.00000000000E+00 0.  1.
         24    2    1    2    0    0  0.30142005948E+03  0.24008707446E+01 -0.10576297937E+04  0.11025819607E+04  0.79034063415E+02 0.  0.
         25    2    1    2    0    0 -0.36655778570E+03  0.14386483255E+02 -0.12288476572E+03  0.40659604100E+03  0.12509234091E+03 0.  0.
        -24    2    1    2    0    0  0.65137726213E+02 -0.16787353999E+02  0.22664873321E+03  0.25054956371E+03  0.82949966710E+02 0.  0.
        -13    1    3    3    0    0  0.13005328628E+03  0.13562424519E+02 -0.59264497953E+03  0.60689856516E+03  0.00000000000E+00 0.  1.
         14    1    3    3    0    0  0.17136677320E+03 -0.11161553775E+02 -0.46498481413E+03  0.49568339554E+03  0.00000000000E+00 0. -1.
         13    1    5    5    0    0  0.68614510533E+02 -0.20662367028E+02  0.95990058778E+02  0.11978721072E+03  0.00000000000E+00 0. -1.
        -14    1    5    5    0    0 -0.34767843204E+01  0.38750130289E+01  0.13065867443E+03  0.13076235299E+03  0.00000000000E+00 0.  1.
          5    1    4    4  501    0 -0.13176734882E+03 -0.35277473462E+02 -0.92020972624E+02  0.16459789230E+03  0.41800000000E+01 0.  1.
         -5    1    4    4    0  501 -0.23479043688E+03  0.49663956716E+02 -0.30863793097E+02  0.24199814869E+03  0.41800000000E+01 0.  1.
</event>
<event>
11    1  0.6930157E-009  0.1340633E+03  0.7561462E-02  0.1114375E+00
         22   -1    0    0    0    0  0.00000000000E+00  0.00000000000E+00  0.91638259116E+02  0.91638259116E+02  0.00000000000E+00 0.  1.
         22   -1    0    0    0    0 -0.00000000000E+00 -0.00000000000E+00 -0.64101643834E+03  0.64101643834E+03  0.00000000000E+00 0.  1.
         24    2    1    2    0    0  0.43719937376E+02 -0.26750490233E+02 -0.46169076258E+03  0.47063032826E+03  0.75548156659E+02 0.  0.
         25    2    1    2    0    0 -0.39326385125E+02 -0.27760573498E+02 -0.96426579296E+02  0.16511415199E+03  0.12508950389E+03 0.  0.
        -24    2    1    2    0    0 -0.43935522506E+01  0.54511063731E+02  0.87391626506E+01  0.96910217210E+02  0.79526460159E+02 0.  0.
        -11    1    3    3    0    0  0.19913686838E+02  0.24427248436E+02 -0.23073390428E+03  0.23287631905E+03  0.00000000000E+00 0.  1.
         12    1    3    3    0    0  0.23806250538E+02 -0.51177738669E+02 -0.23095685830E+03  0.23775400921E+03  0.00000000000E+00 0. -1.
         11    1    5    5    0    0  0.74353826869E+01  0.71123842926E+02 -0.59776034110E+01  0.71760836748E+02  0.00000000000E+00 0. -1.
        -12    1    5    5    0    0 -0.11828934937E+02 -0.16612779194E+02  0.14716766062E+02  0.25149380462E+02  0.00000000000E+00 0.  1.
          5    1    4    4  501    0 -0.87715314617E+01 -0.74092533613E+02 -0.35950902767E+02  0.82925165729E+02  0.41800000000E+01 0. -1.
         -5    1    4    4    0  501 -0.30554853663E+02  0.46331960115E+02 -0.60475676530E+02  0.82188986258E+02  0.41800000000E+01 0. -1.
</event>
<event>
11    1  0.6930157E-009  0.1819378E+03  0.7561462E-02  0.1068086E+00
         22   -1    0    0    0    0  0.00000000000E+00  0.00000000000E+00  0.22329892805E+04  0.22329892805E+04  0.00000000000E+00 0. -1.
         22   -1    0    0    0    0 -0.00000000000E+00 -0.00000000000E+00 -0.17236327584E+03  0.17236327584E+03  0.00000000000E+00 0. -1.
         24    2    1    2    0    0 -0.97163892529E+01 -0.67972927788E+01 -0.10237463634E+03  0.13034505000E+03  0.79803850069E+02 0.  0.
         25    2    1    2    0    0 -0.12263025045E+03 -0.20807302649E+01  0.91471354081E+02  0.19762765846E+03  0.12508866858E+03 0.  0.
        -24    2    1    2    0    0  0.13234663970E+03  0.88780230437E+01  0.20715292869E+04  0.20773798478E+04  0.81725109357E+02 0.  0.
        -13    1    3    3    0    0  0.23796116645E+02 -0.94070624999E+01 -0.33936404480E+01  0.25812105450E+02  0.00000000000E+00 0.  1.
         14    1    3    3    0    0 -0.33512505898E+02  0.26097697211E+01 -0.98980995889E+02  0.10453294455E+03  0.00000000000E+00 0. -1.
         11    1    5    5    0    0  0.52011766925E+02 -0.11237964161E+02  0.13611312902E+04  0.13621710263E+04  0.00000000000E+00 0. -1.
        -12    1    5    5    0    0  0.80334872776E+02  0.20115987205E+02  0.71039799664E+03  0.71520882150E+03  0.00000000000E+00 0.  1.
          5    1    4    4  501    0 -0.45321356762E+02 -0.58967812688E+02  0.62622841121E+02  0.97315573995E+02  0.41800000000E+01 0. -1.
         -5    1    4    4    0  501 -0.77308893686E+02  0.56887082423E+02  0.28848512960E+02  0.10031208446E+03  0.41800000000E+01 0. -1.
</event>
<event>
11    1  0.6930157E-009  0.3384425E+03  0.7561462E-02  0.9851179E-01
         22   -1    0    0    0    0  0.00000000000E+00  0.00000000000E+00  0.81925272510E+03  0.81925272510E+03  0.00000000000E+00 0.  1.
         22   -1    0    0    0    0 -0.00000000000E+00 -0.00000000000E+00 -0.86152887709E+03  0.86152887709E+03  0.00000000000E+00 0.  1.
         24    2    1    2    0    0 -0.77228458001E+01  0.22266766682E+02 -0.71070835837E+03  0.71578436895E+03  0.81764545654E+02 0.  0.
         25    2    1    2    0    0 -0.80931405349E+02  0.28781141879E+03  0.17100736131E+03  0.36643636549E+03  0.12508711834E+03 0.  0.
        -24    2    1    2    0    0  0.88654251149E+02 -0.31007818547E+03  0.49742484507E+03  0.59856086775E+03  0.82677557793E+02 0.  0.
        -11    1    3    3    0    0 -0.57687351130E+01 -0.26205065358E+02 -0.43604996338E+03  0.43687475816E+03  0.00000000000E+00 0.  1.
         12    1    3    3    0    0 -0.19541106871E+01  0.48471832039E+02 -0.27465839499E+03  0.27890961079E+03  0.00000000000E+00 0. -1.
         13    1    5    5    0    0  0.26067507162E+02 -0.33678828691E+02  0.30576605626E+02  0.52428115008E+02  0.00000000000E+00 0. -1.
        -14    1    5    5    0    0  0.62586743987E+02 -0.27639935678E+03  0.46684823945E+03  0.54613275275E+03  0.00000000000E+00 0.  1.
          5    1    4    4  501    0 -0.97982886090E+02  0.27376584320E+03  0.12762747545E+03  0.31757617631E+03  0.41800000000E+01 0.  1.
         -5    1    4    4    0  501  0.17051480741E+02  0.14045575582E+02  0.43379885860E+02  0.48860189174E+02  0.41800000000E+01 0.  1.
</event>
<event>
11    1  0.6930157E-009  0.2100942E+03  0.7561462E-02  0.1047606E+00
         22   -1    0    0    0    0  0.00000000000E+00  0.00000000000E+00  0.52284270164E+02  0.52284270164E+02  0.00000000000E+00 0.  1.
         22   -1    0    0    0    0 -0.00000000000E+00 -0.00000000000E+00 -0.29516612678E+04  0.29516612678E+04  0.00000000000E+00 0. -1.
         24    2    1    2    0    0  0.16728719450E+02 -0.12071177233E+02 -0.17582856834E+04  0.17602657280E+04  0.80878459304E+02 0.  0.
         25    2    1    2    0    0  0.55057731927E+02  0.16398594921E+03 -0.95942339154E+03  0.98289097381E+03  0.12513463467E+03 0.  0.
        -24    2    1    2    0    0 -0.71786451378E+02 -0.15191477198E+03 -0.18166792265E+03  0.26078883615E+03  0.82317618972E+02 0.  0.
        -13    1    3    3    0    0  0.36178100877E+01 -0.34262458829E+02 -0.33904562339E+03  0.34079163630E+03  0.00000000000E+00 0.  1.
         14    1    3    3    0    0  0.13110909362E+02  0.22191281595E+02 -0.14192400601E+04  0.14194740917E+04  0.00000000000E+00 0. -1.
         13    1    5    5    0    0  0.18147804809E+02 -0.26025855318E+02 -0.23082749221E+02  0.39236478894E+02  0.00000000000E+00 0. -1.
        -14    1    5    5    0    0 -0.89934256186E+02 -0.12588891666E+03 -0.15858517342E+03  0.22155235725E+03  0.00000000000E+00 0.  1.
          5    1    4    4  501    0  0.46415189649E+02  0.38349500579E+02 -0.57913978030E+03  0.58227606128E+03  0.41800000000E+01 0. -1.
         -5    1    4    4    0  501  0.86425422789E+01  0.12563644863E+03 -0.38028361124E+03  0.40061491253E+03  0.41800000000E+01 0. -1.
</event>
<event>
11    1  0.6930157E-009  0.1283993E+03  0.7561462E-02  0.1121252E+00
         22   -1    0    0    0    0  0.00000000000E+00  0.00000000000E+00  0.17808604502E+03  0.17808604502E+03  0.00000000000E+00 0. -1.
         22   -1    0    0    0    0 -0.00000000000E+00 -0.00000000000E+00 -0.31783120095E+03  0.31783120095E+03  0.00000000000E+00 0.  1.
        -24    2    1    2    0    0 -0.15061923423E+02  0.20387657345E+02 -0.13305473719E+03  0.15702149174E+03  0.79433416589E+02 0.  0.
         25    2    1    2    0    0  0.80170675316E+01 -0.38484445403E+02 -0.13419239673E+03  0.18761075492E+03  0.12507945519E+03 0.  0.
         24    2    1    2    0    0  0.70448558915E+01  0.18096788057E+02  0.12750197799E+03  0.15128499932E+03  0.79077638405E+02 0.  0.
        -11    1    5    5    0    0 -0.17637934095E+02  0.10554700373E+02 -0.64491468983E+00  0.20564881085E+02  0.00000000000E+00 0.  1.
         12    1    5    5    0    0  0.24682789987E+02  0.75420876849E+01  0.12814689268E+03  0.13072011823E+03  0.00000000000E+00 0. -1.
         11    1    3    3    0    0 -0.15236659436E+02 -0.13697275822E+02 -0.86348045275E+00  0.20506505168E+02  0.00000000000E+00 0. -1.
        -12    1    3    3    0    0  0.17473601298E+00  0.34084933167E+02 -0.13219125673E+03  0.13651498657E+03  0.00000000000E+00 0.  1.
          5    1    4    4  501    0  0.62592736914E+02  0.22714214307E+01 -0.60717507290E+02  0.87333259193E+02  0.41800000000E+01 0.  1.
         -5    1    4    4    0  501 -0.54575669383E+02 -0.40755866833E+02 -0.73474889442E+02  0.10027749572E+03  0.41800000000E+01 0.  1.
</event>
<event>
11    1  0.6930157E-009  0.1395804E+03  0.7561462E-02  0.1108028E+00
         22   -1    0    0    0    0  0.00000000000E+00  0.00000000000E+00  0.17413361232E+04  0.17413361232E+04  0.00000000000E+00 0. -1.
         22   -1    0    0    0    0 -0.00000000000E+00 -0.00000000000E+00 -0.97297811391E+03  0.97297811391E+03  0.00000000000E+00 0.  1.
         24    2    1    2    0    0  0.55792566366E+02 -0.57221182017E+00 -0.39511246407E+03  0.40748962689E+03  0.82588127876E+02 0.  0.
         25    2    1    2    0    0 -0.66369081562E+02  0.37646774031E+02 -0.56110015211E+03  0.57991896412E+03  0.12510191714E+03 0.  0.
        -24    2    1    2    0    0  0.10576515196E+02 -0.37074562211E+02  0.17245706255E+04  0.17269056461E+04  0.81073315379E+02 0.  0.
        -13    1    3    3    0    0  0.40408743412E+02 -0.20646077438E+02 -0.36651439841E+03  0.36931278247E+03  0.00000000000E+00 0.  1.
         14    1    3    3    0    0  0.15383822954E+02  0.20073865618E+02 -0.28598065664E+02  0.38176844412E+02  0.00000000000E+00 0. -1.
         11    1    5    5    0    0 -0.13433751169E+02 -0.44379711580E+02  0.15326243715E+04  0.15333256303E+04  0.00000000000E+00 0. -1.
        -12    1    5    5    0    0  0.24010266365E+02  0.73051493688E+01  0.19194625400E+03  0.19358001581E+03  0.00000000000E+00 0.  1.
          5    1    4    4  501    0 -0.66413597198E+02 -0.29597918589E+02 -0.20629739107E+03  0.21877588679E+03  0.41800000000E+01 0.  1.
         -5    1    4    4    0  501  0.44515635553E-01  0.67244692620E+02 -0.35480276103E+03  0.36114307733E+03  0.41800000000E+01 0.  1.
</event>
<event>
11    1  0.6930157E-009  0.2029359E+03  0.7561462E-02  0.1052467E+00
         22   -1    0    0    0    0  0.00000000000E+00  0.00000000000E+00  0.17154062715E+04  0.17154062715E+04  0.00000000000E+00 0. -1.
         22   -1    0    0    0    0 -0.00000000000E+00 -0.00000000000E+00 -0.19641930671E+03  0.19641930671E+03  0.00000000000E+00 0.  1.
        -24    2    1    2    0    0 -0.17621959420E+03  0.65751437354E+02 -0.10545020016E+03  0.22941395859E+03  0.78322556053E+02 0.  0.
         25    2    1    2    0    0  0.71925174512E+02  0.26542171341E+02  0.19492078546E+03  0.24393943498E+03  0.12503846508E+03 0.  0.
         24    2    1    2    0    0  0.10429441969E+03 -0.92293608695E+02  0.14295163794E+04  0.14384721846E+04  0.79307695403E+02 0.  0.
        -13    1    5    5    0    0  0.40260656355E+02  0.61638665383E+01  0.27547523753E+03  0.27846996282E+03  0.00000000000E+00 0.  1.
         14    1    5    5    0    0  0.64033763336E+02 -0.98457475233E+02  0.11540411419E+04  0.11600022218E+04  0.00000000000E+00 0. -1.
         13    1    3    3    0    0 -0.19794202578E+02  0.40777588452E+02 -0.22609244442E+02  0.50653727502E+02  0.00000000000E+00 0. -1.
        -14    1    3    3    0    0 -0.15642539163E+03  0.24973848902E+02 -0.82840955722E+02  0.17876023109E+03  0.00000000000E+00 0.  1.
          5    1    4    4  501    0 -0.44823019466E+01 -0.42745900827E+02  0.64226545495E+02  0.77393957222E+02  0.41800000000E+01 0.  1.
         -5    1    4    4    0  501  0.76407476459E+02  0.69288072168E+02  0.13069423996E+03  0.16654547776E+03  0.41800000000E+01 0.  1.
</event>
<event>
11    1  0.6930157E-009  0.1623019E+03  0.7561462E-02  0.1084932E+00
         22   -1    0    0    0    0  0.00000000000E+00  0.00000000000E+00  0.32015587657E+04  0.32015587657E+04  0.00000000000E+00 0. -1.
         22   -1    0    0    0    0 -0.00000000000E+00 -0.00000000000E+00 -0.25759560789E+02  0.25759560789E+02  0.00000000000E+00 0.  1.
         24    2    1    2    0    0 -0.65306142461E+01  0.22828399902E+02  0.95754365153E+02  0.13195921390E+03  0.87638752404E+02 0.  0.
         25    2    1    2    0    0  0.96350437190E+02 -0.63490682265E+02  0.13538481783E+04  0.13645021303E+04  0.12508677005E+03 0.  0.
        -24    2    1    2    0    0 -0.89819822944E+02  0.40662282363E+02  0.17261966614E+04  0.17308569823E+04  0.79937209970E+02 0.  0.
        -11    1    3    3    0    0 -0.26844156425E+02  0.12785503027E+02 -0.36937664898E+01  0.29962004818E+02  0.00000000000E+00 0.  1.
         12    1    3    3    0    0  0.20313542179E+02  0.10042896875E+02  0.99448131643E+02  0.10199720908E+03  0.00000000000E+00 0. -1.
         13    1    5    5    0    0 -0.60722564144E+02  0.47704853242E+02  0.15649971601E+04  0.15669011117E+04  0.00000000000E+00 0. -1.
        -14    1    5    5    0    0 -0.29097258800E+02 -0.70425708792E+01  0.16119950133E+03  0.16395587059E+03  0.00000000000E+00 0.  1.
          5    1    4    4  501    0 -0.12728690585E+02 -0.47540496628E+02  0.22950129455E+03  0.23475611809E+03  0.41800000000E+01 0.  1.
         -5    1    4    4    0  501  0.10907912777E+03 -0.15950185636E+02  0.11243468838E+04  0.11297460122E+04  0.41800000000E+01 0.  1.
</event>
<event>
11    1  0.6930157E-009  0.1653217E+03  0.7561462E-02  0.1082176E+00
         22   -1    0    0    0    0  0.00000000000E+00  0.00000000000E+00  0.93808422754E+02  0.93808422754E+02  0.00000000000E+00 0.  1.
         22   -1    0    0    0    0 -0.00000000000E+00 -0.00000000000E+00 -0.11071343885E+04  0.11071343885E+04  0.00000000000E+00 0. -1.
        -24    2    1    2    0    0 -0.17157410557E+02  0.11721495238E+03 -0.53389408856E+03  0.55323298269E+03  0.83606898883E+02 0.  0.
         25    2    1    2    0    0 -0.63493727596E+02 -0.92136032261E+02 -0.49460666884E+03  0.52230547178E+03  0.12508695816E+03 0.  0.
         24    2    1    2    0    0  0.80651138153E+02 -0.25078920119E+02  0.15174791703E+02  0.12540435674E+03  0.91446268734E+02 0.  0.
        -11    1    5    5    0    0  0.25293307887E+02 -0.77353360605E+01  0.50838520643E+02  0.57307434326E+02  0.00000000000E+00 0.  1.
         12    1    5    5    0    0  0.55357830266E+02 -0.17343584058E+02 -0.35663728940E+02  0.68096922410E+02  0.00000000000E+00 0. -1.
         13    1    3    3    0    0 -0.65084474974E+01  0.12273874876E+03 -0.39164511419E+03  0.41047905647E+03  0.00000000000E+00 0. -1.
        -14    1    3    3    0    0 -0.10648963059E+02 -0.55237963828E+01 -0.14224897438E+03  0.14275392622E+03  0.00000000000E+00 0.  1.
          5    1    4    4  501    0 -0.78185583196E+01 -0.10587164993E+03 -0.37222631798E+03  0.38709151413E+03  0.41800000000E+01 0.  1.
         -5    1    4    4    0  501 -0.55675169277E+02  0.13735617666E+02 -0.12238035086E+03  0.13521395765E+03  0.41800000000E+01 0.  1.
</event>
<event>
11    1  0.6930157E-009  0.1515063E+03  0.7561462E-02  0.1095350E+00
         22   -1    0    0    0    0  0.00000000000E+00  0.00000000000E+00  0.10539734061E+04  0.10539734061E+04  0.00000000000E+00 0.  1.
         22   -1    0    0    0    0 -0.00000000000E+00 -0.00000000000E+00 -0.61526387446E+03  0.61526387446E+03  0.00000000000E+00 0.  1.
         24    2    1    2    0    0 -0.84564289137E+01 -0.43305253590E+01 -0.55595965591E+03  0.56353942708E+03  0.91625772737E+02 0.  0.
         25    2    1    2    0    0  0.50136588711E+02 -0.70270840305E+02  0.59486019283E+02  0.16321014657E+03  0.12508915591E+03 0.  0.
        -24    2    1    2    0    0 -0.41680159797E+02  0.74601365664E+02  0.93518316825E+03  0.94248770689E+03  0.80080709231E+02 0.  0.
        -13    1    3    3    0    0 -0.32763047926E+02 -0.36133663210E+02 -0.37797988124E+03  0.38111395875E+03  0.00000000000E+00 0.  1.
         14    1    3    3    0    0  0.24306619013E+02  0.31803137851E+02 -0.17797977467E+03  0.18242546833E+03  0.00000000000E+00 0. -1.
         11    1    5    5    0    0  0.18693311043E+02  0.10233897256E+02  0.35416589941E+03  0.35480650619E+03  0.00000000000E+00 0. -1.
        -12    1    5    5    0    0 -0.60373470840E+02  0.64367468409E+02  0.58101726884E+03  0.58768120070E+03  0.00000000000E+00 0.  1.
          5    1    4    4  501    0  0.42845502492E+02 -0.84725502758E+02 -0.63860284684E+01  0.95249155697E+02  0.41800000000E+01 0. -1.
         -5    1    4    4    0  501  0.72910862182E+01  0.14454662453E+02  0.65872047751E+02  0.67960990868E+02  0.41800000000E+01 0. -1.
</event>
<event>
11    1  0.6930157E-009  0.2135135E+03  0.7561462E-02  0.1045359E+00
         22   -1    0    0    0    0  0.00000000000E+00  0.00000000000E+00  0.64206411587E+03  0.64206411587E+03  0.00000000000E+00 0.  1.
         22   -1    0    0    0    0 -0.00000000000E+00 -0.00000000000E+00 -0.92997355987E+03  0.92997355987E+03  0.00000000000E+00 0.  1.
        -24    2    1    2    0    0  0.17069109534E+03 -0.21467928201E+02 -0.85550418534E+03  0.87622769894E+03  0.79317383290E+02 0.  0.
         25    2    1    2    0    0 -0.20435814683E+03 -0.41087163268E+02  0.20482482969E+03  0.31788691629E+03  0.12509385889E+03 0.  0.
         24    2    1    2    0    0  0.33667051491E+02  0.62555091469E+02  0.36276991164E+03  0.37792306051E+03  0.78595299112E+02 0.  0.
        -11    1    5    5    0    0  0.31853007209E+02 -0.96814864225E+01  0.13000539100E+03  0.13420039843E+03  0.00000000000E+00 0.  1.
         12    1    5    5    0    0  0.18140442822E+01  0.72236577891E+02  0.23276452064E+03  0.24372266208E+03  0.00000000000E+00 0. -1.
         13    1    3    3    0    0  0.17897877873E+02  0.20438695454E+02 -0.20060596147E+03  0.20243721516E+03  0.00000000000E+00 0. -1.
        -14    1    3    3    0    0  0.15279321746E+03 -0.41906623654E+02 -0.65489822387E+03  0.67379048378E+03  0.00000000000E+00 0.  1.
          5    1    4    4  501    0 -0.33505807085E+02 -0.46043406893E+02  0.10601508124E+03  0.12041305692E+03  0.41800000000E+01 0.  1.
         -5    1    4    4    0  501 -0.17085233974E+03  0.49562436249E+01  0.98809748458E+02  0.19747385937E+03  0.41800000000E+01 0.  1.
</event>
<event>
11    1  0.6930157E-009  0.2500233E+03  0.7561462E-02  0.1023887E+00
         22   -1    0    0    0    0  0.00000000000E+00  0.00000000000E+00  0.25994349360E+03  0.25994349360E+03  0.00000000000E+00 0.  1.
         22   -1    0    0    0    0 -0.00000000000E+00 -0.00000000000E+00 -0.14676772118E+04  0.14676772118E+04  0.00000000000E+00 0. -1.
        -24    2    1    2    0    0  0.40030914518E+02  0.51580029417E+02 -0.11193760410E+04  0.11241498374E+04  0.80294223315E+02 0.  0.
         25    2    1    2    0    0 -0.24466293955E+03 -0.82825982847E+02 -0.20394124148E+03  0.35207973191E+03  0.12509200701E+03 0.  0.
         24    2    1    2    0    0  0.20463202503E+03  0.31245953430E+02  0.11558356428E+03  0.25139113605E+03  0.83590475999E+02 0.  0.
        -11    1    5    5    0    0  0.19057862449E+03  0.44741016793E+01  0.11159515683E+03  0.22089298025E+03  0.00000000000E+00 0.  1.
         12    1    5    5    0    0  0.14053400549E+02  0.26771851751E+02  0.39884074508E+01  0.30498155799E+02  0.00000000000E+00 0. -1.
         13    1    3    3    0    0  0.43635615062E+02  0.54470853744E+02 -0.11165588954E+04  0.11187380872E+04  0.00000000000E+00 0. -1.
        -14    1    3    3    0    0 -0.36047005439E+01 -0.28908243274E+01 -0.28171455544E+01  0.54117502139E+01  0.00000000000E+00 0.  1.
          5    1    4    4  501    0 -0.73066460228E+02 -0.79117001243E+02 -0.11892623036E+03  0.16049650514E+03  0.41800000000E+01 0.  1.
         -5    1    4    4    0  501 -0.17159647932E+03 -0.37089816035E+01 -0.85015011122E+02  0.19158322676E+03  0.41800000000E+01 0.  1.
</event>
<event>
11    1  0.6930157E-009  0.1444762E+03  0.7561462E-02  0.1102660E+00
         22   -1    0    0    0    0  0.00000000000E+00  0.00000000000E+00  0.14197840503E+03  0.14197840503E+03  0.00000000000E+00 0.  1.
         22   -1    0    0    0    0 -0.00000000000E+00 -0.00000000000E+00 -0.98416035852E+03  0.98416035852E+03  0.00000000000E+00 0.  1.
         24    2    1    2    0    0  0.20513558677E+02  0.62618110271E+02 -0.41174182140E+03  0.42480275622E+03  0.81143209058E+02 0.  0.
         25    2    1    2    0    0  0.92819253043E+01 -0.86404622546E+02 -0.53943792558E+03  0.56052864686E+03  0.12508867037E+03 0.  0.
        -24    2    1    2    0    0 -0.29795483982E+02  0.23786512275E+02  0.10899779350E+03  0.14080736047E+03  0.80576825107E+02 0.  0.
        -13    1    3    3    0    0  0.37256205302E+02  0.31578453403E+02 -0.35243026790E+03  0.35579814120E+03  0.00000000000E+00 0.  1.
         14    1    3    3    0    0 -0.16742646624E+02  0.31039656868E+02 -0.59311553505E+02  0.69004615017E+02  0.00000000000E+00 0. -1.
         13    1    5    5    0    0 -0.68820401281E+01  0.50319405547E+02  0.45090030490E+02  0.67915505598E+02  0.00000000000E+00 0. -1.
        -14    1    5    5    0    0 -0.22913443854E+02 -0.26532893273E+02  0.63907763008E+02  0.72891854877E+02  0.00000000000E+00 0.  1.
          5    1    4    4  501    0  0.30514788859E+02 -0.86814971467E+02 -0.52813989986E+03  0.53611306441E+03  0.41800000000E+01 0.  1.
         -5    1    4    4    0  501 -0.21232863555E+02  0.41034892096E+00 -0.11298025729E+02  0.24415582450E+02  0.41800000000E+01 0.  1.
</event>
<event>
11    1  0.6930157E-009  0.1283231E+03  0.7561462E-02  0.1121347E+00
         22   -1    0    0    0    0  0.00000000000E+00  0.00000000000E+00  0.30494319510E+03  0.30494319510E+03  0.00000000000E+00 0. -1.
         22   -1    0    0    0    0 -0.00000000000E+00 -0.00000000000E+00 -0.11763281575E+04  0.11763281575E+04  0.00000000000E+00 0. -1.
         24    2    1    2    0    0  0.14870620321E+02 -0.23216376084E+02 -0.72524097223E+03  0.73021304432E+03  0.80476622805E+02 0.  0.
         25    2    1    2    0    0 -0.32611777145E+02  0.59450736531E+00 -0.43287774955E+03  0.45176819853E+03  0.12508987848E+03 0.  0.
        -24    2    1    2    0    0  0.17741156824E+02  0.22621868719E+02  0.28673375943E+03  0.29929010971E+03  0.80819696759E+02 0.  0.
        -11    1    3    3    0    0 -0.31250799664E+02 -0.86011567074E+01 -0.41020857264E+03  0.41148713886E+03  0.00000000000E+00 0.  1.
         12    1    3    3    0    0  0.46121419985E+02 -0.14615219376E+02 -0.31503239959E+03  0.31872590546E+03  0.00000000000E+00 0. -1.
         11    1    5    5    0    0  0.78062690700E+01 -0.27487113466E+02  0.16200393448E+03  0.16450457145E+03  0.00000000000E+00 0. -1.
        -12    1    5    5    0    0  0.99348877542E+01  0.50108982185E+02  0.12472982495E+03  0.13478553826E+03  0.00000000000E+00 0.  1.
          5    1    4    4  501    0 -0.61620416539E+02  0.43877831744E+02 -0.22471816740E+03  0.23714566623E+03  0.41800000000E+01 0.  1.
         -5    1    4    4    0  501  0.29008639394E+02 -0.43283324379E+02 -0.20815958215E+03  0.21462253229E+03  0.41800000000E+01 0.  1.
</event>
<event>
11    1  0.6930157E-009  0.1417983E+03  0.7561462E-02  0.1105567E+00
         22   -1    0    0    0    0  0.00000000000E+00  0.00000000000E+00  0.11303504142E+04  0.11303504142E+04  0.00000000000E+00 0. -1.
         22   -1    0    0    0    0 -0.00000000000E+00 -0.00000000000E+00 -0.49062922004E+03  0.49062922004E+03  0.00000000000E+00 0. -1.
        -24    2    1    2    0    0 -0.40653395363E+02  0.38158491635E+02 -0.40905248847E+03  0.42059509217E+03  0.80420918942E+02 0.  0.
         25    2    1    2    0    0  0.39753624344E+02  0.29906455507E+02 -0.11381713085E+02  0.13510016018E+03  0.12509101949E+03 0.  0.
         24    2    1    2    0    0  0.89977101924E+00 -0.68064947143E+02  0.10601553957E+04  0.10652843819E+04  0.79168836131E+02 0.  0.
        -11    1    5    5    0    0 -0.18508342645E+02 -0.47421230046E+02  0.27840248326E+03  0.28301815223E+03  0.00000000000E+00 0.  1.
         12    1    5    5    0    0  0.19408113665E+02 -0.20643717097E+02  0.78175291245E+03  0.78226622965E+03  0.00000000000E+00 0. -1.
         11    1    3    3    0    0 -0.61657287393E+02  0.12669207889E+02 -0.30495822455E+03  0.31138665456E+03  0.00000000000E+00 0. -1.
        -12    1    3    3    0    0  0.21003892030E+02  0.25489283747E+02 -0.10409426392E+03  0.10920843762E+03  0.00000000000E+00 0.  1.
          5    1    4    4  501    0 -0.42218334329E+02  0.27883641390E+02 -0.14938076676E+02  0.52919785954E+02  0.41800000000E+01 0. -1.
         -5    1    4    4    0  501  0.81971958672E+02  0.20228141175E+01  0.35563635909E+01  0.82180374224E+02  0.41800000000E+01 0. -1.
</event>
<event>
11    1  0.6930157E-009  0.1313792E+03  0.7561462E-02  0.1117586E+00
         22   -1    0    0    0    0  0.00000000000E+00  0.00000000000E+00  0.10885906563E+03  0.10885906563E+03  0.00000000000E+00 0.  1.
         22   -1    0    0    0    0 -0.00000000000E+00 -0.00000000000E+00 -0.69236059304E+03  0.69236059304E+03  0.00000000000E+00 0.  1.
         24    2    1    2    0    0  0.37820573831E+02  0.27111560600E+02 -0.56481964367E+03  0.57249048974E+03  0.80985791641E+02 0.  0.
         25    2    1    2    0    0 -0.20452365261E+02  0.26317013850E+02  0.32127071077E+01  0.12949125672E+03  0.12508708813E+03 0.  0.
        -24    2    1    2    0    0 -0.17368208570E+02 -0.53428574450E+02 -0.21894590837E+02  0.99237912205E+02  0.78819558957E+02 0.  0.
        -11    1    3    3    0    0 -0.50834242185E+01  0.26917164814E+02 -0.43297285907E+03  0.43383853178E+03  0.00000000000E+00 0.  1.
         12    1    3    3    0    0  0.42903998049E+02  0.19439578611E+00 -0.13184678460E+03  0.13865195796E+03  0.00000000000E+00 0. -1.
         11    1    5    5    0    0  0.26112120620E+02 -0.10339808190E+02  0.10496439707E+02  0.29982156747E+02  0.00000000000E+00 0. -1.
        -12    1    5    5    0    0 -0.43480329190E+02 -0.43088766260E+02 -0.32391030544E+02  0.69255755458E+02  0.00000000000E+00 0.  1.
          5    1    4    4  501    0 -0.34358034186E+02  0.72871485248E+02  0.11619106137E+01  0.80681784262E+02  0.41800000000E+01 0. -1.
         -5    1    4    4    0  501  0.13905668925E+02 -0.46554471398E+02  0.20507964940E+01  0.48809472458E+02  0.41800000000E+01 0. -1.
</event>
<event>
11    1  0.6930157E-009  0.2450106E+03  0.7561462E-02  0.1026591E+00
         22   -1    0    0    0    0  0.00000000000E+00  0.00000000000E+00  0.21082851110E+04  0.21082851110E+04  0.00000000000E+00 0.  1.
         22   -1    0    0    0    0 -0.00000000000E+00 -0.00000000000E+00 -0.13916171633E+04  0.13916171633E+04  0.00000000000E+00 0. -1.
        -24    2    1    2    0    0 -0.87199910042E+02  0.56306241930E+02 -0.13120510213E+04  0.13187384686E+04  0.82577533379E+02 0.  0.
         25    2    1    2    0    0  0.28294229014E+03 -0.10486936633E+03  0.31590583993E+03  0.45442058510E+03  0.12509054687E+03 0.  0.
         24    2    1    2    0    0 -0.19574238009E+03  0.48563124399E+02  0.17128131290E+04  0.17267432205E+04  0.85087474655E+02 0.  0.
        -13    1    5    5    0    0 -0.66807199327E+02  0.13253523794E+02  0.93906098828E+03  0.94152769342E+03  0.00000000000E+00 0.  1.
         14    1    5    5    0    0 -0.12893518077E+03  0.35309600604E+02  0.77375214073E+03  0.78521552711E+03  0.00000000000E+00 0. -1.
         13    1    3    3    0    0 -0.30696689464E+02  0.71308085898E+01 -0.85575544732E+03  0.85633551882E+03  0.00000000000E+00 0. -1.
        -14    1    3    3    0    0 -0.56503220578E+02  0.49175433340E+02 -0.45629557394E+03  0.46240294979E+03  0.00000000000E+00 0.  1.
          5    1    4    4  501    0  0.28747782876E+03 -0.10934327091E+03  0.27434668647E+03  0.41216869083E+03  0.41800000000E+01 0.  1.
         -5    1    4    4    0  501 -0.45355386238E+01  0.44739045822E+01  0.41559153467E+02  0.42251894273E+02  0.41800000000E+01 0.  1.
</event>
<event>
11    1  0.6930157E-009  0.1274757E+03  0.7561462E-02  0.1122410E+00
         22   -1    0    0    0    0  0.00000000000E+00  0.00000000000E+00  0.38453046026E+03  0.38453046026E+03  0.00000000000E+00 0.  1.
         22   -1    0    0    0    0 -0.00000000000E+00 -0.00000000000E+00 -0.79011069765E+03  0.79011069765E+03  0.00000000000E+00 0.  1.
        -24    2    1    2    0    0 -0.72893811016E+01 -0.55158278628E+01 -0.70787132003E+03  0.71261501643E+03  0.81576936002E+02 0.  0.
         25    2    1    2    0    0 -0.89736054100E+01 -0.13641280865E+02 -0.21195072775E+02  0.12792125131E+03  0.12509198731E+03 0.  0.
         24    2    1    2    0    0  0.16262986512E+02  0.19157108728E+02  0.32348615542E+03  0.33410489017E+03  0.79695077283E+02 0.  0.
        -11    1    5    5    0    0  0.16566743268E+00 -0.29664155507E+02  0.16001098329E+03  0.16273753206E+03  0.00000000000E+00 0.  1.
         12    1    5    5    0    0  0.16097319079E+02  0.48821264236E+02  0.16347517213E+03  0.17136735811E+03  0.00000000000E+00 0. -1.
         13    1    3    3    0    0 -0.14552617441E+02 -0.18452552966E+02 -0.58079419343E+02  0.62653765541E+02  0.00000000000E+00 0. -1.
        -14    1    3    3    0    0  0.72632363393E+01  0.12936725103E+02 -0.64979190069E+03  0.64996125089E+03  0.00000000000E+00 0.  1.
          5    1    4    4  501    0  0.27083575300E+02 -0.20769682039E+02  0.42253282303E+02  0.54476710697E+02  0.41800000000E+01 0. -1.
         -5    1    4    4    0  501 -0.36057180710E+02  0.71284011736E+01 -0.63448355078E+02  0.73444540615E+02  0.41800000000E+01 0. -1.
</event>
<event>
11    1  0.6930157E-009  0.1425519E+03  0.7561462E-02  0.1104742E+00
         22   -1    0    0    0    0  0.00000000000E+00  0.00000000000E+00  0.26437286206E+03  0.26437286206E+03  0.00000000000E+00 0.  1.
         22   -1    0    0    0    0 -0.00000000000E+00 -0.00000000000E+00 -0.59407313496E+03  0.59407313496E+03  0.00000000000E+00 0. -1.
         24    2    1    2    0    0  0.33784188862E+02 -0.55601500957E+02 -0.43572426345E+03  0.44801976249E+03  0.81444309187E+02 0.  0.
         25    2    1    2    0    0 -0.19119051081E+02  0.94757481917E+02 -0.99137376226E+02  0.18660061894E+03  0.12508818141E+03 0.  0.
        -24    2    1    2    0    0 -0.14665137781E+02 -0.39155980960E+02  0.20516136677E+03  0.22382561558E+03  0.79110445991E+02 0.  0.
        -13    1    3    3    0    0  0.16269460100E+02 -0.27973740037E+02 -0.42404155018E+02  0.53341708132E+02  0.00000000000E+00 0.  1.
         14    1    3    3    0    0  0.17514728761E+02 -0.27627760920E+02 -0.39332010843E+03  0.39467805436E+03  0.00000000000E+00 0. -1.
         11    1    5    5    0    0 -0.28923914387E+02  0.85677617073E+01  0.13142711032E+03  0.13484466875E+03  0.00000000000E+00 0. -1.
        -12    1    5    5    0    0  0.14258776607E+02 -0.47723742667E+02  0.73734256456E+02  0.88980946835E+02  0.00000000000E+00 0.  1.
          5    1    4    4  501    0  0.46525228324E+02  0.70151389326E+02 -0.34217310800E+02  0.90962140770E+02  0.41800000000E+01 0. -1.
         -5    1    4    4    0  501 -0.65644279405E+02  0.24606092591E+02 -0.64920065426E+02  0.95638478167E+02  0.41800000000E+01 0. -1.
</event>
<event>
11    1  0.6930157E-009  0.1956322E+03  0.7561462E-02  0.1057656E+00
         22   -1    0    0    0    0  0.00000000000E+00  0.00000000000E+00  0.66876127357E+03  0.66876127357E+03  0.00000000000E+00 0.  1.
         22   -1    0    0    0    0 -0.00000000000E+00 -0.00000000000E+00 -0.80355232851E+03  0.80355232851E+03  0.00000000000E+00 0. -1.
         24    2    1    2    0    0  0.12222582841E+03  0.87403660350E+02 -0.73100865798E+03  0.75048801769E+03  0.79246789679E+02 0.  0.
         25    2    1    2    0    0 -0.14487347961E+03 -0.60260058544E+02  0.11189797702E+03  0.22975602122E+03  0.12508825795E+03 0.  0.
        -24    2    1    2    0    0  0.22647651201E+02 -0.27143601806E+02  0.48431962602E+03  0.49206956318E+03  0.79481215610E+02 0.  0.
        -11    1    3    3    0    0  0.84048085660E+02  0.45227913523E+02 -0.27814384210E+03  0.29406400963E+03  0.00000000000E+00 0.  1.
         12    1    3    3    0    0  0.38177742747E+02  0.42175746827E+02 -0.45286481588E+03  0.45642400805E+03  0.00000000000E+00 0. -1.
         13    1    5    5    0    0  0.36515056704E+02 -0.47669662968E+02  0.28800703099E+03  0.29420026518E+03  0.00000000000E+00 0. -1.
        -14    1    5    5    0    0 -0.13867405503E+02  0.20526061162E+02  0.19631259503E+03  0.19786929800E+03  0.00000000000E+00 0.  1.
          5    1    4    4  501    0 -0.42070338622E+02 -0.51207339067E+02 -0.13019300036E+02  0.67668896397E+02  0.41800000000E+01 0. -1.
         -5    1    4    4    0  501 -0.10280314099E+03 -0.90527194765E+01  0.12491727706E+03  0.16208712482E+03  0.41800000000E+01 0. -1.
</event>
<event>
11    1  0.6930157E-009  0.1458281E+03  0.7561462E-02  0.1101219E+00
         22   -1    0    0    0    0  0.00000000000E+00  0.00000000000E+00  0.11124790164E+04  0.11124790164E+04  0.00000000000E+00 0.  1.
         22   -1    0    0    0    0 -0.00000000000E+00 -0.00000000000E+00 -0.38682802844E+03  0.38682802844E+03  0.00000000000E+00 0. -1.
        -24    2    1    2    0    0 -0.64120020468E+02  0.36354164457E+02 -0.26216723442E+03  0.28370620772E+03  0.79527046963E+02 0.  0.
         25    2    1    2    0    0  0.94930166191E+02  0.90340529555E+01 -0.56193298726E+02  0.16702776598E+03  0.12508891726E+03 0.  0.
         24    2    1    2    0    0 -0.30810145723E+02 -0.45388217413E+02  0.10440115211E+04  0.10485730712E+04  0.80845989270E+02 0.  0.
        -13    1    5    5    0    0 -0.95218943060E+01  0.90411317760E+01  0.66079939065E+03  0.66092983229E+03  0.00000000000E+00 0.  1.
         14    1    5    5    0    0 -0.21288251417E+02 -0.54429349189E+02  0.38321213048E+03  0.38764323887E+03  0.00000000000E+00 0. -1.
         13    1    3    3    0    0 -0.23897557867E+02  0.37780437648E+02 -0.22338416594E+03  0.22781338928E+03  0.00000000000E+00 0. -1.
        -14    1    3    3    0    0 -0.40222462601E+02 -0.14262731909E+01 -0.38783068473E+02  0.55892818439E+02  0.00000000000E+00 0.  1.
          5    1    4    4  501    0  0.42069059612E+02 -0.31688237058E+02 -0.80158147131E+02  0.96003911879E+02  0.41800000000E+01 0.  1.
         -5    1    4    4    0  501  0.52861106579E+02  0.40722290014E+02  0.23964848405E+02  0.71023854104E+02  0.41800000000E+01 0.  1.
</event>
<event>
11    1  0.6930157E-009  0.1621078E+03  0.7561462E-02  0.1085111E+00
         22   -1    0    0    0    0  0.00000000000E+00  0.00000000000E+00  0.31090554721E+04  0.31090554721E+04  0.00000000000E+00 0.  1.
         22   -1    0    0    0    0 -0.00000000000E+00 -0.00000000000E+00 -0.60506374548E+03  0.60506374548E+03  0.00000000000E+00 0.  1.
        -24    2    1    2    0    0 -0.33572738695E+01 -0.33338359682E+02 -0.58427855045E+03  0.59129173603E+03  0.84390610051E+02 0.  0.
         25    2    1    2    0    0 -0.86588143498E+02 -0.20710214307E+02  0.36010897337E+03  0.39147356472E+03  0.12508660842E+03 0.  0.
         24    2    1    2    0    0  0.89945417367E+02  0.54048573989E+02  0.27281613037E+04  0.27313539168E+04  0.80116748826E+02 0.  0.
        -11    1    5    5    0    0  0.42863370045E+02  0.48166803236E+02  0.22315003286E+04  0.22324316397E+04  0.00000000000E+00 0.  1.
         12    1    5    5    0    0  0.47082047322E+02  0.58817707530E+01  0.49666097505E+03  0.49892227706E+03  0.00000000000E+00 0. -1.
         13    1    3    3    0    0  0.55060871198E+01 -0.27491910885E+02 -0.53454117273E+02  0.60361120044E+02  0.00000000000E+00 0. -1.
        -14    1    3    3    0    0 -0.88633609893E+01 -0.58464487967E+01 -0.53082443318E+03  0.53093061599E+03  0.00000000000E+00 0.  1.
          5    1    4    4  501    0 -0.80032033431E+02 -0.52325625679E+02  0.14387406270E+03  0.17280137672E+03  0.41800000000E+01 0.  1.
         -5    1    4    4    0  501 -0.65561100665E+01  0.31615411372E+02  0.21623491067E+03  0.21867218801E+03  0.41800000000E+01 0.  1.
</event>
<event>
11    1  0.8634393E-009  0.1567547E+03  0.7561462E-02  0.1090170E+00
         22   -1    0    0    0    0  0.00000000000E+00  0.00000000000E+00  0.16622526145E+04  0.16622526145E+04  0.00000000000E+00 0. -1.
         22   -1    0    0    0    0 -0.00000000000E+00 -0.00000000000E+00 -0.24757279778E+04  0.24757279778E+04  0.00000000000E+00 0. -1.
        -24    2    1    2    0    0  0.18450148425E+02  0.99669219674E+02 -0.21702669171E+04  0.21741204891E+04  0.80417960246E+02 0.  0.
         25    2    1    2    0    0  0.57222764462E+02 -0.41903463735E+02 -0.28335821448E+03  0.31775819125E+03  0.12509214743E+03 0.  0.
         24    2    1    2    0    0 -0.75672912887E+02 -0.57765755939E+02  0.16401497683E+04  0.16461019119E+04  0.10245471980E+03 0.  0.
        -11    1    5    5    0    0 -0.83521794749E+01  0.25486574381E+02  0.17475606731E+03  0.17680217034E+03  0.00000000000E+00 0.  1.
         12    1    5    5    0    0 -0.67320733412E+02 -0.83252330320E+02  0.14653937010E+04  0.14692997416E+04  0.00000000000E+00 0. -1.
         13    1    3    3    0    0  0.46633470247E+02  0.78419022336E+02 -0.17486935157E+04  0.17510720246E+04  0.00000000000E+00 0. -1.
        -14    1    3    3    0    0 -0.28183321823E+02  0.21250197338E+02 -0.42157340144E+03  0.42304846450E+03  0.00000000000E+00 0.  1.
          5    1    4    4  501    0  0.69256085872E+02 -0.37637942580E+02 -0.29153488783E+03  0.30203159333E+03  0.41800000000E+01 0. -1.
         -5    1    4    4    0  501 -0.12033321410E+02 -0.42655211557E+01  0.81766733508E+01  0.15726597915E+02  0.41800000000E+01 0. -1.
</event>
<event>
11    1  0.6930157E-009  0.2039114E+03  0.7561462E-02  0.1051792E+00
         22   -1    0    0    0    0  0.00000000000E+00  0.00000000000E+00  0.42364237644E+03  0.42364237644E+03  0.00000000000E+00 0. -1.
         22   -1    0    0    0    0 -0.00000000000E+00 -0.00000000000E+00 -0.74395724080E+03  0.74395724080E+03  0.00000000000E+00 0. -1.
         24    2    1    2    0    0  0.12905258397E+02 -0.53989399645E+02 -0.56733928707E+03  0.57578403290E+03  0.81067779750E+02 0.  0.
         25    2    1    2    0    0  0.13960482044E+03 -0.97197405008E+01 -0.90450984348E+02  0.20836152218E+03  0.12509661911E+03 0.  0.
        -24    2    1    2    0    0 -0.15251007884E+03  0.63709140146E+02  0.33747540706E+03  0.38345406216E+03  0.76349123973E+02 0.  0.
        -11    1    3    3    0    0  0.14799537503E+02 -0.23847270393E+02 -0.48267083481E+02  0.55833949916E+02  0.00000000000E+00 0.  1.
         12    1    3    3    0    0 -0.18942791055E+01 -0.30142129252E+02 -0.51907220359E+03  0.51995008298E+03  0.00000000000E+00 0. -1.
         13    1    5    5    0    0 -0.68739357026E+02  0.32985747453E+02  0.23756717572E+03  0.24950214773E+03  0.00000000000E+00 0. -1.
        -14    1    5    5    0    0 -0.83770721812E+02  0.30723392693E+02  0.99908231339E+02  0.13395191444E+03  0.00000000000E+00 0.  1.
          5    1    4    4  501    0  0.14234599188E+03  0.10770223582E+02 -0.32184970271E+02  0.14639577806E+03  0.41800000000E+01 0.  1.
         -5    1    4    4    0  501 -0.27411714420E+01 -0.20489964083E+02 -0.58266014077E+02  0.61965744129E+02  0.41800000000E+01 0.  1.
</event>
<event>
11    1  0.6930157E-009  0.1291683E+03  0.7561462E-02  0.1120295E+00
         22   -1    0    0    0    0  0.00000000000E+00  0.00000000000E+00  0.61088021377E+03  0.61088021377E+03  0.00000000000E+00 0. -1.
         22   -1    0    0    0    0 -0.00000000000E+00 -0.00000000000E+00 -0.34110938914E+03  0.34110938914E+03  0.00000000000E+00 0.  1.
        -24    2    1    2    0    0 -0.60773759391E+01 -0.10549089836E+02 -0.26519667502E+03  0.27714923897E+03  0.79587727851E+02 0.  0.
         25    2    1    2    0    0 -0.10715304676E+01 -0.21426819010E+02 -0.60404999264E+01  0.12705967702E+03  0.12508963640E+03 0.  0.
         24    2    1    2    0    0  0.71489064067E+01  0.31975908846E+02  0.54100799958E+03  0.54778068693E+03  0.79375435457E+02 0.  0.
        -13    1    5    5    0    0 -0.16108845102E+02 -0.19742162995E+02  0.10242102974E+03  0.10554295439E+03  0.00000000000E+00 0.  1.
         14    1    5    5    0    0  0.23257751509E+02  0.51718071841E+02  0.43858696984E+03  0.44223773253E+03  0.00000000000E+00 0. -1.
         11    1    3    3    0    0  0.34818787939E+02  0.39491724033E+01 -0.15034207721E+03  0.15437190203E+03  0.00000000000E+00 0. -1.
        -12    1    3    3    0    0 -0.40896163878E+02 -0.14498262239E+02 -0.11485459781E+03  0.12277733694E+03  0.00000000000E+00 0.  1.
          5    1    4    4  501    0  0.19228526761E+02 -0.48041706269E+02  0.43086658887E+02  0.67466097832E+02  0.41800000000E+01 0. -1.
         -5    1    4    4    0  501 -0.20300057228E+02  0.26614887258E+02 -0.49127158814E+02  0.59593579187E+02  0.41800000000E+01 0. -1.
</event>
<event>
11    1  0.6930157E-009  0.1684759E+03  0.7561462E-02  0.1079366E+00
         22   -1    0    0    0    0  0.00000000000E+00  0.00000000000E+00  0.41000092269E+03  0.41000092269E+03  0.00000000000E+00 0. -1.
         22   -1    0    0    0    0 -0.00000000000E+00 -0.00000000000E+00 -0.37831631789E+03  0.37831631789E+03  0.00000000000E+00 0.  1.
        -24    2    1    2    0    0 -0.89628300522E+02  0.52626607342E+02 -0.22344134323E+03  0.25880482861E+03  0.79063982904E+02 0.  0.
         25    2    1    2    0    0  0.12240298327E+03 -0.87038243670E+02 -0.56711297148E+02  0.20353662900E+03  0.12511131822E+03 0.  0.
         24    2    1    2    0    0 -0.32774682746E+02  0.34411636328E+02  0.31183724518E+03  0.32597578296E+03  0.82215588853E+02 0.  0.
        -13    1    5    5    0    0 -0.51082562252E+02 -0.36138506069E+01  0.14128627319E+03  0.15028073421E+03  0.00000000000E+00 0.  1.
         14    1    5    5    0    0  0.18307879506E+02  0.38025486935E+02  0.17055097199E+03  0.17569504875E+03  0.00000000000E+00 0. -1.
         13    1    3    3    0    0 -0.75227780753E+02  0.48189584901E+02 -0.98587329920E+02  0.13304479212E+03  0.00000000000E+00 0. -1.
        -14    1    3    3    0    0 -0.14400519769E+02  0.44370224407E+01 -0.12485401331E+03  0.12576003649E+03  0.00000000000E+00 0.  1.
          5    1    4    4  501    0  0.54209373778E+02 -0.21846446872E+01 -0.75421220247E+02  0.93001407201E+02  0.41800000000E+01 0.  1.
         -5    1    4    4    0  501  0.68193609490E+02 -0.84853598983E+02  0.18709923099E+02  0.11053522180E+03  0.41800000000E+01 0.  1.
</event>
<event>
11    1  0.6930157E-009  0.1733112E+03  0.7561462E-02  0.1075186E+00
         22   -1    0    0    0    0  0.00000000000E+00  0.00000000000E+00  0.21997420780E+03  0.21997420780E+03  0.00000000000E+00 0.  1.
         22   -1    0    0    0    0 -0.00000000000E+00 -0.00000000000E+00 -0.14850830763E+04  0.14850830763E+04  0.00000000000E+00 0. -1.
        -24    2    1    2    0    0  0.98096535450E+01  0.11884594989E+03 -0.13212475848E+04  0.13289416571E+04  0.78550358098E+02 0.  0.
         25    2    1    2    0    0 -0.53051249483E+02 -0.12630729699E+03 -0.87450601875E+02  0.20509397972E+03  0.12509182390E+03 0.  0.
         24    2    1    2    0    0  0.43241595938E+02  0.74613471039E+01  0.14358931817E+03  0.17102164720E+03  0.81884090021E+02 0.  0.
        -13    1    5    5    0    0  0.67527882053E+02  0.10614443324E+02  0.10823185681E+03  0.12801099988E+03  0.00000000000E+00 0.  1.
         14    1    5    5    0    0 -0.24286286115E+02 -0.31530962197E+01  0.35357461357E+02  0.43010647317E+02  0.00000000000E+00 0. -1.
         13    1    3    3    0    0  0.14824214677E+02  0.87923996932E+02 -0.56037354234E+03  0.56742302873E+03  0.00000000000E+00 0. -1.
        -14    1    3    3    0    0 -0.50145611321E+01  0.30921952954E+02 -0.76087404242E+03  0.76151862842E+03  0.00000000000E+00 0.  1.
          5    1    4    4  501    0 -0.58487036586E+02 -0.12905654986E+03 -0.27133471740E+02  0.14432610367E+03  0.41800000000E+01 0. -1.
         -5    1    4    4    0  501  0.54357871027E+01  0.27492528711E+01 -0.60317130135E+02  0.60767876058E+02  0.41800000000E+01 0. -1.
</event>
<event>
11    1  0.6930157E-009  0.1399063E+03  0.7561462E-02  0.1107663E+00
         22   -1    0    0    0    0  0.00000000000E+00  0.00000000000E+00  0.75270452381E+02  0.75270452381E+02  0.00000000000E+00 0. -1.
         22   -1    0    0    0    0 -0.00000000000E+00 -0.00000000000E+00 -0.25013372939E+04  0.25013372939E+04  0.00000000000E+00 0.  1.
        -24    2    1    2    0    0 -0.25856959643E+02 -0.56221661055E+02 -0.21481901321E+04  0.21505697878E+04  0.80000695139E+02 0.  0.
         25    2    1    2    0    0  0.55735562510E+02  0.54898809766E+02 -0.30204879471E+03  0.33615956645E+03  0.12509775174E+03 0.  0.
         24    2    1    2    0    0 -0.29878602867E+02  0.13228512889E+01  0.24172085290E+02  0.89878391980E+02  0.81236412974E+02 0.  0.
        -11    1    5    5    0    0 -0.17748482633E+02 -0.14081465330E+02 -0.26901359393E+02  0.35170718486E+02  0.00000000000E+00 0.  1.
         12    1    5    5    0    0 -0.12130120234E+02  0.15404316619E+02  0.51073444683E+02  0.54707673494E+02  0.00000000000E+00 0. -1.
         11    1    3    3    0    0  0.27209759572E+02 -0.17908146397E+02 -0.48526587001E+03  0.48635793128E+03  0.00000000000E+00 0. -1.
        -12    1    3    3    0    0 -0.53066719215E+02 -0.38313514657E+02 -0.16629242621E+04  0.16642118565E+04  0.00000000000E+00 0.  1.
          5    1    4    4  501    0  0.20730315996E+02 -0.40568822561E+02 -0.90713984660E+02  0.10159761207E+03  0.41800000000E+01 0.  1.
         -5    1    4    4    0  501  0.35005246513E+02  0.95467632326E+02 -0.21133481005E+03  0.23456195438E+03  0.41800000000E+01 0.  1.
</event>
<event>
11    1  0.6930157E-009  0.1750427E+03  0.7561462E-02  0.1073725E+00
         22   -1    0    0    0    0  0.00000000000E+00  0.00000000000E+00  0.90526761242E+03  0.90526761242E+03  0.00000000000E+00 0. -1.
         22   -1    0    0    0    0 -0.00000000000E+00 -0.00000000000E+00 -0.29385999562E+03  0.29385999562E+03  0.00000000000E+00 0.  1.
        -24    2    1    2    0    0  0.62104682123E+02  0.11189921239E+02 -0.17764233264E+03  0.20509202745E+03  0.80769644647E+02 0.  0.
         25    2    1    2    0    0 -0.11253054344E+02  0.10277095196E+03 -0.26672684472E+02  0.16446231636E+03  0.12509165283E+03 0.  0.
         24    2    1    2    0    0 -0.50851627779E+02 -0.11396087319E+03  0.81572263392E+03  0.82957326423E+03  0.84943608206E+02 0.  0.
        -13    1    5    5    0    0 -0.35651637004E+02 -0.91347752825E+01  0.11118661957E+03  0.11711937377E+03  0.00000000000E+00 0.  1.
         14    1    5    5    0    0 -0.15199990775E+02 -0.10482609791E+03  0.70453601435E+03  0.71245389046E+03  0.00000000000E+00 0. -1.
         11    1    3    3    0    0  0.34435654387E+02  0.38631851058E+02 -0.51272212197E+02  0.72849666799E+02  0.00000000000E+00 0. -1.
        -12    1    3    3    0    0  0.27669027736E+02 -0.27441929819E+02 -0.12637012045E+03  0.13224236065E+03  0.00000000000E+00 0.  1.
          5    1    4    4  501    0  0.43973317766E+02  0.56066754948E+02 -0.51348140779E+02  0.87927456731E+02  0.41800000000E+01 0. -1.
         -5    1    4    4    0  501 -0.55226372110E+02  0.46704197008E+02  0.24675456307E+02  0.76534859630E+02  0.41800000000E+01 0. -1.
</event>
<event>
11    1  0.6930157E-009  0.2730375E+03  0.7561462E-02  0.1012295E+00
         22   -1    0    0    0    0  0.00000000000E+00  0.00000000000E+00  0.71450335194E+03  0.71450335194E+03  0.00000000000E+00 0. -1.
         22   -1    0    0    0    0 -0.00000000000E+00 -0.00000000000E+00 -0.38235564245E+03  0.38235564245E+03  0.00000000000E+00 0. -1.
         24    2    1    2    0    0  0.22468952210E+02 -0.61593931367E+01 -0.21948794639E+03  0.23465781223E+03  0.79665163611E+02 0.  0.
         25    2    1    2    0    0  0.13471509949E+03 -0.18345006079E+03  0.79795264837E+01  0.25983482628E+03  0.12509349012E+03 0.  0.
        -24    2    1    2    0    0 -0.15718405170E+03  0.18960945393E+03  0.54365612940E+03  0.60236635588E+03  0.81392066757E+02 0.  0.
        -11    1    3    3    0    0  0.57381407757E+01  0.63572946204E+01  0.45158272652E+01  0.96816398580E+01  0.00000000000E+00 0.  1.
         12    1    3    3    0    0  0.16730811435E+02 -0.12516687757E+02 -0.22400377366E+03  0.22497617238E+03  0.00000000000E+00 0. -1.
         13    1    5    5    0    0 -0.87625074224E+02  0.16249425077E+03  0.37876257435E+03  0.42135925633E+03  0.00000000000E+00 0. -1.
        -14    1    5    5    0    0 -0.69558977476E+02  0.27115203159E+02  0.16489355505E+03  0.18100709955E+03  0.00000000000E+00 0.  1.
          5    1    4    4  501    0  0.94641303483E+02 -0.16602332532E+03  0.51555966367E+02  0.19798032969E+03  0.41800000000E+01 0. -1.
         -5    1    4    4    0  501  0.40073796007E+02 -0.17426735469E+02 -0.43576439884E+02  0.61854496590E+02  0.41800000000E+01 0. -1.
</event>
<event>
11    1  0.6930157E-009  0.1511997E+03  0.7561462E-02  0.1095659E+00
         22   -1    0    0    0    0  0.00000000000E+00  0.00000000000E+00  0.23633348266E+03  0.23633348266E+03  0.00000000000E+00 0. -1.
         22   -1    0    0    0    0 -0.00000000000E+00 -0.00000000000E+00 -0.46987438303E+03  0.46987438303E+03  0.00000000000E+00 0.  1.
        -24    2    1    2    0    0  0.18302939175E+02 -0.61548493612E+01 -0.38665636803E+03  0.39601882563E+03  0.83395944541E+02 0.  0.
         25    2    1    2    0    0 -0.28478174018E+02 -0.79422559417E+02  0.74131376174E+02  0.16811334437E+03  0.12509071221E+03 0.  0.
         24    2    1    2    0    0  0.10175234843E+02  0.85577408778E+02  0.78984091486E+02  0.14207569569E+03  0.80746444506E+02 0.  0.
        -13    1    5    5    0    0  0.21169928585E+02 -0.88498493010E+01  0.13233658332E+02  0.26488024120E+02  0.00000000000E+00 0.  1.
         14    1    5    5    0    0 -0.10994693742E+02  0.94427258079E+02  0.65750433154E+02  0.11558767157E+03  0.00000000000E+00 0. -1.
         11    1    3    3    0    0 -0.27467942543E+02  0.70163275581E+01 -0.65810268573E+02  0.71656878034E+02  0.00000000000E+00 0. -1.
        -12    1    3    3    0    0  0.45770881717E+02 -0.13171176919E+02 -0.32084609945E+03  0.32436194760E+03  0.00000000000E+00 0.  1.
          5    1    4    4  501    0 -0.71866805238E+01  0.34135599544E+02  0.20378333914E+02  0.40615716493E+02  0.41800000000E+01 0.  1.
         -5    1    4    4    0  501 -0.21291493494E+02 -0.11355815896E+03  0.53753042259E+02  0.12749762788E+03  0.41800000000E+01 0.  1.
</event>
<event>
11    1  0.6930157E-009  0.1974164E+03  0.7561462E-02  0.1056366E+00
         22   -1    0    0    0    0  0.00000000000E+00  0.00000000000E+00  0.14430841768E+04  0.14430841768E+04  0.00000000000E+00 0. -1.
         22   -1    0    0    0    0 -0.00000000000E+00 -0.00000000000E+00 -0.18059384823E+03  0.18059384823E+03  0.00000000000E+00 0.  1.
        -24    2    1    2    0    0 -0.12727812057E+03  0.87648439280E+02 -0.10928625864E+03  0.20582317757E+03  0.80856200839E+02 0.  0.
         25    2    1    2    0    0  0.10540029111E+03 -0.88670903069E+02  0.39412338955E+03  0.43583560866E+03  0.12509069176E+03 0.  0.
         24    2    1    2    0    0  0.21877829465E+02  0.10224637889E+01  0.97765319770E+03  0.98201923885E+03  0.89868379530E+02 0.  0.
        -11    1    5    5    0    0 -0.20675715019E+01  0.23091315303E+02  0.69155195822E+02  0.72937814634E+02  0.00000000000E+00 0.  1.
         12    1    5    5    0    0  0.23945400967E+02 -0.22068851514E+02  0.90849800188E+03  0.90908142422E+03  0.00000000000E+00 0. -1.
         13    1    3    3    0    0 -0.54467366217E+01 -0.14382834004E+02 -0.11874100074E+02  0.19430056777E+02  0.00000000000E+00 0. -1.
        -14    1    3    3    0    0 -0.12183138395E+03  0.10203127328E+03 -0.97412158567E+02  0.18639312080E+03  0.00000000000E+00 0.  1.
          5    1    4    4  501    0  0.12827232313E+02  0.23524843276E+02  0.14341631962E+03  0.14595776537E+03  0.41800000000E+01 0.  1.
         -5    1    4    4    0  501  0.92573058796E+02 -0.11219574634E+03  0.25070706994E+03  0.28987784329E+03  0.41800000000E+01 0.  1.
</event>
<event>
11    1  0.7298586E-009  0.1670497E+03  0.7561462E-02  0.1080628E+00
         22   -1    0    0    0    0  0.00000000000E+00  0.00000000000E+00  0.90137881888E+03  0.90137881888E+03  0.00000000000E+00 0.  1.
         22   -1    0    0    0    0 -0.00000000000E+00 -0.00000000000E+00 -0.27039234818E+03  0.27039234818E+03  0.00000000000E+00 0.  1.
        -24    2    1    2    0    0  0.58240368678E+02 -0.27949327025E+02 -0.16906798530E+03  0.20651601659E+03  0.99457408126E+02 0.  0.
         25    2    1    2    0    0 -0.15927306093E+03 -0.83775137240E+01  0.57521411808E+02  0.21069982391E+03  0.12509041652E+03 0.  0.
         24    2    1    2    0    0  0.10103269226E+03  0.36326840749E+02  0.74253304419E+03  0.75455532655E+03  0.80443612815E+02 0.  0.
        -13    1    5    5    0    0  0.73057290154E+02 -0.15831448960E+02  0.39291117118E+03  0.39995898647E+03  0.00000000000E+00 0.  1.
         14    1    5    5    0    0  0.27975402101E+02  0.52158289708E+02  0.34962187301E+03  0.35459634008E+03  0.00000000000E+00 0. -1.
         13    1    3    3    0    0  0.90042688891E+01  0.22150604937E+02 -0.52005515905E+00  0.23916450712E+02  0.00000000000E+00 0. -1.
        -14    1    3    3    0    0  0.49236099789E+02 -0.50099931962E+02 -0.16854793014E+03  0.18259956588E+03  0.00000000000E+00 0.  1.
          5    1    4    4  501    0 -0.13769990274E+03 -0.56813509944E+02  0.35874306568E+02  0.15327581805E+03  0.41800000000E+01 0.  1.
         -5    1    4    4    0  501 -0.21573158195E+02  0.48435996220E+02  0.21647105240E+02  0.57424005866E+02  0.41800000000E+01 0.  1.
</event>
<event>
11    1  0.6930157E-009  0.2809665E+03  0.7561462E-02  0.1008585E+00
         22   -1    0    0    0    0  0.00000000000E+00  0.00000000000E+00  0.98915690665E+03  0.98915690665E+03  0.00000000000E+00 0.  1.
         22   -1    0    0    0    0 -0.00000000000E+00 -0.00000000000E+00 -0.40491252841E+03  0.40491252841E+03  0.00000000000E+00 0.  1.
         24    2    1    2    0    0  0.87260962712E+02 -0.58044505663E+02 -0.14795417823E+03  0.19546629846E+03  0.73027356008E+02 0.  0.
         25    2    1    2    0    0  0.11662349732E+03  0.21042663877E+03 -0.12615299958E+03  0.29906893140E+03  0.12508891236E+03 0.  0.
        -24    2    1    2    0    0 -0.20388446003E+03 -0.15238213311E+03  0.85835155606E+03  0.89953420519E+03  0.87207826453E+02 0.  0.
        -11    1    3    3    0    0  0.84579938344E+02 -0.30700556699E+02 -0.14076525803E+03  0.16706629828E+03  0.00000000000E+00 0.  1.
         12    1    3    3    0    0  0.26810243681E+01 -0.27343948964E+02 -0.71889202019E+01  0.28400000181E+02  0.00000000000E+00 0. -1.
         11    1    5    5    0    0 -0.14220347775E+03 -0.14720835031E+03  0.60308069820E+03  0.63686612096E+03  0.00000000000E+00 0. -1.
        -12    1    5    5    0    0 -0.61680982283E+02 -0.51737827957E+01  0.25527085786E+03  0.26266808423E+03  0.00000000000E+00 0.  1.
          5    1    4    4  501    0  0.27095261509E+02 -0.68740936453E+01  0.67234604671E+01  0.29053118255E+02  0.41800000000E+01 0. -1.
         -5    1    4    4    0  501  0.89528235813E+02  0.21730073241E+03 -0.13287646005E+03  0.27001581315E+03  0.41800000000E+01 0. -1.
</event>
<event>
11    1  0.6930157E-009  0.1330170E+03  0.7561462E-02  0.1115617E+00
         22   -1    0    0    0    0  0.00000000000E+00  0.00000000000E+00  0.10698522347E+04  0.10698522347E+04  0.00000000000E+00 0. -1.
         22   -1    0    0    0    0 -0.00000000000E+00 -0.00000000000E+00 -0.77699751160E+02  0.77699751160E+02  0.00000000000E+00 0.  1.
        -24    2    1    2    0    0 -0.37828039199E+02  0.30189116965E+02 -0.20872707446E+02  0.97514462956E+02  0.82043020646E+02 0.  0.
         25    2    1    2    0    0  0.35841045337E+02  0.10143067282E+02  0.25440053352E+03  0.28592705944E+03  0.12508872660E+03 0.  0.
         24    2    1    2    0    0  0.19869938620E+01 -0.40332184247E+02  0.75862465745E+03  0.76411046345E+03  0.81992659571E+02 0.  0.
        -11    1    5    5    0    0  0.38780120830E+02 -0.73796189108E+01  0.25057526969E+03  0.25366576893E+03  0.00000000000E+00 0.  1.
         12    1    5    5    0    0 -0.36793126968E+02 -0.32952565337E+02  0.50804938776E+03  0.51044469452E+03  0.00000000000E+00 0. -1.
         13    1    3    3    0    0  0.11736834924E+02  0.13842941653E+02  0.23024525996E+02  0.29317386053E+02  0.00000000000E+00 0. -1.
        -14    1    3    3    0    0 -0.49564874123E+02  0.16346175312E+02 -0.43897233442E+02  0.68197076903E+02  0.00000000000E+00 0.  1.
          5    1    4    4  501    0 -0.41976115508E+02 -0.17759887080E+02  0.67934303677E+02  0.81914283726E+02  0.41800000000E+01 0.  1.
         -5    1    4    4    0  501  0.77817160846E+02  0.27902954362E+02  0.18646622984E+03  0.20401277572E+03  0.41800000000E+01 0.  1.
</event>
<event>
11    1  0.6930157E-009  0.1285648E+03  0.7561462E-02  0.1121045E+00
         22   -1    0    0    0    0  0.00000000000E+00  0.00000000000E+00  0.41365443487E+03  0.41365443487E+03  0.00000000000E+00 0.  1.
         22   -1    0    0    0    0 -0.00000000000E+00 -0.00000000000E+00 -0.78442003496E+03  0.78442003496E+03  0.00000000000E+00 0. -1.
        -24    2    1    2    0    0  0.14436900200E+02 -0.44252766656E+01 -0.71500950854E+03  0.71995995931E+03  0.82920073218E+02 0.  0.
         25    2    1    2    0    0  0.58358100016E+01 -0.18606574634E+02  0.33781058338E+01  0.12664980343E+03  0.12509396393E+03 0.  0.
         24    2    1    2    0    0 -0.20272710201E+02  0.23031851300E+02  0.34086580262E+03  0.35146470709E+03  0.79978096894E+02 0.  0.
        -13    1    5    5    0    0  0.26122716656E+01  0.12506265796E+02  0.31535419611E+03  0.31561289526E+03  0.00000000000E+00 0.  1.
         14    1    5    5    0    0 -0.22884981867E+02  0.10525585504E+02  0.25511606507E+02  0.35851811834E+02  0.00000000000E+00 0. -1.
         13    1    3    3    0    0  0.17271911945E+02 -0.19057452377E+02 -0.69241464699E+03  0.69289216247E+03  0.00000000000E+00 0. -1.
        -14    1    3    3    0    0 -0.28350117451E+01  0.14632175712E+02 -0.22594861549E+02  0.27067796845E+02  0.00000000000E+00 0.  1.
          5    1    4    4  501    0 -0.44044467044E+02  0.30689974186E+02  0.13904938997E+02  0.55611233768E+02  0.41800000000E+01 0. -1.
         -5    1    4    4    0  501  0.49880277045E+02 -0.49296548820E+02 -0.10526833164E+02  0.71038569666E+02  0.41800000000E+01 0. -1.
</event>
<event>
11    1  0.6930157E-009  0.2152440E+03  0.7561462E-02  0.1044238E+00
         22   -1    0    0    0    0  0.00000000000E+00  0.00000000000E+00  0.13010136038E+04  0.13010136038E+04  0.00000000000E+00 0. -1.
         22   -1    0    0    0    0 -0.00000000000E+00 -0.00000000000E+00 -0.21789165096E+03  0.21789165096E+03  0.00000000000E+00 0.  1.
         24    2    1    2    0    0 -0.12319929320E+03  0.18223997182E+03 -0.49558729920E+02  0.23959260163E+03  0.80988109458E+02 0.  0.
         25    2    1    2    0    0  0.84874348438E+02 -0.89917806624E+02  0.41933788811E+02  0.18085185484E+03  0.12514025644E+03 0.  0.
        -24    2    1    2    0    0  0.38324944760E+02 -0.92322165192E+02  0.10907468939E+04  0.10984607983E+04  0.83037070924E+02 0.  0.
        -13    1    3    3    0    0 -0.12105139984E+03  0.18773632481E+03 -0.37963928274E+02  0.22658249912E+03  0.00000000000E+00 0.  1.
         14    1    3    3    0    0 -0.21478933617E+01 -0.54963529986E+01 -0.11594801646E+02  0.13010102513E+02  0.00000000000E+00 0. -1.
         11    1    5    5    0    0  0.19167221577E+02 -0.17327661345E+02  0.67962255868E+03  0.68011355853E+03  0.00000000000E+00 0. -1.
        -12    1    5    5    0    0  0.19157723183E+02 -0.74994503847E+02  0.41112433522E+03  0.41834723972E+03  0.00000000000E+00 0.  1.
          5    1    4    4  501    0  0.75241668331E+02 -0.10949267014E+03 -0.54008185742E+00  0.13291996673E+03  0.41800000000E+01 0.  1.
         -5    1    4    4    0  501  0.96326801063E+01  0.19574863516E+02  0.42473870668E+02  0.47931888104E+02  0.41800000000E+01 0.  1.
</event>
<event>
11    1  0.6930157E-009  0.1532845E+03  0.7561462E-02  0.1093569E+00
         22   -1    0    0    0    0  0.00000000000E+00  0.00000000000E+00  0.60100733354E+03  0.60100733354E+03  0.00000000000E+00 0. -1.
         22   -1    0    0    0    0 -0.00000000000E+00 -0.00000000000E+00 -0.91041785990E+03  0.91041785990E+03  0.00000000000E+00 0. -1.
         24    2    1    2    0    0  0.13639766392E+02 -0.25751104250E+02 -0.85924635276E+03  0.86349569203E+03  0.80444719106E+02 0.  0.
         25    2    1    2    0    0  0.72884615841E+02  0.48646930635E+02  0.99052248659E+02  0.18203645364E+03  0.12508889401E+03 0.  0.
        -24    2    1    2    0    0 -0.86524382233E+02 -0.22895826385E+02  0.45078357773E+03  0.46589304777E+03  0.76418652313E+02 0.  0.
        -11    1    3    3    0    0  0.43351043767E+01 -0.34030271494E+02 -0.14000937171E+03  0.14415088163E+03  0.00000000000E+00 0.  1.
         12    1    3    3    0    0  0.93046620150E+01  0.82791672437E+01 -0.71923698105E+03  0.71934481040E+03  0.00000000000E+00 0. -1.
         13    1    5    5    0    0 -0.94579579000E+02 -0.33864390127E+02  0.42529798811E+03  0.43700168463E+03  0.00000000000E+00 0. -1.
        -14    1    5    5    0    0  0.80551967668E+01  0.10968563742E+02  0.25485589623E+02  0.28891363137E+02  0.00000000000E+00 0.  1.
          5    1    4    4  501    0  0.47732824532E+02  0.82955945359E+02  0.10105109901E+03  0.13924406063E+03  0.41800000000E+01 0.  1.
         -5    1    4    4    0  501  0.25151791309E+02 -0.34309014724E+02 -0.19988503522E+01  0.42792393017E+02  0.41800000000E+01 0.  1.
</event>
<event>
11    1  0.6930157E-009  0.1384642E+03  0.7561462E-02  0.1109286E+00
         22   -1    0    0    0    0  0.00000000000E+00  0.00000000000E+00  0.56519564362E+03  0.56519564362E+03  0.00000000000E+00 0.  1.
         22   -1    0    0    0    0 -0.00000000000E+00 -0.00000000000E+00 -0.62405240017E+03  0.62405240017E+03  0.00000000000E+00 0. -1.
         24    2    1    2    0    0  0.41225874985E+01 -0.52966723306E+02 -0.37407781030E+03  0.38640668214E+03  0.80953359073E+02 0.  0.
         25    2    1    2    0    0  0.13169637127E+02  0.84395404504E+02 -0.21575229102E+03  0.26360594519E+03  0.12507205770E+03 0.  0.
        -24    2    1    2    0    0 -0.17292224625E+02 -0.31428681198E+02  0.53097334477E+03  0.53923541645E+03  0.86921565006E+02 0.  0.
        -11    1    3    3    0    0  0.97209125388E+01 -0.27601577596E+02 -0.32072881156E+02  0.43416735621E+02  0.00000000000E+00 0.  1.
         12    1    3    3    0    0 -0.55983250403E+01 -0.25365145709E+02 -0.34200492914E+03  0.34298994652E+03  0.00000000000E+00 0. -1.
         13    1    5    5    0    0 -0.28755420119E+02 -0.12052532055E+02  0.59055782052E+02  0.66781158337E+02  0.00000000000E+00 0. -1.
        -14    1    5    5    0    0  0.11463195493E+02 -0.19376149143E+02  0.47191756272E+03  0.47245425811E+03  0.00000000000E+00 0.  1.
          5    1    4    4  501    0  0.39012030388E+02  0.54996900454E+02 -0.21377029374E+03  0.22419145492E+03  0.41800000000E+01 0.  1.
         -5    1    4    4    0  501 -0.25842393261E+02  0.29398504049E+02 -0.19819972784E+01  0.39414490267E+02  0.41800000000E+01 0.  1.
</event>
<event>
11    1  0.6930157E-009  0.2196002E+03  0.7561462E-02  0.1041468E+00
         22   -1    0    0    0    0  0.00000000000E+00  0.00000000000E+00  0.14928508065E+04  0.14928508065E+04  0.00000000000E+00 0.  1.
         22   -1    0    0    0    0 -0.00000000000E+00 -0.00000000000E+00 -0.97258924414E+03  0.97258924414E+03  0.00000000000E+00 0.  1.
         24    2    1    2    0    0  0.27129100157E+01 -0.52747050041E+02 -0.91655427347E+03  0.92132134711E+03  0.77276628121E+02 0.  0.
         25    2    1    2    0    0  0.77021654119E+02  0.20691995485E+03  0.30774435769E+03  0.39887726160E+03  0.12509307419E+03 0.  0.
        -24    2    1    2    0    0 -0.79734564135E+02 -0.15417290481E+03  0.11290714782E+04  0.11452414420E+04  0.81539391041E+02 0.  0.
        -13    1    3    3    0    0 -0.99631228539E+01 -0.52387406192E+02 -0.89282532010E+03  0.89441643341E+03  0.00000000000E+00 0.  1.
         14    1    3    3    0    0  0.12676032870E+02 -0.35964384873E+00 -0.23728953365E+02  0.26904913693E+02  0.00000000000E+00 0. -1.
         11    1    5    5    0    0 -0.70980294155E+02 -0.51166283352E+02  0.46303619314E+03  0.47123105465E+03  0.00000000000E+00 0. -1.
        -12    1    5    5    0    0 -0.87542699801E+01 -0.10300662146E+03  0.66603528504E+03  0.67401038733E+03  0.00000000000E+00 0.  1.
          5    1    4    4  501    0  0.77767774283E+02  0.65939727650E+02  0.18777608142E+03  0.21371289983E+03  0.41800000000E+01 0.  1.
         -5    1    4    4    0  501 -0.74612016313E+00  0.14098022720E+03  0.11996827627E+03  0.18516436177E+03  0.41800000000E+01 0.  1.
</event>
<event>
11    1  0.6930157E-009  0.1481754E+03  0.7561462E-02  0.1098758E+00
         22   -1    0    0    0    0  0.00000000000E+00  0.00000000000E+00  0.86904461864E+03  0.86904461864E+03  0.00000000000E+00 0. -1.
         22   -1    0    0    0    0 -0.00000000000E+00 -0.00000000000E+00 -0.64949383939E+03  0.64949383939E+03  0.00000000000E+00 0.  1.
        -24    2    1    2    0    0  0.25964935160E+02  0.75464756788E+02 -0.61839751338E+03  0.62896194785E+03  0.82513877099E+02 0.  0.
         25    2    1    2    0    0 -0.59363369082E+02 -0.44456582672E+02  0.21149036981E+03  0.25666987039E+03  0.12510335133E+03 0.  0.
         24    2    1    2    0    0  0.33398433922E+02 -0.31008174116E+02  0.62645792282E+03  0.63290663979E+03  0.77745246615E+02 0.  0.
        -13    1    5    5    0    0  0.37621342563E+02 -0.50654340273E+02  0.34428728741E+03  0.35002137631E+03  0.00000000000E+00 0.  1.
         14    1    5    5    0    0 -0.42229086409E+01  0.19646166157E+02  0.28217063541E+03  0.28288526347E+03  0.00000000000E+00 0. -1.
         11    1    3    3    0    0 -0.19306854147E+02 -0.70090770367E+01 -0.12461885393E+03  0.12630020005E+03  0.00000000000E+00 0. -1.
        -12    1    3    3    0    0  0.45271789306E+02  0.82473833825E+02 -0.49377865945E+03  0.50266174779E+03  0.00000000000E+00 0.  1.
          5    1    4    4  501    0 -0.77824208374E+02 -0.53085752576E+02  0.21573063262E+03  0.23543976466E+03  0.41800000000E+01 0. -1.
         -5    1    4    4    0  501  0.18460839293E+02  0.86291699041E+01 -0.42402628060E+01  0.21230105729E+02  0.41800000000E+01 0. -1.
</event>
<event>
11    1  0.6930157E-009  0.1638424E+03  0.7561462E-02  0.1083518E+00
         22   -1    0    0    0    0  0.00000000000E+00  0.00000000000E+00  0.91268924821E+03  0.91268924821E+03  0.00000000000E+00 0.  1.
         22   -1    0    0    0    0 -0.00000000000E+00 -0.00000000000E+00 -0.26474016284E+03  0.26474016284E+03  0.00000000000E+00 0.  1.
        -24    2    1    2    0    0  0.37548775383E+02  0.27147247529E+02 -0.19566883906E+03  0.21618547466E+03  0.79391317491E+02 0.  0.
         25    2    1    2    0    0  0.61027932263E+02  0.22331457831E+02  0.40614740131E+02  0.14669952418E+03  0.12509232891E+03 0.  0.
         24    2    1    2    0    0 -0.98576707645E+02 -0.49478705360E+02  0.80300318430E+03  0.81454441222E+03  0.80641031100E+02 0.  0.
        -11    1    5    5    0    0 -0.96123914022E+02 -0.59209303209E+02  0.79045819537E+03  0.79847962220E+03  0.00000000000E+00 0.  1.
         12    1    5    5    0    0 -0.24527936230E+01  0.97305978493E+01  0.12544988931E+02  0.16064790019E+02  0.00000000000E+00 0. -1.
         11    1    3    3    0    0  0.32283620445E+02  0.46400235413E+02 -0.75207987833E+02  0.94082173813E+02  0.00000000000E+00 0. -1.
        -12    1    3    3    0    0  0.52651549378E+01 -0.19252987884E+02 -0.12046085123E+03  0.12210330085E+03  0.00000000000E+00 0.  1.
          5    1    4    4  501    0  0.38214320264E+02  0.74059256633E+02  0.16317911218E+02  0.85022669876E+02  0.41800000000E+01 0.  1.
         -5    1    4    4    0  501  0.22813611998E+02 -0.51727798803E+02  0.24296828913E+02  0.61676854302E+02  0.41800000000E+01 0.  1.
</event>
<event>
11    1  0.6930157E-009  0.1662578E+03  0.7561462E-02  0.1081335E+00
         22   -1    0    0    0    0  0.00000000000E+00  0.00000000000E+00  0.15318258965E+03  0.15318258965E+03  0.00000000000E+00 0.  1.
         22   -1    0    0    0    0 -0.00000000000E+00 -0.00000000000E+00 -0.63655950158E+03  0.63655950158E+03  0.00000000000E+00 0.  1.
        -24    2    1    2    0    0  0.46430528131E+02  0.39881855496E+02 -0.30824086659E+03  0.32401038357E+03  0.78891954495E+02 0.  0.
         25    2    1    2    0    0 -0.39508541850E+01  0.68054322142E+02 -0.26366102424E+03  0.29969100983E+03  0.12510222082E+03 0.  0.
         24    2    1    2    0    0 -0.42479673946E+02 -0.10793617764E+03  0.88524978896E+02  0.16604069783E+03  0.79234464135E+02 0.  0.
        -13    1    5    5    0    0 -0.32218380564E+02 -0.11917866354E+03  0.86365220371E+02  0.15066694787E+03  0.00000000000E+00 0.  1.
         14    1    5    5    0    0 -0.10261293382E+02  0.11242485903E+02  0.21597585252E+01  0.15373749967E+02  0.00000000000E+00 0. -1.
         11    1    3    3    0    0  0.16705858755E+02  0.56229692800E+02 -0.13073060436E+03  0.14328766515E+03  0.00000000000E+00 0. -1.
        -12    1    3    3    0    0  0.29724669376E+02 -0.16347837304E+02 -0.17751026223E+03  0.18072271842E+03  0.00000000000E+00 0.  1.
          5    1    4    4  501    0  0.15646126197E+02  0.43429869367E+02 -0.26390343138E+03  0.26794299452E+03  0.41800000000E+01 0.  1.
         -5    1    4    4    0  501 -0.19596980382E+02  0.24624452774E+02  0.24240713893E+00  0.31748015304E+02  0.41800000000E+01 0.  1.
</event>
<event>
11    1  0.6930157E-009  0.1444574E+03  0.7561462E-02  0.1102681E+00
         22   -1    0    0    0    0  0.00000000000E+00  0.00000000000E+00  0.11304214971E+04  0.11304214971E+04  0.00000000000E+00 0. -1.
         22   -1    0    0    0    0 -0.00000000000E+00 -0.00000000000E+00 -0.19694074527E+03  0.19694074527E+03  0.00000000000E+00 0. -1.
         24    2    1    2    0    0 -0.29050684677E+02 -0.46624852567E+02 -0.15825443287E+03  0.18539682468E+03  0.79433606994E+02 0.  0.
         25    2    1    2    0    0  0.96843924363E+02  0.31967026365E+02  0.27891503562E+03  0.32224375442E+03  0.12508718442E+03 0.  0.
        -24    2    1    2    0    0 -0.67793239685E+02  0.14657826202E+02  0.81282014910E+03  0.81972166329E+03  0.80350701733E+02 0.  0.
        -13    1    3    3    0    0 -0.11492636062E+02  0.21637944529E+02 -0.27326372396E+02  0.36701661481E+02  0.00000000000E+00 0.  1.
         14    1    3    3    0    0 -0.17558048615E+02 -0.68262797096E+02 -0.13092806047E+03  0.14869516320E+03  0.00000000000E+00 0. -1.
         13    1    5    5    0    0 -0.65378496815E+02 -0.21982406331E+02  0.56535271029E+03  0.56954478407E+03  0.00000000000E+00 0. -1.
        -14    1    5    5    0    0 -0.24147428703E+01  0.36640232534E+02  0.24746743882E+03  0.25017687922E+03  0.00000000000E+00 0.  1.
          5    1    4    4  501    0  0.34546789545E+02  0.76012183495E+02  0.12458375109E+03  0.15003305017E+03  0.41800000000E+01 0.  1.
         -5    1    4    4    0  501  0.62297134817E+02 -0.44045157130E+02  0.15433128453E+03  0.17221070425E+03  0.41800000000E+01 0.  1.
</event>
<event>
11    1  0.6930157E-009  0.1447063E+03  0.7561462E-02  0.1102414E+00
         22   -1    0    0    0    0  0.00000000000E+00  0.00000000000E+00  0.83022553976E+03  0.83022553976E+03  0.00000000000E+00 0. -1.
         22   -1    0    0    0    0 -0.00000000000E+00 -0.00000000000E+00 -0.78674385932E+03  0.78674385932E+03  0.00000000000E+00 0.  1.
        -24    2    1    2    0    0 -0.31994393842E+02 -0.51305263933E+01 -0.68525426955E+03  0.69070644362E+03  0.80324428338E+02 0.  0.
         25    2    1    2    0    0  0.42073424964E+02  0.76812484861E+02 -0.33711048418E+02  0.15637550642E+03  0.12508610356E+03 0.  0.
         24    2    1    2    0    0 -0.10079031121E+02 -0.71681958468E+02  0.76244699840E+03  0.76988744903E+03  0.78494386861E+02 0.  0.
        -13    1    5    5    0    0  0.21986620331E+02 -0.70751456391E+01  0.70400508729E+02  0.74092515066E+02  0.00000000000E+00 0.  1.
         14    1    5    5    0    0 -0.32065651452E+02 -0.64606812829E+02  0.69204648967E+03  0.69579493397E+03  0.00000000000E+00 0. -1.
         13    1    3    3    0    0  0.20507752471E+02  0.19774528646E+02 -0.21930149404E+03  0.22114417285E+03  0.00000000000E+00 0. -1.
        -14    1    3    3    0    0 -0.52502146314E+02 -0.24905055040E+02 -0.46595277550E+03  0.46956227077E+03  0.00000000000E+00 0.  1.
          5    1    4    4  501    0  0.42763656519E+02  0.72838013366E+02 -0.75993926746E+02  0.11369545203E+03  0.41800000000E+01 0. -1.
         -5    1    4    4    0  501 -0.69023155507E+00  0.39744714947E+01  0.42282878329E+02  0.42680054393E+02  0.41800000000E+01 0. -1.
</event>
<event>
11    1  0.6930157E-009  0.1275687E+03  0.7561462E-02  0.1122293E+00
         22   -1    0    0    0    0  0.00000000000E+00  0.00000000000E+00  0.31894189197E+03  0.31894189197E+03  0.00000000000E+00 0. -1.
         22   -1    0    0    0    0 -0.00000000000E+00 -0.00000000000E+00 -0.77495308019E+03  0.77495308019E+03  0.00000000000E+00 0.  1.
        -24    2    1    2    0    0 -0.18652299670E+02 -0.16135590167E+02 -0.69423941017E+03  0.69929241032E+03  0.80207549207E+02 0.  0.
         25    2    1    2    0    0  0.30797123472E+02  0.14235554029E+02 -0.13115887625E+02  0.13027732312E+03  0.12509612543E+03 0.  0.
         24    2    1    2    0    0 -0.12144823802E+02  0.19000361380E+01  0.25134410958E+03  0.26432523872E+03  0.80887968972E+02 0.  0.
        -13    1    5    5    0    0  0.20196159432E+02 -0.69927953599E+01  0.16245081812E+02  0.26845609060E+02  0.00000000000E+00 0.  1.
         14    1    5    5    0    0 -0.32340983233E+02  0.88928314980E+01  0.23509902777E+03  0.23747962966E+03  0.00000000000E+00 0. -1.
         11    1    3    3    0    0 -0.10900349180E+02  0.16523266215E+02 -0.44707026614E+02  0.48893293684E+02  0.00000000000E+00 0. -1.
        -12    1    3    3    0    0 -0.77519504900E+01 -0.32658856382E+02 -0.64953238356E+03  0.65039911664E+03  0.00000000000E+00 0.  1.
          5    1    4    4  501    0 -0.29152111454E+02  0.16439434945E+02 -0.49569491018E+02  0.59955879306E+02  0.41800000000E+01 0. -1.
         -5    1    4    4    0  501  0.59949234926E+02 -0.22038809167E+01  0.36453603394E+02  0.70321443811E+02  0.41800000000E+01 0. -1.
</event>
<event>
11    1  0.6930157E-009  0.1562231E+03  0.7561462E-02  0.1090684E+00
         22   -1    0    0    0    0  0.00000000000E+00  0.00000000000E+00  0.35826386592E+03  0.35826386592E+03  0.00000000000E+00 0.  1.
         22   -1    0    0    0    0 -0.00000000000E+00 -0.00000000000E+00 -0.11518101743E+04  0.11518101743E+04  0.00000000000E+00 0. -1.
         24    2    1    2    0    0 -0.69832376118E+02  0.65797612507E+02 -0.10687312414E+04  0.10767283508E+04  0.89171679809E+02 0.  0.
         25    2    1    2    0    0 -0.26537909893E+02 -0.83672873950E+02  0.27646618527E+02  0.15529925737E+03  0.12509241915E+03 0.  0.
        -24    2    1    2    0    0  0.96370286011E+02  0.17875261443E+02  0.24753831451E+03  0.27804643204E+03  0.80173837537E+02 0.  0.
        -11    1    3    3    0    0 -0.40849145446E+02  0.23795041314E+02 -0.16722166925E+03  0.17377555450E+03  0.00000000000E+00 0.  1.
         12    1    3    3    0    0 -0.28983230672E+02  0.42002571193E+02 -0.90150957212E+03  0.90295279626E+03  0.00000000000E+00 0. -1.
         13    1    5    5    0    0 -0.64510318385E+01  0.11532037571E+01 -0.26255576727E+01  0.70596914790E+01  0.00000000000E+00 0. -1.
        -14    1    5    5    0    0  0.10282131785E+03  0.16722057686E+02  0.25016387218E+03  0.27098674056E+03  0.00000000000E+00 0.  1.
          5    1    4    4  501    0 -0.59707231266E+02 -0.17071624247E+01  0.29517620013E+02  0.66757996975E+02  0.41800000000E+01 0.  1.
         -5    1    4    4    0  501  0.33169321373E+02 -0.81965711525E+02 -0.18710014855E+01  0.88541260398E+02  0.41800000000E+01 0.  1.
</event>
<event>
11    1  0.6930157E-009  0.1832002E+03  0.7561462E-02  0.1067083E+00
         22   -1    0    0    0    0  0.00000000000E+00  0.00000000000E+00  0.93233916266E+03  0.93233916266E+03  0.00000000000E+00 0.  1.
         22   -1    0    0    0    0 -0.00000000000E+00 -0.00000000000E+00 -0.35319353617E+03  0.35319353617E+03  0.00000000000E+00 0.  1.
        -24    2    1    2    0    0  0.64884604901E+02 -0.49761464319E+02 -0.30964548210E+03  0.33034355972E+03  0.80995849150E+02 0.  0.
         25    2    1    2    0    0  0.81303751836E+02  0.94580476095E+02  0.43926720411E+03  0.47345489412E+03  0.12509234043E+03 0.  0.
         24    2    1    2    0    0 -0.14618835674E+03 -0.44819011775E+02  0.44952390448E+03  0.48173424499E+03  0.81341026790E+02 0.  0.
        -11    1    5    5    0    0 -0.15524525427E+03 -0.49102373657E+02  0.41546403587E+03  0.44623143903E+03  0.00000000000E+00 0.  1.
         12    1    5    5    0    0  0.90568975355E+01  0.42833618815E+01  0.34059868606E+02  0.35502805965E+02  0.00000000000E+00 0. -1.
         13    1    3    3    0    0  0.28326793004E+01 -0.47532186442E+02 -0.86725578066E+02  0.98937650624E+02  0.00000000000E+00 0. -1.
        -14    1    3    3    0    0  0.62051925600E+02 -0.22292778770E+01 -0.22291990403E+03  0.23140590909E+03  0.00000000000E+00 0.  1.
          5    1    4    4  501    0  0.73524973362E+02 -0.43845290996E+01  0.23494289398E+03  0.24625349060E+03  0.41800000000E+01 0. -1.
         -5    1    4    4    0  501  0.77787784745E+01  0.98965005194E+02  0.20432431013E+03  0.22720140351E+03  0.41800000000E+01 0. -1.
</event>
<event>
11    1  0.6930157E-009  0.2607371E+03  0.7561462E-02  0.1018330E+00
         22   -1    0    0    0    0  0.00000000000E+00  0.00000000000E+00  0.39376881416E+03  0.39376881416E+03  0.00000000000E+00 0. -1.
         22   -1    0    0    0    0 -0.00000000000E+00 -0.00000000000E+00 -0.11021511361E+04  0.11021511361E+04  0.00000000000E+00 0.  1.
        -24    2    1    2    0    0 -0.48957360426E+02  0.22334419203E+03 -0.99849176085E+03  0.10276793153E+04  0.82822263359E+02 0.  0.
         25    2    1    2    0    0  0.41056814744E+02 -0.22709373479E+03  0.13932251841E+03  0.29717935871E+03  0.12509029014E+03 0.  0.
         24    2    1    2    0    0  0.79005456823E+01  0.37495427577E+01  0.15078692052E+03  0.17106127626E+03  0.80304340728E+02 0.  0.
        -11    1    5    5    0    0  0.17247257766E+02  0.21713939561E+02  0.11027529390E+02  0.29842410696E+02  0.00000000000E+00 0.  1.
         12    1    5    5    0    0 -0.93467120841E+01 -0.17964396804E+02  0.13975939113E+03  0.14121886556E+03  0.00000000000E+00 0. -1.
         13    1    3    3    0    0 -0.41524779109E+02  0.54075484993E+02 -0.19669603790E+03  0.20817732029E+03  0.00000000000E+00 0. -1.
        -14    1    3    3    0    0 -0.74325813172E+01  0.16926870704E+03 -0.80179572294E+03  0.81950199498E+03  0.00000000000E+00 0.  1.
          5    1    4    4  501    0  0.51820136181E+02 -0.12258714043E+03  0.13836936728E+03  0.19203251734E+03  0.41800000000E+01 0.  1.
         -5    1    4    4    0  501 -0.10763321437E+02 -0.10450659436E+03  0.95315112762E+00  0.10514684137E+03  0.41800000000E+01 0.  1.
</event>
<event>
11    1  0.6930157E-009  0.2812292E+03  0.7561462E-02  0.1008464E+00
         22   -1    0    0    0    0  0.00000000000E+00  0.00000000000E+00  0.34605209110E+03  0.34605209110E+03  0.00000000000E+00 0. -1.
         22   -1    0    0    0    0 -0.00000000000E+00 -0.00000000000E+00 -0.18511740446E+04  0.18511740446E+04  0.00000000000E+00 0.  1.
         24    2    1    2    0    0  0.90260625914E+02 -0.34616125350E+02 -0.54759011990E+03  0.56183558466E+03  0.80368078616E+02 0.  0.
         25    2    1    2    0    0 -0.19194712298E+03  0.26190841131E+03 -0.12176825800E+04  0.12664246231E+04  0.12506297017E+03 0.  0.
        -24    2    1    2    0    0  0.10168649706E+03 -0.22729228596E+03  0.26015074644E+03  0.36896592787E+03  0.80346238919E+02 0.  0.
        -13    1    3    3    0    0  0.78652400071E+02  0.93959677312E+01 -0.38043657617E+03  0.38859551302E+03  0.00000000000E+00 0.  1.
         14    1    3    3    0    0  0.11608225843E+02 -0.44012093081E+02 -0.16715354372E+03  0.17324007164E+03  0.00000000000E+00 0. -1.
         13    1    5    5    0    0  0.10780714829E+03 -0.15752335226E+03  0.20215696015E+03  0.27803493354E+03  0.00000000000E+00 0. -1.
        -14    1    5    5    0    0 -0.61206512231E+01 -0.69768933702E+02  0.57993786287E+02  0.90930994326E+02  0.00000000000E+00 0.  1.
          5    1    4    4  501    0  0.84342331402E+01  0.46566866680E+02 -0.10057485834E+03  0.11123121815E+03  0.41800000000E+01 0.  1.
         -5    1    4    4    0  501 -0.20038135612E+03  0.21534154463E+03 -0.11171077217E+04  0.11551934050E+04  0.41800000000E+01 0.  1.
</event>
<event>
11    1  0.6930157E-009  0.1356069E+03  0.7561462E-02  0.1112566E+00
         22   -1    0    0    0    0  0.00000000000E+00  0.00000000000E+00  0.95627667602E+03  0.95627667602E+03  0.00000000000E+00 0.  1.
         22   -1    0    0    0    0 -0.00000000000E+00 -0.00000000000E+00 -0.15251868373E+03  0.15251868373E+03  0.00000000000E+00 0.  1.
         24    2    1    2    0    0  0.43133466238E+02 -0.24687083976E+02 -0.36962849682E+02  0.10126508542E+03  0.80115025081E+02 0.  0.
         25    2    1    2    0    0 -0.28592653291E+01  0.58955309103E+02 -0.21492420327E+02  0.13997600797E+03  0.12508978698E+03 0.  0.
        -24    2    1    2    0    0 -0.40274200909E+02 -0.34268225128E+02  0.86221326231E+03  0.86755426636E+03  0.80264393515E+02 0.  0.
        -13    1    3    3    0    0  0.44215989071E+02 -0.28371166734E+02 -0.58939975278E+02  0.78955034526E+02  0.00000000000E+00 0.  1.
         14    1    3    3    0    0 -0.10825228331E+01  0.36840827580E+01  0.21977125596E+02  0.22310050894E+02  0.00000000000E+00 0. -1.
         11    1    5    5    0    0  0.72810833545E+01  0.51247064103E+01  0.11220687604E+02  0.14324127230E+02  0.00000000000E+00 0. -1.
        -12    1    5    5    0    0 -0.47555284263E+02 -0.39392931538E+02  0.85099257470E+03  0.85323013913E+03  0.00000000000E+00 0.  1.
          5    1    4    4  501    0  0.17939609278E+02  0.28431771313E+01 -0.63866651533E+02  0.66530705808E+02  0.41800000000E+01 0. -1.
         -5    1    4    4    0  501 -0.20798874607E+02  0.56112131972E+02  0.42374231206E+02  0.73445302162E+02  0.41800000000E+01 0. -1.
</event>
<event>
11    1  0.6930157E-009  0.1581359E+03  0.7561462E-02  0.1088844E+00
         22   -1    0    0    0    0  0.00000000000E+00  0.00000000000E+00  0.54785423634E+03  0.54785423634E+03  0.00000000000E+00 0.  1.
         22   -1    0    0    0    0 -0.00000000000E+00 -0.00000000000E+00 -0.54048557782E+03  0.54048557782E+03  0.00000000000E+00 0. -1.
        -24    2    1    2    0    0 -0.40932981605E+02  0.85213278369E+00 -0.47459148905E+03  0.48293456577E+03  0.79451105845E+02 0.  0.
         25    2    1    2    0    0  0.11544144651E+03  0.52436845323E+02  0.99764539237E+02  0.20415031716E+03  0.12509211960E+03 0.  0.
         24    2    1    2    0    0 -0.74508464908E+02 -0.53288978107E+02  0.38219560833E+03  0.40125493123E+03  0.80875276068E+02 0.  0.
        -11    1    5    5    0    0 -0.88764159682E+02 -0.59273231543E+02  0.33336263169E+03  0.35003290735E+03  0.00000000000E+00 0.  1.
         12    1    5    5    0    0  0.14255694774E+02  0.59842534363E+01  0.48832976642E+02  0.51222023881E+02  0.00000000000E+00 0. -1.
         13    1    3    3    0    0 -0.65888425212E+01  0.18581220830E+02 -0.38319371596E+03  0.38370053240E+03  0.00000000000E+00 0. -1.
        -14    1    3    3    0    0 -0.34344139083E+02 -0.17729088046E+02 -0.91397773096E+02  0.99234033372E+02  0.00000000000E+00 0.  1.
          5    1    4    4  501    0  0.30032725339E+02  0.13440931315E+02 -0.29461106369E+02  0.44362736778E+02  0.41800000000E+01 0.  1.
         -5    1    4    4    0  501  0.85408721174E+02  0.38995914008E+02  0.12922564561E+03  0.15978758038E+03  0.41800000000E+01 0.  1.
</event>
<event>
11    1  0.6930157E-009  0.1295657E+03  0.7561462E-02  0.1119804E+00
         22   -1    0    0    0    0  0.00000000000E+00  0.00000000000E+00  0.26651770482E+03  0.26651770482E+03  0.00000000000E+00 0.  1.
         22   -1    0    0    0    0 -0.00000000000E+00 -0.00000000000E+00 -0.24732314949E+04  0.24732314949E+04  0.00000000000E+00 0. -1.
        -24    2    1    2    0    0 -0.17325456776E+02 -0.21674096328E+02 -0.16517051179E+04  0.16538768136E+04  0.80054857815E+02 0.  0.
         25    2    1    2    0    0  0.43229953374E+02  0.21994275557E-01 -0.80790529790E+03  0.81867424644E+03  0.12509085524E+03 0.  0.
         24    2    1    2    0    0 -0.25904496598E+02  0.21652102052E+02  0.25289662571E+03  0.26719813966E+03  0.79361741860E+02 0.  0.
        -11    1    5    5    0    0 -0.10251331404E+02  0.35834029420E+02  0.23905851468E+03  0.24194656621E+03  0.00000000000E+00 0.  1.
         12    1    5    5    0    0 -0.15653165194E+02 -0.14181927368E+02  0.13838111032E+02  0.25251573444E+02  0.00000000000E+00 0. -1.
         13    1    3    3    0    0 -0.40928677214E+02  0.34518746218E+01 -0.50998763387E+03  0.51163899260E+03  0.00000000000E+00 0. -1.
        -14    1    3    3    0    0  0.23603220438E+02 -0.25125970950E+02 -0.11417174841E+04  0.11422378210E+04  0.00000000000E+00 0.  1.
          5    1    4    4  501    0  0.17945226452E+02 -0.60617326198E+02 -0.48549701398E+03  0.48961343361E+03  0.41800000000E+01 0. -1.
         -5    1    4    4    0  501  0.25284726922E+02  0.60639320473E+02 -0.32240828391E+03  0.32906081283E+03  0.41800000000E+01 0. -1.
</event>
<event>
11    1  0.6930157E-009  0.1270113E+03  0.7561462E-02  0.1122997E+00
         22   -1    0    0    0    0  0.00000000000E+00  0.00000000000E+00  0.74827015921E+03  0.74827015921E+03  0.00000000000E+00 0.  1.
         22   -1    0    0    0    0 -0.00000000000E+00 -0.00000000000E+00 -0.32545391171E+03  0.32545391171E+03  0.00000000000E+00 0. -1.
        -24    2    1    2    0    0  0.23570237629E+02  0.68085635315E+01 -0.25588965629E+03  0.26959156913E+03  0.81229214638E+02 0.  0.
         25    2    1    2    0    0 -0.44472641338E+02 -0.86143807788E+01  0.13726842614E+02  0.13374404026E+03  0.12508804385E+03 0.  0.
         24    2    1    2    0    0  0.20902403709E+02  0.18058172473E+01  0.66497906118E+03  0.67038846153E+03  0.82361192829E+02 0.  0.
        -11    1    5    5    0    0 -0.29110821795E+02  0.29396247228E+01  0.37379339906E+03  0.37493677670E+03  0.00000000000E+00 0.  1.
         12    1    5    5    0    0  0.50013225504E+02 -0.11338074755E+01  0.29118566212E+03  0.29545168483E+03  0.00000000000E+00 0. -1.
         11    1    3    3    0    0 -0.67267695659E+01  0.32646032063E+02 -0.18762557304E+03  0.19056329263E+03  0.00000000000E+00 0. -1.
        -12    1    3    3    0    0  0.30297007195E+02 -0.25837468532E+02 -0.68264083247E+02  0.79028276501E+02  0.00000000000E+00 0.  1.
          5    1    4    4  501    0 -0.54042960002E+02 -0.47293329919E+02 -0.26791325237E+02  0.76762934340E+02  0.41800000000E+01 0. -1.
         -5    1    4    4    0  501  0.95703186637E+01  0.38678949140E+02  0.40518167851E+02  0.56981105920E+02  0.41800000000E+01 0. -1.
</event>
<event>
11    1  0.6930157E-009  0.1716208E+03  0.7561462E-02  0.1076630E+00
         22   -1    0    0    0    0  0.00000000000E+00  0.00000000000E+00  0.14996436837E+04  0.14996436837E+04  0.00000000000E+00 0.  1.
         22   -1    0    0    0    0 -0.00000000000E+00 -0.00000000000E+00 -0.63688456222E+03  0.63688456222E+03  0.00000000000E+00 0.  1.
         24    2    1    2    0    0  0.19706773969E+02  0.50780107024E+02 -0.40243657421E+03  0.41377755920E+03  0.79307603811E+02 0.  0.
         25    2    1    2    0    0 -0.52834479043E+02  0.62639957210E+02 -0.20041100834E+03  0.25005880491E+03  0.12509831029E+03 0.  0.
        -24    2    1    2    0    0  0.33127705074E+02 -0.11342006423E+03  0.14656067040E+04  0.14726918818E+04  0.82805869599E+02 0.  0.
        -11    1    3    3    0    0  0.39096899673E+02  0.60030398979E+02 -0.34712247971E+03  0.35443791034E+03  0.00000000000E+00 0.  1.
         12    1    3    3    0    0 -0.19390125704E+02 -0.92502919553E+01 -0.55314094508E+02  0.59339648864E+02  0.00000000000E+00 0. -1.
         13    1    5    5    0    0  0.93387622536E+01 -0.29052493191E+02  0.10717467413E+03  0.11143460242E+03  0.00000000000E+00 0. -1.
        -14    1    5    5    0    0  0.23788942820E+02 -0.84367571043E+02  0.13584320299E+04  0.13612572793E+04  0.00000000000E+00 0.  1.
          5    1    4    4  501    0 -0.46930194893E+01  0.19268602745E+02 -0.18122064620E+03  0.18235048256E+03  0.41800000000E+01 0. -1.
         -5    1    4    4    0  501 -0.48141459554E+02  0.43371354465E+02 -0.19190362140E+02  0.67708322348E+02  0.41800000000E+01 0. -1.
</event>
<event>
11    1  0.6930157E-009  0.1778758E+03  0.7561462E-02  0.1071374E+00
         22   -1    0    0    0    0  0.00000000000E+00  0.00000000000E+00  0.52359696797E+03  0.52359696797E+03  0.00000000000E+00 0. -1.
         22   -1    0    0    0    0 -0.00000000000E+00 -0.00000000000E+00 -0.13151054543E+03  0.13151054543E+03  0.00000000000E+00 0. -1.
        -24    2    1    2    0    0 -0.55814187673E+02 -0.33547845716E+02 -0.32077964348E+02  0.11086034837E+03  0.83787466516E+02 0.  0.
         25    2    1    2    0    0  0.11246165315E+03  0.12236893587E+03  0.24056268690E+03  0.31802541815E+03  0.12509188767E+03 0.  0.
         24    2    1    2    0    0 -0.56647465477E+02 -0.88821090158E+02  0.18360169998E+03  0.22622174689E+03  0.79803340338E+02 0.  0.
        -13    1    5    5    0    0 -0.23992021571E+02  0.79373301041E+01  0.15846553455E+02  0.29828368454E+02  0.00000000000E+00 0.  1.
         14    1    5    5    0    0 -0.32655443907E+02 -0.96758420263E+02  0.16775514652E+03  0.19639337844E+03  0.00000000000E+00 0. -1.
         13    1    3    3    0    0 -0.78167358610E+01 -0.52171567172E+02 -0.58404377561E+01  0.53076214012E+02  0.00000000000E+00 0. -1.
        -14    1    3    3    0    0 -0.47997451812E+02  0.18623721456E+02 -0.26237526592E+02  0.57784134353E+02  0.00000000000E+00 0.  1.
          5    1    4    4  501    0  0.10206997577E+03  0.14401122362E+03  0.23333082871E+03  0.29260598167E+03  0.41800000000E+01 0.  1.
         -5    1    4    4    0  501  0.10391677377E+02 -0.21642287749E+02  0.72318581899E+01  0.25419436473E+02  0.41800000000E+01 0.  1.
</event>
<event>
11    1  0.6930157E-009  0.1282189E+03  0.7561462E-02  0.1121477E+00
         22   -1    0    0    0    0  0.00000000000E+00  0.00000000000E+00  0.83227537413E+02  0.83227537413E+02  0.00000000000E+00 0. -1.
         22   -1    0    0    0    0 -0.00000000000E+00 -0.00000000000E+00 -0.36832191233E+04  0.36832191233E+04  0.00000000000E+00 0. -1.
         24    2    1    2    0    0  0.16729417825E+02  0.21723048428E+02 -0.33497993639E+04  0.33508701296E+04  0.80144139644E+02 0.  0.
         25    2    1    2    0    0 -0.34030977038E+02 -0.34576262640E+02 -0.29283601741E+03  0.32210892850E+03  0.12509038090E+03 0.  0.
        -24    2    1    2    0    0  0.17301559213E+02  0.12853214211E+02  0.42643795414E+02  0.93467602572E+02  0.80331503015E+02 0.  0.
        -13    1    3    3    0    0 -0.59143070464E+01  0.22193270704E+02 -0.26658315598E+03  0.26757073708E+03  0.00000000000E+00 0.  1.
         14    1    3    3    0    0  0.22643724872E+02 -0.47022227606E+00 -0.30832162079E+04  0.30832993925E+04  0.00000000000E+00 0. -1.
         13    1    5    5    0    0  0.22167860239E+01  0.94545938315E+01  0.65310730739E+02  0.66028744001E+02  0.00000000000E+00 0. -1.
        -14    1    5    5    0    0  0.15084773189E+02  0.33986203799E+01 -0.22666935325E+02  0.27438858571E+02  0.00000000000E+00 0.  1.
          5    1    4    4  501    0  0.38957139659E+01 -0.53898841405E+02 -0.26633507668E+03  0.27179423681E+03  0.41800000000E+01 0.  1.
         -5    1    4    4    0  501 -0.37926691004E+02  0.19322578766E+02 -0.26500940727E+02  0.50314691692E+02  0.41800000000E+01 0.  1.
</event>
<event>
11    1  0.6930157E-009  0.1304719E+03  0.7561462E-02  0.1118690E+00
         22   -1    0    0    0    0  0.00000000000E+00  0.00000000000E+00  0.89443014788E+03  0.89443014788E+03  0.00000000000E+00 0.  1.
         22   -1    0    0    0    0 -0.00000000000E+00 -0.00000000000E+00 -0.76188300766E+03  0.76188300766E+03  0.00000000000E+00 0.  1.
         24    2    1    2    0    0 -0.17503412676E+02 -0.65530371903E+01 -0.71095928033E+03  0.71593951813E+03  0.82200873313E+02 0.  0.
         25    2    1    2    0    0 -0.13701529328E+02 -0.15064117853E+02  0.41309304700E+02  0.13330882343E+03  0.12510045642E+03 0.  0.
        -24    2    1    2    0    0  0.31204942004E+02  0.21617155043E+02  0.80219711585E+03  0.80706481399E+03  0.79952182546E+02 0.  0.
        -13    1    3    3    0    0 -0.71246414932E+01  0.29050051388E+02 -0.54791658944E+03  0.54873240745E+03  0.00000000000E+00 0.  1.
         14    1    3    3    0    0 -0.10378771183E+02 -0.35603088579E+02 -0.16304269089E+03  0.16720711068E+03  0.00000000000E+00 0. -1.
         11    1    5    5    0    0 -0.20582179097E+02  0.14862991368E+02  0.10962363098E+03  0.11252499757E+03  0.00000000000E+00 0. -1.
        -12    1    5    5    0    0  0.51787121101E+02  0.67541636748E+01  0.69257348487E+03  0.69453981641E+03  0.00000000000E+00 0.  1.
          5    1    4    4  501    0 -0.11818688095E+02 -0.29203140430E+02 -0.39753166897E+02  0.50894906205E+02  0.41800000000E+01 0.  1.
         -5    1    4    4    0  501 -0.18828412336E+01  0.14139022577E+02  0.81062471596E+02  0.82413917222E+02  0.41800000000E+01 0.  1.
</event>
<event>
11    1  0.6930157E-009  0.1303351E+03  0.7561462E-02  0.1118858E+00
         22   -1    0    0    0    0  0.00000000000E+00  0.00000000000E+00  0.24332287104E+04  0.24332287104E+04  0.00000000000E+00 0. -1.
         22   -1    0    0    0    0 -0.00000000000E+00 -0.00000000000E+00 -0.22566760918E+03  0.22566760918E+03  0.00000000000E+00 0. -1.
        -24    2    1    2    0    0 -0.96509009587E+01  0.52498436982E+01 -0.13583998956E+03  0.15942533270E+03  0.82723836932E+02 0.  0.
         25    2    1    2    0    0  0.22839893002E+02  0.28903852381E+02 -0.22150719430E+02  0.13227107376E+03  0.12509152325E+03 0.  0.
         24    2    1    2    0    0 -0.13188992043E+02 -0.34153696079E+02  0.23655518103E+04  0.23671999132E+04  0.80371869673E+02 0.  0.
        -13    1    5    5    0    0  0.34678828768E+01 -0.46083995484E+02  0.70085792154E+03  0.70237994493E+03  0.00000000000E+00 0.  1.
         14    1    5    5    0    0 -0.16656874920E+02  0.11930299406E+02  0.16646938887E+04  0.16648199682E+04  0.00000000000E+00 0. -1.
         13    1    3    3    0    0 -0.30473645396E+02  0.31568747288E+02 -0.10519414255E+03  0.11397822817E+03  0.00000000000E+00 0. -1.
        -14    1    3    3    0    0  0.20822744437E+02 -0.26318903590E+02 -0.30645847006E+02  0.45447104537E+02  0.00000000000E+00 0.  1.
          5    1    4    4  501    0 -0.48911937183E+02  0.28647692373E+02 -0.20361332419E+02  0.60374863438E+02  0.41800000000E+01 0.  1.
         -5    1    4    4    0  501  0.71751830185E+02  0.25616000762E+00 -0.17893870108E+01  0.71896210323E+02  0.41800000000E+01 0.  1.
</event>
<event>
11    1  0.6930157E-009  0.1346853E+03  0.7561462E-02  0.1113643E+00
         22   -1    0    0    0    0  0.00000000000E+00  0.00000000000E+00  0.44322748695E+03  0.44322748695E+03  0.00000000000E+00 0. -1.
         22   -1    0    0    0    0 -0.00000000000E+00 -0.00000000000E+00 -0.29115416308E+03  0.29115416308E+03  0.00000000000E+00 0.  1.
        -24    2    1    2    0    0 -0.28490622799E+02  0.34486010955E+02 -0.18556280510E+03  0.20720600879E+03  0.80621181492E+02 0.  0.
         25    2    1    2    0    0  0.66997927424E+02 -0.47962193278E+02 -0.26178534153E+02  0.15205064894E+03  0.12507993416E+03 0.  0.
         24    2    1    2    0    0 -0.38507304625E+02  0.13476182323E+02  0.36381466312E+03  0.37512499229E+03  0.81812167428E+02 0.  0.
        -13    1    5    5    0    0 -0.27315019673E+01  0.26895458238E+02  0.35637610974E+02  0.44731041713E+02  0.00000000000E+00 0.  1.
         14    1    5    5    0    0 -0.35775802657E+02 -0.13419275914E+02  0.32817705214E+03  0.33039395057E+03  0.00000000000E+00 0. -1.
         11    1    3    3    0    0 -0.35816841295E+02  0.28327262650E+02 -0.38208843154E+02  0.59541545368E+02  0.00000000000E+00 0. -1.
        -12    1    3    3    0    0  0.73262184964E+01  0.61587483045E+01 -0.14735396194E+03  0.14766446343E+03  0.00000000000E+00 0.  1.
          5    1    4    4  501    0 -0.98365421254E+01  0.21761773132E+02  0.26244704279E+02  0.35729388933E+02  0.41800000000E+01 0.  1.
         -5    1    4    4    0  501  0.76834469549E+02 -0.69723966410E+02 -0.52423238432E+02  0.11632126001E+03  0.41800000000E+01 0.  1.
</event>
<event>
11    1  0.6930157E-009  0.1447666E+03  0.7561462E-02  0.1102350E+00
         22   -1    0    0    0    0  0.00000000000E+00  0.00000000000E+00  0.28333293363E+03  0.28333293363E+03  0.00000000000E+00 0.  1.
         22   -1    0    0    0    0 -0.00000000000E+00 -0.00000000000E+00 -0.52912511238E+03  0.52912511238E+03  0.00000000000E+00 0.  1.
        -24    2    1    2    0    0  0.71571071516E+02 -0.74707431179E+01 -0.45890555678E+03  0.47053456171E+03  0.75034881487E+02 0.  0.
         25    2    1    2    0    0 -0.97513652086E+02 -0.30922091240E+02  0.89286954125E+02  0.18462106714E+03  0.12509072781E+03 0.  0.
         24    2    1    2    0    0  0.25942580570E+02  0.38392834358E+02  0.12382642391E+03  0.15730241716E+03  0.85229337499E+02 0.  0.
        -13    1    5    5    0    0  0.52429309019E+02  0.17401715877E+02  0.44022560413E+02  0.70637369607E+02  0.00000000000E+00 0.  1.
         14    1    5    5    0    0 -0.26486728449E+02  0.20991118481E+02  0.79803863494E+02  0.86665047554E+02  0.00000000000E+00 0. -1.
         11    1    3    3    0    0 -0.15009588706E+02 -0.42621240776E+00 -0.40194987750E+02  0.42908116370E+02  0.00000000000E+00 0. -1.
        -12    1    3    3    0    0  0.86580660223E+02 -0.70445307101E+01 -0.41871056903E+03  0.42762644534E+03  0.00000000000E+00 0.  1.
          5    1    4    4  501    0 -0.30426006344E+02  0.12785353343E+01 -0.30652497764E+02  0.43409958924E+02  0.41800000000E+01 0. -1.
         -5    1    4    4    0  501 -0.67087645742E+02 -0.32200626574E+02  0.11993945189E+03  0.14121110821E+03  0.41800000000E+01 0. -1.
</event>
<event>
11    1  0.6930157E-009  0.2053941E+03  0.7561462E-02  0.1050773E+00
         22   -1    0    0    0    0  0.00000000000E+00  0.00000000000E+00  0.10209761373E+03  0.10209761373E+03  0.00000000000E+00 0.  1.
         22   -1    0    0    0    0 -0.00000000000E+00 -0.00000000000E+00 -0.13234540205E+04  0.13234540205E+04  0.00000000000E+00 0.  1.
         24    2    1    2    0    0  0.25699601073E+02  0.31573942755E+02 -0.93802604452E+03  0.94247402454E+03  0.81896540598E+02 0.  0.
         25    2    1    2    0    0  0.31879259547E+02  0.14173281726E+03 -0.13277905611E+03  0.23320102149E+03  0.12509180630E+03 0.  0.
        -24    2    1    2    0    0 -0.57578860620E+02 -0.17330676001E+03 -0.15055130618E+03  0.24987658825E+03  0.80137727132E+02 0.  0.
        -11    1    3    3    0    0 -0.15661928678E+02  0.98587171980E+01 -0.68008981695E+03  0.68034156821E+03  0.00000000000E+00 0.  1.
         12    1    3    3    0    0  0.41361529750E+02  0.21715225557E+02 -0.25793622758E+03  0.26213245633E+03  0.00000000000E+00 0. -1.
         13    1    5    5    0    0 -0.14424309306E+02 -0.22888633889E+02 -0.67493886052E+02  0.72714337752E+02  0.00000000000E+00 0. -1.
        -14    1    5    5    0    0 -0.43154551313E+02 -0.15041812612E+03 -0.83057420126E+02  0.17716225050E+03  0.00000000000E+00 0.  1.
          5    1    4    4  501    0  0.79308798403E+02  0.91335529455E+02 -0.70907027927E+02  0.14027595466E+03  0.41800000000E+01 0. -1.
         -5    1    4    4    0  501 -0.47429538856E+02  0.50397287801E+02 -0.61872028184E+02  0.92925066830E+02  0.41800000000E+01 0. -1.
</event>
<event>
11    1  0.6930157E-009  0.1609554E+03  0.7561462E-02  0.1086182E+00
         22   -1    0    0    0    0  0.00000000000E+00  0.00000000000E+00  0.67941258767E+02  0.67941258767E+02  0.00000000000E+00 0. -1.
         22   -1    0    0    0    0 -0.00000000000E+00 -0.00000000000E+00 -0.17691013092E+04  0.17691013092E+04  0.00000000000E+00 0.  1.
         24    2    1    2    0    0 -0.52799523020E+02  0.10219844880E+03 -0.13808875591E+04  0.13879155751E+04  0.78910583420E+02 0.  0.
         25    2    1    2    0    0 -0.54945684092E+02 -0.11286452296E+02 -0.21587290128E+03  0.25572258805E+03  0.12508605168E+03 0.  0.
        -24    2    1    2    0    0  0.10774520711E+03 -0.90911996504E+02 -0.10439959008E+03  0.19340440484E+03  0.81436899738E+02 0.  0.
        -13    1    3    3    0    0 -0.57884873316E+01  0.86244682623E+02 -0.10152714929E+04  0.10189444814E+04  0.00000000000E+00 0.  1.
         14    1    3    3    0    0 -0.47011035689E+02  0.15953766177E+02 -0.36561606616E+03  0.36897109367E+03  0.00000000000E+00 0. -1.
         13    1    5    5    0    0  0.83578970684E+02 -0.19840781965E+02 -0.41178930996E+02  0.95261772645E+02  0.00000000000E+00 0. -1.
        -14    1    5    5    0    0  0.24166236428E+02 -0.71071214540E+02 -0.63220659082E+02  0.98142632194E+02  0.00000000000E+00 0.  1.
          5    1    4    4  501    0 -0.67366683267E+02  0.32943338260E+02 -0.18644634804E+03  0.20100558860E+03  0.41800000000E+01 0.  1.
         -5    1    4    4    0  501  0.12420999175E+02 -0.44229790556E+02 -0.29426553239E+02  0.54716999448E+02  0.41800000000E+01 0.  1.
</event>
<event>
11    1  0.6930157E-009  0.1333781E+03  0.7561462E-02  0.1115187E+00
         22   -1    0    0    0    0  0.00000000000E+00  0.00000000000E+00  0.44751735715E+03  0.44751735715E+03  0.00000000000E+00 0.  1.
         22   -1    0    0    0    0 -0.00000000000E+00 -0.00000000000E+00 -0.29178217228E+03  0.29178217228E+03  0.00000000000E+00 0. -1.
        -24    2    1    2    0    0  0.29365473605E+02  0.18170290921E+02 -0.24604480549E+03  0.26114998961E+03  0.80428727796E+02 0.  0.
         25    2    1    2    0    0 -0.20767134716E+02  0.32419192305E+02  0.11827684907E+03  0.17640808875E+03  0.12509245716E+03 0.  0.
         24    2    1    2    0    0 -0.85983388886E+01 -0.50589483226E+02  0.28350314130E+03  0.30174145106E+03  0.89669643239E+02 0.  0.
        -13    1    5    5    0    0 -0.61703943601E+01 -0.66516285211E+02  0.27599994270E+03  0.28396911511E+03  0.00000000000E+00 0.  1.
         14    1    5    5    0    0 -0.24279445285E+01  0.15926801985E+02  0.75031985991E+01  0.17772335955E+02  0.00000000000E+00 0. -1.
         13    1    3    3    0    0  0.42983253273E+02  0.20924951663E+02 -0.24200405978E+03  0.24668072202E+03  0.00000000000E+00 0. -1.
        -14    1    3    3    0    0 -0.13617779669E+02 -0.27546607415E+01 -0.40407457068E+01  0.14469267596E+02  0.00000000000E+00 0.  1.
          5    1    4    4  501    0  0.33291929715E+02  0.29465931662E+01  0.10889607034E+03  0.11398623395E+03  0.41800000000E+01 0. -1.
         -5    1    4    4    0  501 -0.54059064431E+02  0.29472599139E+02  0.93807787299E+01  0.62421854800E+02  0.41800000000E+01 0. -1.
</event>
<event>
11    1  0.6930157E-009  0.2019313E+03  0.7561462E-02  0.1053166E+00
         22   -1    0    0    0    0  0.00000000000E+00  0.00000000000E+00  0.60453814326E+03  0.60453814326E+03  0.00000000000E+00 0.  1.
         22   -1    0    0    0    0 -0.00000000000E+00 -0.00000000000E+00 -0.38744131510E+04  0.38744131510E+04  0.00000000000E+00 0. -1.
         24    2    1    2    0    0  0.11198805844E+03 -0.55368019259E+02 -0.31924859117E+04  0.31957612362E+04  0.72915290869E+02 0.  0.
         25    2    1    2    0    0 -0.16102272111E+03  0.20426709286E+03 -0.63549454451E+03  0.69796403438E+03  0.12508842967E+03 0.  0.
        -24    2    1    2    0    0  0.49034662672E+02 -0.14889907360E+03  0.55810544846E+03  0.58522602369E+03  0.80202711515E+02 0.  0.
        -13    1    3    3    0    0  0.83811693268E+02 -0.53535819000E+02 -0.16364420199E+04  0.16394611823E+04  0.00000000000E+00 0.  1.
         14    1    3    3    0    0  0.28176365170E+02 -0.18322002583E+01 -0.15560438918E+04  0.15563000539E+04  0.00000000000E+00 0. -1.
         13    1    5    5    0    0  0.22373491326E+01 -0.57688072212E+01 -0.93640089538E+00  0.62579321292E+01  0.00000000000E+00 0. -1.
        -14    1    5    5    0    0  0.46797313540E+02 -0.14313026638E+03  0.55904184936E+03  0.57896809156E+03  0.00000000000E+00 0.  1.
          5    1    4    4  501    0 -0.26657973068E+02  0.81406835544E+02 -0.34174308618E+03  0.35234007685E+03  0.41800000000E+01 0.  1.
         -5    1    4    4    0  501 -0.13436474804E+03  0.12286025731E+03 -0.29375145833E+03  0.34562395753E+03  0.41800000000E+01 0.  1.
</event>
<event>
11    1  0.6930157E-009  0.2440901E+03  0.7561462E-02  0.1027095E+00
         22   -1    0    0    0    0  0.00000000000E+00  0.00000000000E+00  0.12094118563E+04  0.12094118563E+04  0.00000000000E+00 0.  1.
         22   -1    0    0    0    0 -0.00000000000E+00 -0.00000000000E+00 -0.45419720484E+03  0.45419720484E+03  0.00000000000E+00 0.  1.
        -24    2    1    2    0    0 -0.57803942637E+02 -0.20039912259E+03 -0.35340861871E+03  0.41877796889E+03  0.83523836894E+02 0.  0.
         25    2    1    2    0    0 -0.13678889513E+03  0.26990868765E+03  0.50646873863E+03  0.60309271524E+03  0.12509331901E+03 0.  0.
         24    2    1    2    0    0  0.19459283776E+03 -0.69509565065E+02  0.60215453148E+03  0.64173837697E+03  0.80870962337E+02 0.  0.
        -13    1    5    5    0    0  0.18015204424E+03 -0.83257418987E+02  0.57318684028E+03  0.60657209854E+03  0.00000000000E+00 0.  1.
         14    1    5    5    0    0  0.14440793520E+02  0.13747853922E+02  0.28967691209E+02  0.35166278435E+02  0.00000000000E+00 0. -1.
         11    1    3    3    0    0 -0.63895498652E+02 -0.84442367776E+02 -0.13664922773E+03  0.17287613965E+03  0.00000000000E+00 0. -1.
        -12    1    3    3    0    0  0.60915560147E+01 -0.11595675481E+03 -0.21675939098E+03  0.24590182923E+03  0.00000000000E+00 0.  1.
          5    1    4    4  501    0 -0.14391208653E+03  0.23950972220E+03  0.37366011503E+03  0.46659934595E+03  0.41800000000E+01 0. -1.
         -5    1    4    4    0  501  0.71231914048E+01  0.30398965456E+02  0.13280862360E+03  0.13649336928E+03  0.41800000000E+01 0. -1.
</event>
<event>
11    1  0.6930157E-009  0.1737278E+03  0.7561462E-02  0.1074832E+00
         22   -1    0    0    0    0  0.00000000000E+00  0.00000000000E+00  0.10293893031E+04  0.10293893031E+04  0.00000000000E+00 0.  1.
         22   -1    0    0    0    0 -0.00000000000E+00 -0.00000000000E+00 -0.74232675407E+03  0.74232675407E+03  0.00000000000E+00 0. -1.
        -24    2    1    2    0    0  0.44610328684E+02  0.11225197713E+03 -0.71157049618E+03  0.72635764138E+03  0.81683929642E+02 0.  0.
         25    2    1    2    0    0 -0.10716512320E+03 -0.71638255339E+02  0.42834764911E+03  0.46448361357E+03  0.12508763138E+03 0.  0.
         24    2    1    2    0    0  0.62554794513E+02 -0.40613721792E+02  0.57028539615E+03  0.58087480227E+03  0.81409619377E+02 0.  0.
        -13    1    5    5    0    0  0.39197139659E+02  0.11533068209E+01  0.44558792030E+03  0.44731011680E+03  0.00000000000E+00 0.  1.
         14    1    5    5    0    0  0.23357654854E+02 -0.41767028613E+02  0.12469747585E+03  0.13356468546E+03  0.00000000000E+00 0. -1.
         13    1    3    3    0    0  0.14923429638E+02  0.10992121587E+03 -0.62602980435E+03  0.63578195821E+03  0.00000000000E+00 0. -1.
        -14    1    3    3    0    0  0.29686899046E+02  0.23307612623E+01 -0.85540691833E+02  0.90575683173E+02  0.00000000000E+00 0.  1.
          5    1    4    4  501    0 -0.18051413318E+01  0.21206517101E+02  0.11402206447E+02  0.24504236668E+02  0.41800000000E+01 0. -1.
         -5    1    4    4    0  501 -0.10535998187E+03 -0.92844772441E+02  0.41694544266E+03  0.43997937691E+03  0.41800000000E+01 0. -1.
</event>
<event>
11    1  0.6930157E-009  0.1323834E+03  0.7561462E-02  0.1116375E+00
         22   -1    0    0    0    0  0.00000000000E+00  0.00000000000E+00  0.30020780890E+03  0.30020780890E+03  0.00000000000E+00 0.  1.
         22   -1    0    0    0    0 -0.00000000000E+00 -0.00000000000E+00 -0.15467559490E+03  0.15467559490E+03  0.00000000000E+00 0. -1.
         24    2    1    2    0    0 -0.40487094893E+02  0.10699664231E+02 -0.81438200354E+02  0.12073005922E+03  0.78675784421E+02 0.  0.
         25    2    1    2    0    0  0.55726692684E+02  0.14982130828E+02  0.67861763170E+02  0.15356893922E+03  0.12509305204E+03 0.  0.
        -24    2    1    2    0    0 -0.15239597791E+02 -0.25681795059E+02  0.15910865119E+03  0.18058440536E+03  0.80021026228E+02 0.  0.
        -13    1    3    3    0    0  0.22728717209E+02  0.61602842978E+00 -0.10095479824E+02  0.24877555946E+02  0.00000000000E+00 0.  1.
         14    1    3    3    0    0 -0.63215812103E+02  0.10083635801E+02 -0.71342720530E+02  0.95852503271E+02  0.00000000000E+00 0. -1.
         13    1    5    5    0    0  0.24881127418E+02 -0.34259883350E+02  0.61122695125E+02  0.74355860349E+02  0.00000000000E+00 0. -1.
        -14    1    5    5    0    0 -0.40120725209E+02  0.85780882919E+01  0.97985956061E+02  0.10622854501E+03  0.00000000000E+00 0.  1.
          5    1    4    4  501    0  0.69470752977E+02  0.18921022691E+02  0.96981922863E+02  0.12086006942E+03  0.41800000000E+01 0. -1.
         -5    1    4    4    0  501 -0.13744060293E+02 -0.39388918628E+01 -0.29120159694E+02  0.32708869791E+02  0.41800000000E+01 0. -1.
</event>
<event>
11    1  0.6930157E-009  0.1409422E+03  0.7561462E-02  0.1106511E+00
         22   -1    0    0    0    0  0.00000000000E+00  0.00000000000E+00  0.13456593492E+03  0.13456593492E+03  0.00000000000E+00 0.  1.
         22   -1    0    0    0    0 -0.00000000000E+00 -0.00000000000E+00 -0.11423821249E+04  0.11423821249E+04  0.00000000000E+00 0. -1.
         24    2    1    2    0    0 -0.73399797941E+01  0.69439233671E+02 -0.92192027902E+03  0.92803135906E+03  0.80184288122E+02 0.  0.
         25    2    1    2    0    0 -0.49417856282E+01 -0.32181204191E+02 -0.17861603172E+03  0.22047656738E+03  0.12508468662E+03 0.  0.
        -24    2    1    2    0    0  0.12281765422E+02 -0.37258029480E+02  0.92720120735E+02  0.12844013341E+03  0.79754903046E+02 0.  0.
        -11    1    3    3    0    0 -0.39047956446E+02  0.12422592760E+02 -0.33539902231E+03  0.33789283490E+03  0.00000000000E+00 0.  1.
         12    1    3    3    0    0  0.31707976652E+02  0.57016640910E+02 -0.58652125671E+03  0.59013852416E+03  0.00000000000E+00 0. -1.
         11    1    5    5    0    0 -0.11266199153E+02 -0.74688636351E+01 -0.11355397118E+02  0.17653787443E+02  0.00000000000E+00 0. -1.
        -12    1    5    5    0    0  0.23547964575E+02 -0.29789165845E+02  0.10407551785E+03  0.11078634597E+03  0.00000000000E+00 0.  1.
          5    1    4    4  501    0  0.42621616850E+02  0.12909390322E+02 -0.13351525701E+03  0.14080856095E+03  0.41800000000E+01 0. -1.
         -5    1    4    4    0  501 -0.47563402478E+02 -0.45090594513E+02 -0.45100774711E+02  0.79668006429E+02  0.41800000000E+01 0. -1.
</event>
<event>
11    1  0.6930157E-009  0.1446596E+03  0.7561462E-02  0.1102464E+00
         22   -1    0    0    0    0  0.00000000000E+00  0.00000000000E+00  0.12483422480E+04  0.12483422480E+04  0.00000000000E+00 0.  1.
         22   -1    0    0    0    0 -0.00000000000E+00 -0.00000000000E+00 -0.61234696836E+03  0.61234696836E+03  0.00000000000E+00 0. -1.
        -24    2    1    2    0    0 -0.64122079528E+01  0.45585600056E+02 -0.49257358286E+03  0.50162580025E+03  0.82949054255E+02 0.  0.
         25    2    1    2    0    0  0.98878494943E+01  0.27974084195E+02 -0.76109688516E+02  0.14939699855E+03  0.12508580869E+03 0.  0.
         24    2    1    2    0    0 -0.34756415415E+01 -0.73559684250E+02  0.12046785510E+04  0.12096664176E+04  0.81359223762E+02 0.  0.
        -11    1    5    5    0    0  0.32633142708E+02 -0.64843219650E+02  0.79556852316E+03  0.79887348196E+03  0.00000000000E+00 0.  1.
         12    1    5    5    0    0 -0.36108784250E+02 -0.87164646002E+01  0.40911002786E+03  0.41079293561E+03  0.00000000000E+00 0. -1.
         11    1    3    3    0    0  0.15704324484E+02  0.31758217476E+02 -0.45203248404E+03  0.45341876539E+03  0.00000000000E+00 0. -1.
        -12    1    3    3    0    0 -0.22116532437E+02  0.13827382579E+02 -0.40541098822E+02  0.48207034857E+02  0.00000000000E+00 0.  1.
          5    1    4    4  501    0  0.56638424381E+01 -0.46699852349E+02 -0.75071726365E+01  0.47820344641E+02  0.41800000000E+01 0. -1.
         -5    1    4    4    0  501  0.42240070562E+01  0.74673936543E+02 -0.68602515880E+02  0.10157665391E+03  0.41800000000E+01 0. -1.
</event>
<event>
11    1  0.6930157E-009  0.1313247E+03  0.7561462E-02  0.1117652E+00
         22   -1    0    0    0    0  0.00000000000E+00  0.00000000000E+00  0.18151165302E+03  0.18151165302E+03  0.00000000000E+00 0.  1.
         22   -1    0    0    0    0 -0.00000000000E+00 -0.00000000000E+00 -0.15005412714E+04  0.15005412714E+04  0.00000000000E+00 0.  1.
         24    2    1    2    0    0 -0.10611310399E+02  0.38868147308E+02 -0.13255699797E+04  0.13291230634E+04  0.88368625620E+02 0.  0.
         25    2    1    2    0    0  0.89208239101E+01 -0.34669030824E+02 -0.13644217780E+03  0.18853084080E+03  0.12508352111E+03 0.  0.
        -24    2    1    2    0    0  0.16904864887E+01 -0.41991164832E+01  0.14298253913E+03  0.16439902014E+03  0.81009511804E+02 0.  0.
        -11    1    3    3    0    0  0.35496721933E+02  0.35081149312E+02 -0.59474759315E+03  0.59683783716E+03  0.00000000000E+00 0.  1.
         12    1    3    3    0    0 -0.46108032332E+02  0.37869979959E+01 -0.73082238650E+03  0.73228522627E+03  0.00000000000E+00 0. -1.
         13    1    5    5    0    0  0.28562258885E+01  0.28626365972E+02  0.15349487130E+02  0.32607263152E+02  0.00000000000E+00 0. -1.
        -14    1    5    5    0    0 -0.11657393998E+01 -0.32825482456E+02  0.12763305200E+03  0.13179175698E+03  0.00000000000E+00 0.  1.
          5    1    4    4  501    0  0.50299961539E+02 -0.38320388368E+02 -0.13215220897E+03  0.14656130810E+03  0.41800000000E+01 0.  1.
         -5    1    4    4    0  501 -0.41379137629E+02  0.36513575436E+01 -0.42899688288E+01  0.41969532704E+02  0.41800000000E+01 0.  1.
</event>
<event>
11    1  0.6930157E-009  0.1543721E+03  0.7561462E-02  0.1092493E+00
         22   -1    0    0    0    0  0.00000000000E+00  0.00000000000E+00  0.20817758529E+03  0.20817758529E+03  0.00000000000E+00 0. -1.
         22   -1    0    0    0    0 -0.00000000000E+00 -0.00000000000E+00 -0.52743807293E+03  0.52743807293E+03  0.00000000000E+00 0. -1.
         24    2    1    2    0    0 -0.11972121160E+02  0.58877341424E+02 -0.42056307657E+03  0.42792033071E+03  0.51309210161E+02 0.  0.
         25    2    1    2    0    0 -0.49726578469E+02  0.29387678598E+02 -0.30489141383E+01  0.13778731958E+03  0.12505871142E+03 0.  0.
        -24    2    1    2    0    0  0.61698699629E+02 -0.88265020022E+02  0.10435150307E+03  0.16990800792E+03  0.79887744163E+02 0.  0.
        -13    1    3    3    0    0  0.39223002667E+01  0.17155748134E+02 -0.29750770293E+02  0.34566059458E+02  0.00000000000E+00 0.  1.
         14    1    3    3    0    0 -0.15894421427E+02  0.41721593291E+02 -0.39081230627E+03  0.39335427125E+03  0.00000000000E+00 0. -1.
         11    1    5    5    0    0  0.62622934094E+01  0.22205785832E+00  0.53319713878E+02  0.53686660507E+02  0.00000000000E+00 0. -1.
        -12    1    5    5    0    0  0.55436406220E+02 -0.88487077881E+02  0.51031789188E+02  0.11622134741E+03  0.00000000000E+00 0.  1.
          5    1    4    4  501    0 -0.68518255053E+02 -0.10965628367E+02 -0.39630300051E+02  0.80018931280E+02  0.41800000000E+01 0.  1.
         -5    1    4    4    0  501  0.18791676584E+02  0.40353306965E+02  0.36581385913E+02  0.57768388303E+02  0.41800000000E+01 0.  1.
</event>
<event>
11    1  0.6930157E-009  0.1548137E+03  0.7561462E-02  0.1092059E+00
         22   -1    0    0    0    0  0.00000000000E+00  0.00000000000E+00  0.12706839249E+03  0.12706839249E+03  0.00000000000E+00 0.  1.
         22   -1    0    0    0    0 -0.00000000000E+00 -0.00000000000E+00 -0.17992461608E+04  0.17992461608E+04  0.00000000000E+00 0. -1.
         24    2    1    2    0    0 -0.50396556535E+01 -0.47984766408E+02 -0.14543950852E+04  0.14575111777E+04  0.82133020639E+02 0.  0.
         25    2    1    2    0    0 -0.59352497823E+02  0.10811944519E+03 -0.28253922543E+03  0.33269847933E+03  0.12508929137E+03 0.  0.
        -24    2    1    2    0    0  0.64392153476E+02 -0.60134678781E+02  0.64756542341E+02  0.13610489632E+03  0.81046924716E+02 0.  0.
        -13    1    3    3    0    0  0.10254051128E+02 -0.11290798853E+02 -0.44230707784E+02  0.46786570876E+02  0.00000000000E+00 0.  1.
         14    1    3    3    0    0 -0.15293706782E+02 -0.36693967555E+02 -0.14101643775E+04  0.14107246068E+04  0.00000000000E+00 0. -1.
         13    1    5    5    0    0  0.54048860841E+01  0.17973698861E+02  0.46906798249E-01  0.18768826404E+02  0.00000000000E+00 0. -1.
        -14    1    5    5    0    0  0.58987267392E+02 -0.78108377642E+02  0.64709635543E+02  0.11733606992E+03  0.00000000000E+00 0.  1.
          5    1    4    4  501    0 -0.34784720601E+02 -0.19930649358E+02 -0.10432298586E+03  0.11183901533E+03  0.41800000000E+01 0. -1.
         -5    1    4    4    0  501 -0.24567777222E+02  0.12805009455E+03 -0.17821623956E+03  0.22085946399E+03  0.41800000000E+01 0. -1.
</event>
<event>
11    1  0.6930157E-009  0.1461581E+03  0.7561462E-02  0.1100870E+00
         22   -1    0    0    0    0  0.00000000000E+00  0.00000000000E+00  0.44134650279E+03  0.44134650279E+03  0.00000000000E+00 0.  1.
         22   -1    0    0    0    0 -0.00000000000E+00 -0.00000000000E+00 -0.60630956144E+03  0.60630956144E+03  0.00000000000E+00 0. -1.
        -24    2    1    2    0    0  0.62955246330E+02  0.21572167737E+01 -0.55652282935E+03  0.56890333280E+03  0.99826478754E+02 0.  0.
         25    2    1    2    0    0  0.30202882366E+02  0.10942651035E+02  0.10499996867E+03  0.16644401889E+03  0.12508661915E+03 0.  0.
         24    2    1    2    0    0 -0.93158128696E+02 -0.13099867809E+02  0.28655980204E+03  0.31230871254E+03  0.81056574714E+02 0.  0.
        -13    1    5    5    0    0 -0.99188296963E+02 -0.11564142688E+01  0.28068303752E+03  0.29769552079E+03  0.00000000000E+00 0.  1.
         14    1    5    5    0    0  0.60301682667E+01 -0.11943453540E+02  0.58767645175E+01  0.14613191745E+02  0.00000000000E+00 0. -1.
         13    1    3    3    0    0  0.82554126181E+02 -0.47158326099E+01 -0.52279366778E+03  0.52929258629E+03  0.00000000000E+00 0. -1.
        -14    1    3    3    0    0 -0.19598879851E+02  0.68730493837E+01 -0.33729161565E+02  0.39610746511E+02  0.00000000000E+00 0.  1.
          5    1    4    4  501    0  0.46044946730E+02 -0.35552966553E+02  0.96672133217E+01  0.59119184394E+02  0.41800000000E+01 0. -1.
         -5    1    4    4    0  501 -0.15842064364E+02  0.46495617588E+02  0.95332755344E+02  0.10732483450E+03  0.41800000000E+01 0. -1.
</event>
<event>
11    1  0.6930157E-009  0.1924042E+03  0.7561462E-02  0.1060029E+00
         22   -1    0    0    0    0  0.00000000000E+00  0.00000000000E+00  0.15719160900E+04  0.15719160900E+04  0.00000000000E+00 0. -1.
         22   -1    0    0    0    0 -0.00000000000E+00 -0.00000000000E+00 -0.20354279245E+03  0.20354279245E+03  0.00000000000E+00 0.  1.
        -24    2    1    2    0    0 -0.19849859470E+01  0.42670620297E+01 -0.17181649989E+03  0.18937857763E+03  0.79505899428E+02 0.  0.
         25    2    1    2    0    0  0.10358425373E+03 -0.10746775871E+03  0.58387758145E+03  0.61549750763E+03  0.12508051403E+03 0.  0.
         24    2    1    2    0    0 -0.10159926778E+03  0.10320069668E+03  0.95631221596E+03  0.97058279716E+03  0.80778194725E+02 0.  0.
        -13    1    5    5    0    0 -0.43393390115E+01  0.49175968199E+02  0.19342185529E+03  0.19962244316E+03  0.00000000000E+00 0.  1.
         14    1    5    5    0    0 -0.97259928767E+02  0.54024728485E+02  0.76289036067E+03  0.77096035400E+03  0.00000000000E+00 0. -1.
         13    1    3    3    0    0 -0.54729507075E+01 -0.24790310742E+02 -0.14241721930E+02  0.29109093762E+02  0.00000000000E+00 0. -1.
        -14    1    3    3    0    0  0.34879647605E+01  0.29057372772E+02 -0.15757477796E+03  0.16026948387E+03  0.00000000000E+00 0.  1.
          5    1    4    4  501    0  0.30530713035E+02 -0.41116958222E+02  0.42722388500E+03  0.43030274111E+03  0.41800000000E+01 0. -1.
         -5    1    4    4    0  501  0.73053540691E+02 -0.66350800492E+02  0.15665369645E+03  0.18519476652E+03  0.41800000000E+01 0. -1.
</event>
<event>
11    1  0.6930157E-009  0.1279399E+03  0.7561462E-02  0.1121826E+00
         22   -1    0    0    0    0  0.00000000000E+00  0.00000000000E+00  0.16031563941E+03  0.16031563941E+03  0.00000000000E+00 0.  1.
         22   -1    0    0    0    0 -0.00000000000E+00 -0.00000000000E+00 -0.55378161187E+03  0.55378161187E+03  0.00000000000E+00 0. -1.
        -24    2    1    2    0    0  0.43446418518E+02 -0.25539928968E+02 -0.24858192106E+03  0.26805224485E+03  0.86713062689E+02 0.  0.
         25    2    1    2    0    0  0.53434086525E+01 -0.53642878603E+01 -0.26382203961E+03  0.29207304332E+03  0.12508903409E+03 0.  0.
         24    2    1    2    0    0 -0.48789827170E+02  0.30904216828E+02  0.11893798822E+03  0.15397196310E+03  0.78902487457E+02 0.  0.
        -11    1    5    5    0    0 -0.37444638198E+02  0.32114974298E+02  0.12940486219E+03  0.13848859470E+03  0.00000000000E+00 0.  1.
         12    1    5    5    0    0 -0.11345188972E+02 -0.12107574703E+01 -0.10466873968E+02  0.15483368404E+02  0.00000000000E+00 0. -1.
         13    1    3    3    0    0  0.35034279132E+02  0.62613890026E+01 -0.22445167929E+03  0.22725571949E+03  0.00000000000E+00 0. -1.
        -14    1    3    3    0    0  0.84121393861E+01 -0.31801317970E+02 -0.24130241767E+02  0.40796525360E+02  0.00000000000E+00 0.  1.
          5    1    4    4  501    0 -0.50690518341E+02 -0.19177638855E+02 -0.19358133054E+03  0.20106843217E+03  0.41800000000E+01 0.  1.
         -5    1    4    4    0  501  0.56033926994E+02  0.13813350994E+02 -0.70240709070E+02  0.91004611150E+02  0.41800000000E+01 0.  1.
</event>
<event>
11    1  0.6930157E-009  0.1486260E+03  0.7561462E-02  0.1098291E+00
         22   -1    0    0    0    0  0.00000000000E+00  0.00000000000E+00  0.11966274488E+04  0.11966274488E+04  0.00000000000E+00 0. -1.
         22   -1    0    0    0    0 -0.00000000000E+00 -0.00000000000E+00 -0.16624377710E+04  0.16624377710E+04  0.00000000000E+00 0. -1.
         24    2    1    2    0    0 -0.77828631809E+02  0.31052608467E+02 -0.15994658536E+04  0.16049443972E+04  0.10263498705E+03 0.  0.
         25    2    1    2    0    0 -0.11615025784E+02 -0.41606913897E+01  0.12581482074E+02  0.12632390344E+03  0.12508882729E+03 0.  0.
        -24    2    1    2    0    0  0.89443657592E+02 -0.26891917078E+02  0.11210740494E+04  0.11277969191E+04  0.79972016849E+02 0.  0.
        -11    1    3    3    0    0 -0.58433231503E+01 -0.15400439752E+02 -0.41859647970E+02  0.44983864864E+02  0.00000000000E+00 0.  1.
         12    1    3    3    0    0 -0.71985308658E+02  0.46453048219E+02 -0.15576062057E+04  0.15599605323E+04  0.00000000000E+00 0. -1.
         11    1    5    5    0    0  0.81746047026E+02  0.12424301042E+02  0.72351048354E+03  0.72821988386E+03  0.00000000000E+00 0. -1.
        -12    1    5    5    0    0  0.76976105664E+01 -0.39316218119E+02  0.39756356586E+03  0.39957703527E+03  0.00000000000E+00 0.  1.
          5    1    4    4  501    0  0.25347814556E+02  0.29466697466E+02 -0.38411401544E+02  0.54806077499E+02  0.41800000000E+01 0. -1.
         -5    1    4    4    0  501 -0.36962840340E+02 -0.33627388855E+02  0.50992883618E+02  0.71517825938E+02  0.41800000000E+01 0. -1.
</event>
<event>
11    1  0.6930157E-009  0.1526470E+03  0.7561462E-02  0.1094204E+00
         22   -1    0    0    0    0  0.00000000000E+00  0.00000000000E+00  0.17606544702E+03  0.17606544702E+03  0.00000000000E+00 0.  1.
         22   -1    0    0    0    0 -0.00000000000E+00 -0.00000000000E+00 -0.18715393859E+04  0.18715393859E+04  0.00000000000E+00 0.  1.
         24    2    1    2    0    0  0.75543015769E+02 -0.45607823446E+02 -0.17930607467E+04  0.17971461379E+04  0.82949254406E+02 0.  0.
         25    2    1    2    0    0 -0.44309567666E+02  0.32509939747E+02  0.33662837317E+02  0.14072122648E+03  0.12509613502E+03 0.  0.
        -24    2    1    2    0    0 -0.31233448103E+02  0.13097883699E+02  0.63923970528E+02  0.10973746853E+03  0.82516393237E+02 0.  0.
        -13    1    3    3    0    0  0.74413300441E+02 -0.25656989224E+02 -0.79537452392E+03  0.79925981613E+03  0.00000000000E+00 0.  1.
         14    1    3    3    0    0  0.11297153278E+01 -0.19950834222E+02 -0.99768622281E+03  0.99788632180E+03  0.00000000000E+00 0. -1.
         11    1    5    5    0    0 -0.10358477543E+02 -0.34182566572E+02  0.15579649406E+02  0.38967568439E+02  0.00000000000E+00 0. -1.
        -12    1    5    5    0    0 -0.20874970559E+02  0.47280450271E+02  0.48344321122E+02  0.70769900088E+02  0.00000000000E+00 0.  1.
          5    1    4    4  501    0 -0.62656392723E+02 -0.24919145247E+02 -0.69400376620E+01  0.67914828070E+02  0.41800000000E+01 0.  1.
         -5    1    4    4    0  501  0.18346825057E+02  0.57429084994E+02  0.40602874979E+02  0.72806398410E+02  0.41800000000E+01 0.  1.
</event>
<event>
11    1  0.6930157E-009  0.1791795E+03  0.7561462E-02  0.1070308E+00
         22   -1    0    0    0    0  0.00000000000E+00  0.00000000000E+00  0.39463227680E+03  0.39463227680E+03  0.00000000000E+00 0.  1.
         22   -1    0    0    0    0 -0.00000000000E+00 -0.00000000000E+00 -0.15961258705E+03  0.15961258705E+03  0.00000000000E+00 0.  1.
        -24    2    1    2    0    0 -0.21760664361E+02  0.28214549718E+02 -0.18437254910E+02  0.89832590286E+02  0.80376455382E+02 0.  0.
         25    2    1    2    0    0 -0.53576877115E+02 -0.12941186948E+03  0.20507576325E+02  0.18890440312E+03  0.12508556716E+03 0.  0.
         24    2    1    2    0    0  0.75337541476E+02  0.10119731976E+03  0.23294936833E+03  0.27550787044E+03  0.75647444008E+02 0.  0.
        -13    1    5    5    0    0  0.78339204977E+02  0.10680590164E+03  0.23416525611E+03  0.26903140863E+03  0.00000000000E+00 0.  1.
         14    1    5    5    0    0 -0.30016635011E+01 -0.56085818790E+01 -0.12158877762E+01  0.64764618081E+01  0.00000000000E+00 0. -1.
         13    1    3    3    0    0 -0.10740440164E+02  0.12726698998E+02  0.31922336387E+02  0.36005020243E+02  0.00000000000E+00 0. -1.
        -14    1    3    3    0    0 -0.11020224197E+02  0.15487850719E+02 -0.50359591296E+02  0.53827570044E+02  0.00000000000E+00 0.  1.
          5    1    4    4  501    0  0.35277391110E+02 -0.65175629332E+02 -0.10300630108E+02  0.74939524705E+02  0.41800000000E+01 0. -1.
         -5    1    4    4    0  501 -0.88854268225E+02 -0.64236240144E+02  0.30808206433E+02  0.11396487842E+03  0.41800000000E+01 0. -1.
</event>
<event>
11    1  0.6930157E-009  0.3522547E+03  0.7561462E-02  0.9802190E-01
         22   -1    0    0    0    0  0.00000000000E+00  0.00000000000E+00  0.24110565043E+04  0.24110565043E+04  0.00000000000E+00 0. -1.
         22   -1    0    0    0    0 -0.00000000000E+00 -0.00000000000E+00 -0.95527125706E+03  0.95527125706E+03  0.00000000000E+00 0. -1.
         24    2    1    2    0    0  0.71102080150E+02  0.29119097105E+02 -0.89763938707E+03  0.90426519485E+03  0.77689418731E+02 0.  0.
         25    2    1    2    0    0  0.26738082657E+03 -0.11968539635E+03  0.68491023800E+03  0.75535849585E+03  0.12508925864E+03 0.  0.
        -24    2    1    2    0    0 -0.33848290672E+03  0.90566299244E+02  0.16685143963E+04  0.17067040706E+04  0.78265965543E+02 0.  0.
        -11    1    3    3    0    0  0.49708581504E+02  0.53907542063E+02 -0.50988298686E+03  0.51512874745E+03  0.00000000000E+00 0.  1.
         12    1    3    3    0    0  0.21393498646E+02 -0.24788444958E+02 -0.38775640021E+03  0.38913644740E+03  0.00000000000E+00 0. -1.
         13    1    5    5    0    0 -0.26600907663E+03  0.76643351379E+02  0.11436994526E+04  0.11767257413E+04  0.00000000000E+00 0. -1.
        -14    1    5    5    0    0 -0.72473830086E+02  0.13922947865E+02  0.52481494363E+03  0.52997832935E+03  0.00000000000E+00 0.  1.
          5    1    4    4  501    0  0.21920003885E+02 -0.42436088345E+02  0.45506823374E+02  0.66103339840E+02  0.41800000000E+01 0.  1.
         -5    1    4    4    0  501  0.24546082269E+03 -0.77249308004E+02  0.63940341462E+03  0.68925515601E+03  0.41800000000E+01 0.  1.
</event>
<event>
11    1  0.6930157E-009  0.1709063E+03  0.7561462E-02  0.1077246E+00
         22   -1    0    0    0    0  0.00000000000E+00  0.00000000000E+00  0.17950545856E+03  0.17950545856E+03  0.00000000000E+00 0. -1.
         22   -1    0    0    0    0 -0.00000000000E+00 -0.00000000000E+00 -0.45857714733E+03  0.45857714733E+03  0.00000000000E+00 0.  1.
        -24    2    1    2    0    0 -0.30759473190E+02 -0.19248709243E+02 -0.13989768451E+03  0.16617649933E+03  0.82015905780E+02 0.  0.
         25    2    1    2    0    0  0.14286699177E+03  0.35411881387E+01 -0.23633574811E+03  0.30317865471E+03  0.12505676104E+03 0.  0.
         24    2    1    2    0    0 -0.11210751858E+03  0.15707521104E+02  0.97161743856E+02  0.16872745186E+03  0.78827194548E+02 0.  0.
        -11    1    5    5    0    0 -0.68445880202E+02 -0.90043008318E+01  0.12267822773E+02  0.70117155002E+02  0.00000000000E+00 0.  1.
         12    1    5    5    0    0 -0.43661638377E+02  0.24711821936E+02  0.84893921082E+02  0.98610296855E+02  0.00000000000E+00 0. -1.
         13    1    3    3    0    0 -0.74848459503E+00  0.23747421714E+02 -0.94220963229E+01  0.25559267720E+02  0.00000000000E+00 0. -1.
        -14    1    3    3    0    0 -0.30010988595E+02 -0.42996130958E+02 -0.13047558819E+03  0.14061723161E+03  0.00000000000E+00 0.  1.
          5    1    4    4  501    0  0.81077294475E+02 -0.20681616757E+02 -0.34382789909E+02  0.90558851543E+02  0.41800000000E+01 0. -1.
         -5    1    4    4    0  501  0.61789697294E+02  0.24222804895E+02 -0.20195295821E+03  0.21261980316E+03  0.41800000000E+01 0. -1.
</event>
<event>
11    1  0.6930157E-009  0.2168765E+03  0.7561462E-02  0.1043192E+00
         22   -1    0    0    0    0  0.00000000000E+00  0.00000000000E+00  0.12657685997E+04  0.12657685997E+04  0.00000000000E+00 0.  1.
         22   -1    0    0    0    0 -0.00000000000E+00 -0.00000000000E+00 -0.44301562194E+03  0.44301562194E+03  0.00000000000E+00 0.  1.
        -24    2    1    2    0    0 -0.60639787409E+02  0.16576500858E+03 -0.30751496481E+03  0.36368755607E+03  0.80919484481E+02 0.  0.
         25    2    1    2    0    0  0.10007595158E+03 -0.15398617336E+03  0.11289412764E+02  0.22248812681E+03  0.12508628246E+03 0.  0.
         24    2    1    2    0    0 -0.39436164169E+02 -0.11778835223E+02  0.11189785298E+04  0.11226085387E+04  0.80268481559E+02 0.  0.
        -13    1    5    5    0    0 -0.26495357082E+02 -0.14616778225E+02  0.10932560688E+04  0.10936747625E+04  0.00000000000E+00 0.  1.
         14    1    5    5    0    0 -0.12940807087E+02  0.28379430017E+01  0.25722460962E+02  0.28933776222E+02  0.00000000000E+00 0. -1.
         11    1    3    3    0    0  0.89969519826E+01  0.63720735906E+02 -0.64716085892E+02  0.91265815629E+02  0.00000000000E+00 0. -1.
        -12    1    3    3    0    0 -0.69636739392E+02  0.10204427268E+03 -0.24279887892E+03  0.27242174044E+03  0.00000000000E+00 0.  1.
          5    1    4    4  501    0  0.87345951844E+02 -0.14207536157E+03  0.54661925367E+02  0.17555660670E+03  0.41800000000E+01 0.  1.
         -5    1    4    4    0  501  0.12729999734E+02 -0.11910811786E+02 -0.43372512603E+02  0.46931520113E+02  0.41800000000E+01 0.  1.
</event>
<event>
11    1  0.6930157E-009  0.1466367E+03  0.7561462E-02  0.1100366E+00
         22   -1    0    0    0    0  0.00000000000E+00  0.00000000000E+00  0.81867934011E+03  0.81867934011E+03  0.00000000000E+00 0.  1.
         22   -1    0    0    0    0 -0.00000000000E+00 -0.00000000000E+00 -0.14605752248E+04  0.14605752248E+04  0.00000000000E+00 0. -1.
         24    2    1    2    0    0  0.37602224793E+02  0.66560281734E+02 -0.14373583236E+04  0.14415919944E+04  0.79651298444E+02 0.  0.
         25    2    1    2    0    0 -0.45339543707E+02 -0.75670404075E+02  0.31458102869E+03  0.34984234970E+03  0.12508701672E+03 0.  0.
        -24    2    1    2    0    0  0.77373189137E+01  0.91101223417E+01  0.48088141028E+03  0.48782022079E+03  0.81109658010E+02 0.  0.
        -13    1    3    3    0    0  0.55240214037E+01  0.26955236309E+02 -0.11477827488E+03  0.11803030103E+03  0.00000000000E+00 0.  1.
         14    1    3    3    0    0  0.32078203389E+02  0.39605045425E+02 -0.13225800488E+04  0.13235616934E+04  0.00000000000E+00 0. -1.
         13    1    5    5    0    0 -0.17798674806E+02  0.38781036093E+02  0.26637790760E+03  0.26977388911E+03  0.00000000000E+00 0. -1.
        -14    1    5    5    0    0  0.25535993720E+02 -0.29670913751E+02  0.21450350268E+03  0.21804633168E+03  0.00000000000E+00 0.  1.
          5    1    4    4  501    0  0.36236029145E+02 -0.43133201458E+02  0.70077374244E+02  0.90010186408E+02  0.41800000000E+01 0.  1.
         -5    1    4    4    0  501 -0.81575572852E+02 -0.32537202617E+02  0.24450365445E+03  0.25983216329E+03  0.41800000000E+01 0.  1.
</event>
<event>
11    1  0.6930157E-009  0.1504276E+03  0.7561462E-02  0.1096443E+00
         22   -1    0    0    0    0  0.00000000000E+00  0.00000000000E+00  0.50856619413E+03  0.50856619413E+03  0.00000000000E+00 0.  1.
         22   -1    0    0    0    0 -0.00000000000E+00 -0.00000000000E+00 -0.35022699079E+03  0.35022699079E+03  0.00000000000E+00 0.  1.
         24    2    1    2    0    0  0.28896749686E+02 -0.30550880751E+02 -0.18508762826E+03  0.20370340955E+03  0.73954516218E+02 0.  0.
         25    2    1    2    0    0 -0.11081943882E+03  0.22154765339E+02 -0.10067062800E+03  0.19634319466E+03  0.12507714859E+03 0.  0.
        -24    2    1    2    0    0  0.81922689130E+02  0.83961154124E+01  0.44409745960E+03  0.45874658071E+03  0.80274839995E+02 0.  0.
        -13    1    3    3    0    0  0.37790090352E+02 -0.47968163590E+01 -0.16630096024E+03  0.17060805887E+03  0.00000000000E+00 0.  1.
         14    1    3    3    0    0 -0.88933406660E+01 -0.25754064392E+02 -0.18786668021E+02  0.33095350674E+02  0.00000000000E+00 0. -1.
         11    1    5    5    0    0 -0.12518787434E+02  0.15589451880E+02  0.90627892706E+02  0.92807144041E+02  0.00000000000E+00 0. -1.
        -12    1    5    5    0    0  0.94441476563E+02 -0.71933364678E+01  0.35346956690E+03  0.36593943667E+03  0.00000000000E+00 0.  1.
          5    1    4    4  501    0 -0.12594758512E+02 -0.11036613327E+02 -0.90442899118E+02  0.92075106172E+02  0.41800000000E+01 0. -1.
         -5    1    4    4    0  501 -0.98224680303E+02  0.33191378666E+02 -0.10227728884E+02  0.10426808849E+03  0.41800000000E+01 0. -1.
</event>
<event>
11    1  0.6930157E-009  0.1418120E+03  0.7561462E-02  0.1105552E+00
         22   -1    0    0    0    0  0.00000000000E+00  0.00000000000E+00  0.72875718314E+03  0.72875718314E+03  0.00000000000E+00 0. -1.
         22   -1    0    0    0    0 -0.00000000000E+00 -0.00000000000E+00 -0.47586010707E+03  0.47586010707E+03  0.00000000000E+00 0. -1.
         24    2    1    2    0    0  0.15399514712E+02  0.51482568005E+01 -0.32246340480E+03  0.33227225754E+03  0.78476468426E+02 0.  0.
         25    2    1    2    0    0 -0.33266787200E+02  0.59250818995E+02 -0.10945306686E+03  0.17956700566E+03  0.12508795703E+03 0.  0.
        -24    2    1    2    0    0  0.17867272488E+02 -0.64399075795E+02  0.68481354773E+03  0.69277802701E+03  0.80655558732E+02 0.  0.
        -11    1    3    3    0    0  0.53162594685E+01 -0.26318142575E+02 -0.41865652293E+02  0.49735702319E+02  0.00000000000E+00 0.  1.
         12    1    3    3    0    0  0.10083255243E+02  0.31466399375E+02 -0.28059775250E+03  0.28253655522E+03  0.00000000000E+00 0. -1.
         11    1    5    5    0    0  0.19961411714E+02 -0.73003402499E+02  0.67620722314E+03  0.68042939630E+03  0.00000000000E+00 0. -1.
        -12    1    5    5    0    0 -0.20941392255E+01  0.86043267041E+01  0.86063245958E+01  0.12348630700E+02  0.00000000000E+00 0.  1.
          5    1    4    4  501    0  0.33295582132E+02 -0.16534182392E+02 -0.12091270532E+02  0.39314707171E+02  0.41800000000E+01 0.  1.
         -5    1    4    4    0  501 -0.66562369332E+02  0.75785001386E+02 -0.97361796330E+02  0.14025229849E+03  0.41800000000E+01 0.  1.
</event>
<event>
11    1  0.6930157E-009  0.1512821E+03  0.7561462E-02  0.1095576E+00
         22   -1    0    0    0    0  0.00000000000E+00  0.00000000000E+00  0.30299951437E+03  0.30299951437E+03  0.00000000000E+00 0. -1.
         22   -1    0    0    0    0 -0.00000000000E+00 -0.00000000000E+00 -0.22074017081E+04  0.22074017081E+04  0.00000000000E+00 0.  1.
         24    2    1    2    0    0 -0.62206211999E+02 -0.57936326104E+02 -0.20845952805E+04  0.20879095773E+04  0.81256930188E+02 0.  0.
         25    2    1    2    0    0  0.93567953362E+02  0.27024596156E+02 -0.56918032253E+02  0.16844627399E+03  0.12509673909E+03 0.  0.
        -24    2    1    2    0    0 -0.31361741363E+02  0.30911729948E+02  0.23711111908E+03  0.25404537115E+03  0.79864096704E+02 0.  0.
        -13    1    3    3    0    0 -0.45337640876E+02 -0.53198675577E+02 -0.20125831881E+04  0.20137965860E+04  0.00000000000E+00 0.  1.
         14    1    3    3    0    0 -0.16868571123E+02 -0.47376505271E+01 -0.72012092463E+02  0.74112991339E+02  0.00000000000E+00 0. -1.
         11    1    5    5    0    0 -0.48792766359E+02  0.26965604634E+02  0.22650167956E+03  0.23326141714E+03  0.00000000000E+00 0. -1.
        -12    1    5    5    0    0  0.17431024996E+02  0.39461253144E+01  0.10609439517E+02  0.20783954010E+02  0.00000000000E+00 0.  1.
          5    1    4    4  501    0 -0.60038173546E+01 -0.57883079489E+00  0.31527723027E+02  0.32370520342E+02  0.41800000000E+01 0. -1.
         -5    1    4    4    0  501  0.99571770717E+02  0.27603426951E+02 -0.88445755280E+02  0.13607575365E+03  0.41800000000E+01 0. -1.
</event>
<event>
11    1  0.7796941E-009  0.1761234E+03  0.7561462E-02  0.1072822E+00
         22   -1    0    0    0    0  0.00000000000E+00  0.00000000000E+00  0.11735969287E+04  0.11735969287E+04  0.00000000000E+00 0.  1.
         22   -1    0    0    0    0 -0.00000000000E+00 -0.00000000000E+00 -0.74269400478E+03  0.74269400478E+03  0.00000000000E+00 0. -1.
        -24    2    1    2    0    0 -0.46987894990E+02 -0.47407690412E+01 -0.60388757839E+03  0.61107610596E+03  0.80644049873E+02 0.  0.
         25    2    1    2    0    0 -0.70315125783E+02 -0.40119626238E+02 -0.87901418757E+02  0.17299708226E+03  0.12509008645E+03 0.  0.
         24    2    1    2    0    0  0.11730302077E+03  0.44860395280E+02  0.11226919211E+04  0.11322177453E+04  0.75547463785E+02 0.  0.
        -13    1    5    5    0    0  0.12087274280E+03  0.39341046778E+02  0.11144490831E+04  0.11216749515E+04  0.00000000000E+00 0.  1.
         14    1    5    5    0    0 -0.35697220300E+01  0.55193485012E+01  0.82428379951E+01  0.10542793817E+02  0.00000000000E+00 0. -1.
         11    1    3    3    0    0 -0.62412251785E+02  0.49088782940E+01 -0.56108803873E+03  0.56456990131E+03  0.00000000000E+00 0. -1.
        -12    1    3    3    0    0  0.15424356795E+02 -0.96496473352E+01 -0.42799539657E+02  0.46506204651E+02  0.00000000000E+00 0.  1.
          5    1    4    4  501    0 -0.81473871878E+02 -0.40222193593E+01 -0.50438052114E+01  0.81835703812E+02  0.41800000000E+01 0. -1.
         -5    1    4    4    0  501  0.11158746095E+02 -0.36097406879E+02 -0.82857613546E+02  0.91161378446E+02  0.41800000000E+01 0. -1.
</event>
<event>
11    1  0.6930157E-009  0.1604740E+03  0.7561462E-02  0.1086632E+00
         22   -1    0    0    0    0  0.00000000000E+00  0.00000000000E+00  0.12661748579E+04  0.12661748579E+04  0.00000000000E+00 0. -1.
         22   -1    0    0    0    0 -0.00000000000E+00 -0.00000000000E+00 -0.98550991421E+03  0.98550991421E+03  0.00000000000E+00 0. -1.
        -24    2    1    2    0    0 -0.89735386370E+02  0.45987350852E+02 -0.95690497219E+03  0.96542804683E+03  0.78847395579E+02 0.  0.
         25    2    1    2    0    0  0.10713701347E+03  0.49504008019E+02  0.35189851447E+03  0.39167476778E+03  0.12509025848E+03 0.  0.
         24    2    1    2    0    0 -0.17401627105E+02 -0.95491358870E+02  0.88567140140E+03  0.89458195750E+03  0.80259773081E+02 0.  0.
        -11    1    5    5    0    0 -0.30756267239E+02 -0.13071407229E+02  0.12675514946E+03  0.13108652706E+03  0.00000000000E+00 0.  1.
         12    1    5    5    0    0  0.13354640135E+02 -0.82419951641E+02  0.75891625194E+03  0.76349543044E+03  0.00000000000E+00 0. -1.
         11    1    3    3    0    0 -0.61740618836E+02  0.21845055419E+02 -0.84585950790E+03  0.84839107584E+03  0.00000000000E+00 0. -1.
        -12    1    3    3    0    0 -0.27994767534E+02  0.24142295432E+02 -0.11104546430E+03  0.11703697099E+03  0.00000000000E+00 0.  1.
          5    1    4    4  501    0  0.13479569474E+02 -0.16947253884E+02  0.60315692207E+00  0.22062284689E+02  0.41800000000E+01 0.  1.
         -5    1    4    4    0  501  0.93657444000E+02  0.66451261903E+02  0.35129535754E+03  0.36961248309E+03  0.41800000000E+01 0.  1.
</event>
<event>
11    1  0.6930157E-009  0.1314587E+03  0.7561462E-02  0.1117490E+00
         22   -1    0    0    0    0  0.00000000000E+00  0.00000000000E+00  0.61894756027E+03  0.61894756027E+03  0.00000000000E+00 0.  1.
         22   -1    0    0    0    0 -0.00000000000E+00 -0.00000000000E+00 -0.28764359071E+03  0.28764359071E+03  0.00000000000E+00 0.  1.
         24    2    1    2    0    0 -0.18126053354E+02  0.23870182376E+02 -0.16124405893E+03  0.18238923560E+03  0.79798792625E+02 0.  0.
         25    2    1    2    0    0  0.23592288547E+02 -0.63108777086E+02 -0.67336835230E+02  0.15722976814E+03  0.12509051437E+03 0.  0.
        -24    2    1    2    0    0 -0.54662351928E+01  0.39238594710E+02  0.55988486372E+03  0.56697214724E+03  0.80104981636E+02 0.  0.
        -11    1    3    3    0    0 -0.32716510423E+02  0.39353858606E+02 -0.14965283203E+03  0.15816151990E+03  0.00000000000E+00 0.  1.
         12    1    3    3    0    0  0.14590457069E+02 -0.15483676230E+02 -0.11591226903E+02  0.24227715703E+02  0.00000000000E+00 0. -1.
         11    1    5    5    0    0 -0.12694026607E+02 -0.21534650719E+02  0.23894203075E+03  0.24024606876E+03  0.00000000000E+00 0. -1.
        -12    1    5    5    0    0  0.72277914139E+01  0.60773245429E+02  0.32094283297E+03  0.32672607849E+03  0.00000000000E+00 0.  1.
          5    1    4    4  501    0  0.80979331728E+01 -0.98979499461E+02 -0.63029164904E+02  0.11769734858E+03  0.41800000000E+01 0. -1.
         -5    1    4    4    0  501  0.15494355374E+02  0.35870722375E+02 -0.43076703265E+01  0.39532419555E+02  0.41800000000E+01 0. -1.
</event>
<event>
11    1  0.6930157E-009  0.1629157E+03  0.7561462E-02  0.1084367E+00
         22   -1    0    0    0    0  0.00000000000E+00  0.00000000000E+00  0.52468062706E+02  0.52468062706E+02  0.00000000000E+00 0.  1.
         22   -1    0    0    0    0 -0.00000000000E+00 -0.00000000000E+00 -0.74834835170E+03  0.74834835170E+03  0.00000000000E+00 0. -1.
         24    2    1    2    0    0 -0.13299727135E+02  0.48277099615E+02 -0.21058526582E+03  0.22949684451E+03  0.76256713621E+02 0.  0.
         25    2    1    2    0    0 -0.63134895988E+02  0.54743264878E+02 -0.23087009962E+03  0.27555081917E+03  0.12507761953E+03 0.  0.
        -24    2    1    2    0    0  0.76434623123E+02 -0.10302036449E+03 -0.25442492356E+03  0.29576875072E+03  0.79320016794E+02 0.  0.
        -11    1    3    3    0    0  0.11443852878E+02 -0.68032204873E+01 -0.34687954085E+01  0.13757838467E+02  0.00000000000E+00 0.  1.
         12    1    3    3    0    0 -0.24743580013E+02  0.55080320103E+02 -0.20711647041E+03  0.21573900605E+03  0.00000000000E+00 0. -1.
         11    1    5    5    0    0  0.31773281872E+01 -0.23267848440E+02 -0.12419893035E+03  0.12639961427E+03  0.00000000000E+00 0. -1.
        -12    1    5    5    0    0  0.73257294936E+02 -0.79752516054E+02 -0.13022599321E+03  0.16936913646E+03  0.00000000000E+00 0.  1.
          5    1    4    4  501    0 -0.79558684045E+02  0.45741006862E+02 -0.23797256487E+03  0.25508868643E+03  0.41800000000E+01 0.  1.
         -5    1    4    4    0  501  0.16423788057E+02  0.90022580160E+01  0.71024652511E+01  0.20462132738E+02  0.41800000000E+01 0.  1.
</event>
<event>
11    1  0.6930157E-009  0.1438272E+03  0.7561462E-02  0.1103358E+00
         22   -1    0    0    0    0  0.00000000000E+00  0.00000000000E+00  0.66616163203E+03  0.66616163203E+03  0.00000000000E+00 0.  1.
         22   -1    0    0    0    0 -0.00000000000E+00 -0.00000000000E+00 -0.14226924058E+03  0.14226924058E+03  0.00000000000E+00 0. -1.
        -24    2    1    2    0    0  0.22195927580E+02  0.65182347805E+02 -0.62770463644E+02  0.12256877413E+03  0.79634010435E+02 0.  0.
         25    2    1    2    0    0 -0.86896953401E+02 -0.51042833852E+02  0.10273888333E+03  0.19067427158E+03  0.12507976773E+03 0.  0.
         24    2    1    2    0    0  0.64701025820E+02 -0.14139513953E+02  0.48392397176E+03  0.49518782690E+03  0.81501072787E+02 0.  0.
        -13    1    5    5    0    0  0.36696739687E+02 -0.22759403108E+02  0.44162780765E+03  0.44373388605E+03  0.00000000000E+00 0.  1.
         14    1    5    5    0    0  0.28004286134E+02  0.86198891550E+01  0.42296164112E+02  0.51453940855E+02  0.00000000000E+00 0. -1.
         13    1    3    3    0    0  0.24754768348E+02  0.83182505713E+02 -0.55324806821E+02  0.10292211649E+03  0.00000000000E+00 0. -1.
        -14    1    3    3    0    0 -0.25588407681E+01 -0.18000157908E+02 -0.74456568237E+01  0.19646657637E+02  0.00000000000E+00 0.  1.
          5    1    4    4  501    0 -0.94992482405E+01  0.16931758709E+02 -0.21475520773E+02  0.29250479698E+02  0.41800000000E+01 0.  1.
         -5    1    4    4    0  501 -0.77397705160E+02 -0.67974592561E+02  0.12421440411E+03  0.16142379188E+03  0.41800000000E+01 0.  1.
</event>
<event>
11    1  0.6930157E-009  0.1453110E+03  0.7561462E-02  0.1101769E+00
         22   -1    0    0    0    0  0.00000000000E+00  0.00000000000E+00  0.75557107371E+02  0.75557107371E+02  0.00000000000E+00 0.  1.
         22   -1    0    0    0    0 -0.00000000000E+00 -0.00000000000E+00 -0.15165049500E+04  0.15165049500E+04  0.00000000000E+00 0. -1.
         24    2    1    2    0    0 -0.67191367646E+01 -0.25374333970E+02 -0.97493506854E+03  0.97887718445E+03  0.83744556503E+02 0.  0.
         25    2    1    2    0    0  0.40054733896E+02 -0.42527027186E+02 -0.48338267956E+03  0.50271134135E+03  0.12508776148E+03 0.  0.
        -24    2    1    2    0    0 -0.33335597131E+02  0.67901361155E+02  0.17369905462E+02  0.11047353158E+03  0.78618259216E+02 0.  0.
        -13    1    3    3    0    0  0.34666604313E+02 -0.21470490868E+02 -0.31407515599E+03  0.31671116028E+03  0.00000000000E+00 0.  1.
         14    1    3    3    0    0 -0.41385741078E+02 -0.39038431022E+01 -0.66085991255E+03  0.66216602417E+03  0.00000000000E+00 0. -1.
         11    1    5    5    0    0 -0.30257271597E+02 -0.88756104973E+01  0.10899915663E+02  0.33362960116E+02  0.00000000000E+00 0. -1.
        -12    1    5    5    0    0 -0.30783255340E+01  0.76776971653E+02  0.64699897981E+01  0.77110571469E+02  0.00000000000E+00 0.  1.
          5    1    4    4  501    0  0.74331654826E+02 -0.48947659231E+02 -0.42766261710E+03  0.43684534417E+03  0.41800000000E+01 0. -1.
         -5    1    4    4    0  501 -0.34276920930E+02  0.64206320454E+01 -0.55720062457E+02  0.65865997180E+02  0.41800000000E+01 0. -1.
</event>
<event>
11    1  0.6930157E-009  0.1448904E+03  0.7561462E-02  0.1102217E+00
         22   -1    0    0    0    0  0.00000000000E+00  0.00000000000E+00  0.38844663530E+04  0.38844663530E+04  0.00000000000E+00 0.  1.
         22   -1    0    0    0    0 -0.00000000000E+00 -0.00000000000E+00 -0.11474842893E+04  0.11474842893E+04  0.00000000000E+00 0.  1.
        -24    2    1    2    0    0 -0.17081979903E+02 -0.73869852718E+02 -0.10439079914E+04  0.10506344817E+04  0.91325629146E+02 0.  0.
         25    2    1    2    0    0 -0.28247121211E+02  0.43023742999E+02 -0.53684959043E+02  0.14552785016E+03  0.12508932019E+03 0.  0.
         24    2    1    2    0    0  0.45329101115E+02  0.30846109719E+02  0.38345750140E+04  0.38357883105E+04  0.79373889746E+02 0.  0.
        -11    1    5    5    0    0  0.53640031073E+02 -0.50474666507E+01  0.28776215633E+04  0.28781258818E+04  0.00000000000E+00 0.  1.
         12    1    5    5    0    0 -0.83109299587E+01  0.35893576370E+02  0.95695345073E+03  0.95766242864E+03  0.00000000000E+00 0. -1.
         11    1    3    3    0    0 -0.22665083364E+02  0.42636020757E+01 -0.72648357682E+02  0.76221179343E+02  0.00000000000E+00 0. -1.
        -12    1    3    3    0    0  0.55831034610E+01 -0.78133454794E+02 -0.97125963368E+03  0.97441330236E+03  0.00000000000E+00 0.  1.
          5    1    4    4  501    0 -0.61009487383E+02 -0.89147849699E+01 -0.56747842193E+02  0.83901257055E+02  0.41800000000E+01 0. -1.
         -5    1    4    4    0  501  0.32762366172E+02  0.51938527969E+02  0.30628831501E+01  0.61626593106E+02  0.41800000000E+01 0. -1.
</event>
<event>
11    1  0.6930157E-009  0.1320486E+03  0.7561462E-02  0.1116777E+00
         22   -1    0    0    0    0  0.00000000000E+00  0.00000000000E+00  0.10643470292E+04  0.10643470292E+04  0.00000000000E+00 0.  1.
         22   -1    0    0    0    0 -0.00000000000E+00 -0.00000000000E+00 -0.74220540135E+02  0.74220540135E+02  0.00000000000E+00 0. -1.
         24    2    1    2    0    0  0.15533052391E+02 -0.13591991146E+02  0.24691688082E+02  0.86442668696E+02  0.80228658042E+02 0.  0.
         25    2    1    2    0    0 -0.39047561163E+02  0.47373759776E+02  0.77809698075E+02  0.15959771462E+03  0.12509235088E+03 0.  0.
        -24    2    1    2    0    0  0.23514508772E+02 -0.33781768630E+02  0.88762510294E+03  0.89252718605E+03  0.83858896102E+02 0.  0.
        -13    1    3    3    0    0 -0.26922722579E+02  0.66683546679E+01  0.27835816022E+02  0.39295452646E+02  0.00000000000E+00 0.  1.
         14    1    3    3    0    0  0.42455774970E+02 -0.20260345813E+02 -0.31441279408E+01  0.47147216050E+02  0.00000000000E+00 0. -1.
         11    1    5    5    0    0 -0.12078668728E+02  0.31116764338E-01  0.18990299403E+02  0.22506147558E+02  0.00000000000E+00 0. -1.
        -12    1    5    5    0    0  0.35593177500E+02 -0.33812885395E+02  0.86863480354E+03  0.87002103850E+03  0.00000000000E+00 0.  1.
          5    1    4    4  501    0 -0.37272052999E+00 -0.13923961729E+02  0.85375730357E+02  0.86605446508E+02  0.41800000000E+01 0.  1.
         -5    1    4    4    0  501 -0.38674840633E+02  0.61297721505E+02 -0.75660322813E+01  0.72992268112E+02  0.41800000000E+01 0.  1.
</event>
<event>
11    1  0.6930157E-009  0.2115856E+03  0.7561462E-02  0.1046620E+00
         22   -1    0    0    0    0  0.00000000000E+00  0.00000000000E+00  0.34996005288E+04  0.34996005288E+04  0.00000000000E+00 0.  1.
         22   -1    0    0    0    0 -0.00000000000E+00 -0.00000000000E+00 -0.23907959572E+03  0.23907959572E+03  0.00000000000E+00 0. -1.
        -24    2    1    2    0    0 -0.44995268860E+02 -0.64911281949E+01 -0.20813975124E+03  0.22877865192E+03  0.83371497298E+02 0.  0.
         25    2    1    2    0    0  0.27524147330E+02  0.17581513920E+03  0.66022836812E+03  0.69513874695E+03  0.12509131696E+03 0.  0.
         24    2    1    2    0    0  0.17471121531E+02 -0.16932401100E+03  0.28084323162E+04  0.28147627257E+04  0.81371163463E+02 0.  0.
        -13    1    5    5    0    0  0.43107892102E+02 -0.68867617783E+02  0.15177918729E+04  0.15199648709E+04  0.00000000000E+00 0.  1.
         14    1    5    5    0    0 -0.25636770572E+02 -0.10045639322E+03  0.12906404433E+04  0.12947978548E+04  0.00000000000E+00 0. -1.
         13    1    3    3    0    0 -0.83202075054E+01  0.33853490906E+01 -0.18302331073E+03  0.18324360483E+03  0.00000000000E+00 0. -1.
        -14    1    3    3    0    0 -0.36675061355E+02 -0.98764772855E+01 -0.25116440505E+02  0.45535047080E+02  0.00000000000E+00 0.  1.
          5    1    4    4  501    0  0.66224824526E+02  0.13379168205E+03  0.56125454821E+03  0.58078402341E+03  0.41800000000E+01 0. -1.
         -5    1    4    4    0  501 -0.38700677196E+02  0.42023457154E+02  0.98973819915E+02  0.11435472354E+03  0.41800000000E+01 0. -1.
</event>
<event>
11    1  0.6930157E-009  0.1286797E+03  0.7561462E-02  0.1120902E+00
         22   -1    0    0    0    0  0.00000000000E+00  0.00000000000E+00  0.80574273051E+03  0.80574273051E+03  0.00000000000E+00 0.  1.
         22   -1    0    0    0    0 -0.00000000000E+00 -0.00000000000E+00 -0.22292296341E+03  0.22292296341E+03  0.00000000000E+00 0. -1.
        -24    2    1    2    0    0 -0.25298883937E+02 -0.19038280639E+02 -0.19387787097E+03  0.21358986534E+03  0.83842185486E+02 0.  0.
         25    2    1    2    0    0 -0.58388582575E+00 -0.10785502744E+02  0.23330953684E+03  0.26494675787E+03  0.12508707579E+03 0.  0.
         24    2    1    2    0    0  0.25882769763E+02  0.29823783383E+02  0.54338810122E+03  0.55012907072E+03  0.76236409151E+02 0.  0.
        -11    1    5    5    0    0  0.39454089134E+01  0.49663877496E+02  0.43264301960E+03  0.43550206588E+03  0.00000000000E+00 0.  1.
         12    1    5    5    0    0  0.21937360849E+02 -0.19840094113E+02  0.11074508163E+03  0.11462700484E+03  0.00000000000E+00 0. -1.
         11    1    3    3    0    0  0.48120685742E+01 -0.35342167208E+02 -0.16495668902E+03  0.16876887758E+03  0.00000000000E+00 0. -1.
        -12    1    3    3    0    0 -0.30110952511E+02  0.16303886570E+02 -0.28921181940E+02  0.44820987754E+02  0.00000000000E+00 0.  1.
          5    1    4    4  501    0  0.55537834158E+02 -0.32751187701E+02  0.13268848277E+03  0.14758318732E+03  0.41800000000E+01 0.  1.
         -5    1    4    4    0  501 -0.56121719983E+02  0.21965684957E+02  0.10062105407E+03  0.11736357055E+03  0.41800000000E+01 0.  1.
</event>
<event>
11    1  0.6930157E-009  0.1346900E+03  0.7561462E-02  0.1113637E+00
         22   -1    0    0    0    0  0.00000000000E+00  0.00000000000E+00  0.56640325098E+03  0.56640325098E+03  0.00000000000E+00 0.  1.
         22   -1    0    0    0    0 -0.00000000000E+00 -0.00000000000E+00 -0.20433309596E+03  0.20433309596E+03  0.00000000000E+00 0.  1.
        -24    2    1    2    0    0  0.11306674203E+02 -0.63682286141E+01 -0.88269022934E+02  0.12086956900E+03  0.81545306936E+02 0.  0.
         25    2    1    2    0    0 -0.19438439242E+01 -0.43014883278E+02 -0.50122960871E+02  0.14147280537E+03  0.12509270458E+03 0.  0.
         24    2    1    2    0    0 -0.93628302789E+01  0.49383111892E+02  0.50046213883E+03  0.50839397257E+03  0.73998139250E+02 0.  0.
        -13    1    5    5    0    0  0.15904049249E+02  0.54994704642E+02  0.41968385583E+03  0.42357041347E+03  0.00000000000E+00 0.  1.
         14    1    5    5    0    0 -0.25266879528E+02 -0.56115927506E+01  0.80778282996E+02  0.84823559098E+02  0.00000000000E+00 0. -1.
         11    1    3    3    0    0  0.10020570034E+02  0.33479737075E+01  0.14329911742E+02  0.17803570493E+02  0.00000000000E+00 0. -1.
        -12    1    3    3    0    0  0.12861041689E+01 -0.97162023216E+01 -0.10259893468E+03  0.10306599851E+03  0.00000000000E+00 0.  1.
          5    1    4    4  501    0 -0.48399228219E+02  0.18251295938E+02 -0.47825343168E+01  0.52114682481E+02  0.41800000000E+01 0.  1.
         -5    1    4    4    0  501  0.46455384295E+02 -0.61266179216E+02 -0.45340426554E+02  0.89358122887E+02  0.41800000000E+01 0.  1.
</event>
<event>
11    1  0.6930157E-009  0.1647311E+03  0.7561462E-02  0.1082710E+00
         22   -1    0    0    0    0  0.00000000000E+00  0.00000000000E+00  0.12950202125E+03  0.12950202125E+03  0.00000000000E+00 0. -1.
         22   -1    0    0    0    0 -0.00000000000E+00 -0.00000000000E+00 -0.43558242703E+03  0.43558242703E+03  0.00000000000E+00 0. -1.
         24    2    1    2    0    0  0.15210636301E+02  0.54496885348E+02 -0.23115815161E+03  0.25152197243E+03  0.81412146452E+02 0.  0.
         25    2    1    2    0    0 -0.11028764995E+03 -0.62531195487E+02 -0.30608607069E+02  0.18071653877E+03  0.12509222365E+03 0.  0.
        -24    2    1    2    0    0  0.95077013650E+02  0.80343101393E+01 -0.44313647099E+02  0.13284593709E+03  0.81118154676E+02 0.  0.
        -11    1    3    3    0    0 -0.16658361058E+02 -0.12519855249E+02 -0.25784309870E+02  0.33152351411E+02  0.00000000000E+00 0.  1.
         12    1    3    3    0    0  0.31868997359E+02  0.67016740597E+02 -0.20537384174E+03  0.21836962102E+03  0.00000000000E+00 0. -1.
         11    1    5    5    0    0  0.10243487865E+03  0.32019573368E+01 -0.16666557977E+02  0.10383126239E+03  0.00000000000E+00 0. -1.
        -12    1    5    5    0    0 -0.73578650003E+01  0.48323528025E+01 -0.27647089122E+02  0.29014674699E+02  0.00000000000E+00 0.  1.
          5    1    4    4  501    0  0.22508246101E+02 -0.20544142343E+02 -0.27629270973E+02  0.41346486449E+02  0.41800000000E+01 0.  1.
         -5    1    4    4    0  501 -0.13279589605E+03 -0.41987053144E+02 -0.29793360955E+01  0.13937005232E+03  0.41800000000E+01 0.  1.
</event>
<event>
11    1  0.6930157E-009  0.1583377E+03  0.7561462E-02  0.1088651E+00
         22   -1    0    0    0    0  0.00000000000E+00  0.00000000000E+00  0.16550421303E+03  0.16550421303E+03  0.00000000000E+00 0.  1.
         22   -1    0    0    0    0 -0.00000000000E+00 -0.00000000000E+00 -0.15552324456E+04  0.15552324456E+04  0.00000000000E+00 0.  1.
        -24    2    1    2    0    0  0.46152350783E+02  0.62216121982E+02 -0.14034894467E+04  0.14079949368E+04  0.81646981563E+02 0.  0.
         25    2    1    2    0    0  0.63871120801E+02 -0.30185727445E+02 -0.55220384801E+02  0.15390770889E+03  0.12509034233E+03 0.  0.
         24    2    1    2    0    0 -0.11002347158E+03 -0.32030394537E+02  0.68981598908E+02  0.15883401301E+03  0.85666050614E+02 0.  0.
        -13    1    5    5    0    0 -0.11873638450E+03 -0.30209527823E+02  0.78729110245E+02  0.14563384694E+03  0.00000000000E+00 0.  1.
         14    1    5    5    0    0  0.87129129141E+01 -0.18208667144E+01 -0.97475113361E+01  0.13200166070E+02  0.00000000000E+00 0. -1.
         13    1    3    3    0    0  0.44568153430E+02  0.16188328041E+02 -0.31669442211E+03  0.32022451384E+03  0.00000000000E+00 0. -1.
        -14    1    3    3    0    0  0.15841973529E+01  0.46027793941E+02 -0.10867950246E+04  0.10877704229E+04  0.00000000000E+00 0.  1.
          5    1    4    4  501    0  0.10700642732E+02 -0.73533656658E+02 -0.35150198841E+02  0.82308634389E+02  0.41800000000E+01 0. -1.
         -5    1    4    4    0  501  0.53170478070E+02  0.43347929214E+02 -0.20070185960E+02  0.71599074503E+02  0.41800000000E+01 0. -1.
</event>
<event>
11    1  0.6930157E-009  0.1554045E+03  0.7561462E-02  0.1091481E+00
         22   -1    0    0    0    0  0.00000000000E+00  0.00000000000E+00  0.43361902168E+03  0.43361902168E+03  0.00000000000E+00 0. -1.
         22   -1    0    0    0    0 -0.00000000000E+00 -0.00000000000E+00 -0.18871020985E+03  0.18871020985E+03  0.00000000000E+00 0. -1.
         24    2    1    2    0    0 -0.79161980690E+02 -0.52482227124E+02 -0.85443050449E+02  0.15155005765E+03  0.81522400312E+02 0.  0.
         25    2    1    2    0    0  0.91550263640E+02  0.98275394109E+01  0.31605101720E+02  0.15850629241E+03  0.12508929201E+03 0.  0.
        -24    2    1    2    0    0 -0.12388282950E+02  0.42654687713E+02  0.29874676056E+03  0.31227288148E+03  0.79321079296E+02 0.  0.
        -13    1    3    3    0    0  0.65409474641E+00 -0.39864523161E+02 -0.10242143111E+02  0.41164420830E+02  0.00000000000E+00 0.  1.
         14    1    3    3    0    0 -0.79816075437E+02 -0.12617703963E+02 -0.75200907338E+02  0.11038563682E+03  0.00000000000E+00 0. -1.
         11    1    5    5    0    0 -0.29091974121E+02  0.12783875488E+02  0.25379002923E+03  0.25577167429E+03  0.00000000000E+00 0. -1.
        -12    1    5    5    0    0  0.16703691172E+02  0.29870812225E+02  0.44956731329E+02  0.56501207186E+02  0.00000000000E+00 0.  1.
          5    1    4    4  501    0  0.89698264651E+02 -0.22788265669E+02 -0.22344161271E+02  0.95298571219E+02  0.41800000000E+01 0.  1.
         -5    1    4    4    0  501  0.18519989893E+01  0.32615805080E+02  0.53949262991E+02  0.63207721194E+02  0.41800000000E+01 0.  1.
</event>
<event>
11    1  0.6930157E-009  0.1615218E+03  0.7561462E-02  0.1085655E+00
         22   -1    0    0    0    0  0.00000000000E+00  0.00000000000E+00  0.50914051162E+03  0.50914051162E+03  0.00000000000E+00 0.  1.
         22   -1    0    0    0    0 -0.00000000000E+00 -0.00000000000E+00 -0.15466491763E+04  0.15466491763E+04  0.00000000000E+00 0.  1.
        -24    2    1    2    0    0  0.71736883583E+02 -0.10026084440E+03 -0.89089966430E+03  0.90393405739E+03  0.90532595595E+02 0.  0.
         25    2    1    2    0    0 -0.55897207901E+02  0.51886864579E+02 -0.63610210213E+03  0.65275610902E+03  0.12509160230E+03 0.  0.
         24    2    1    2    0    0 -0.15839675682E+02  0.48373979823E+02  0.48949310179E+03  0.49909952147E+03  0.83101735096E+02 0.  0.
        -13    1    5    5    0    0 -0.24525052322E+02  0.57825460050E+02  0.47723434048E+03  0.48135005740E+03  0.00000000000E+00 0.  1.
         14    1    5    5    0    0  0.86853766397E+01 -0.94514802269E+01  0.12258761310E+02  0.17749464068E+02  0.00000000000E+00 0. -1.
         13    1    3    3    0    0  0.43470970238E+02 -0.25140851347E+02 -0.13956561402E+03  0.14832514378E+03  0.00000000000E+00 0. -1.
        -14    1    3    3    0    0  0.28265913345E+02 -0.75119993054E+02 -0.75133405028E+03  0.75560891361E+03  0.00000000000E+00 0.  1.
          5    1    4    4  501    0 -0.56145879749E+02 -0.30160901753E+02 -0.30475269315E+03  0.31137391701E+03  0.41800000000E+01 0.  1.
         -5    1    4    4    0  501  0.24867184760E+00  0.82047766332E+02 -0.33134940897E+03  0.34138219202E+03  0.41800000000E+01 0.  1.
</event>
<event>
11    1  0.6930157E-009  0.1331744E+03  0.7561462E-02  0.1115429E+00
         22   -1    0    0    0    0  0.00000000000E+00  0.00000000000E+00  0.30010248328E+04  0.30010248328E+04  0.00000000000E+00 0. -1.
         22   -1    0    0    0    0 -0.00000000000E+00 -0.00000000000E+00 -0.18799410572E+03  0.18799410572E+03  0.00000000000E+00 0.  1.
         24    2    1    2    0    0  0.19668411089E+02 -0.22576923309E+02 -0.12499900723E+03  0.15146794045E+03  0.80132523443E+02 0.  0.
         25    2    1    2    0    0 -0.44815015208E+02 -0.15717802005E+02  0.42270743962E+02  0.14031956479E+03  0.12508928644E+03 0.  0.
        -24    2    1    2    0    0  0.25146604119E+02  0.38294725313E+02  0.28957589903E+04  0.28972314333E+04  0.80193578861E+02 0.  0.
        -11    1    3    3    0    0 -0.14042640410E+02 -0.31816761995E+02 -0.10626187771E+03  0.11180826779E+03  0.00000000000E+00 0.  1.
         12    1    3    3    0    0  0.33711051499E+02  0.92398386862E+01 -0.18737129529E+02  0.39659672655E+02  0.00000000000E+00 0. -1.
         13    1    5    5    0    0  0.18813673980E+02  0.54421739148E+02  0.27223799122E+04  0.27229888113E+04  0.00000000000E+00 0. -1.
        -14    1    5    5    0    0  0.63329301386E+01 -0.16127013835E+02  0.17337907816E+03  0.17424262200E+03  0.00000000000E+00 0.  1.
          5    1    4    4  501    0  0.14925045325E+01  0.14638817889E+02 -0.38998665752E+02  0.41891417849E+02  0.41800000000E+01 0. -1.
         -5    1    4    4    0  501 -0.46307519740E+02 -0.30356619893E+02  0.81269409713E+02  0.98428146945E+02  0.41800000000E+01 0. -1.
</event>
<event>
11    1  0.6930157E-009  0.1446589E+03  0.7561462E-02  0.1102465E+00
         22   -1    0    0    0    0  0.00000000000E+00  0.00000000000E+00  0.24995971192E+03  0.24995971192E+03  0.00000000000E+00 0. -1.
         22   -1    0    0    0    0 -0.00000000000E+00 -0.00000000000E+00 -0.91911837410E+03  0.91911837410E+03  0.00000000000E+00 0. -1.
        -24    2    1    2    0    0 -0.15641258433E+02 -0.71347662441E+02 -0.86257921704E+03  0.86947772258E+03  0.81323222353E+02 0.  0.
         25    2    1    2    0    0  0.79375841692E+01  0.58976701548E+02  0.80581086095E+02  0.16025397986E+03  0.12508704992E+03 0.  0.
         24    2    1    2    0    0  0.77036742635E+01  0.12370960894E+02  0.11283946876E+03  0.13934638358E+03  0.80450491838E+02 0.  0.
        -13    1    5    5    0    0  0.47949075334E+01  0.45343043793E+02  0.83392008355E+02  0.95043199736E+02  0.00000000000E+00 0.  1.
         14    1    5    5    0    0  0.29087667301E+01 -0.32972082900E+02  0.29447460406E+02  0.44303183847E+02  0.00000000000E+00 0. -1.
         11    1    3    3    0    0 -0.28218469843E+02 -0.78068534782E+02 -0.51849488511E+03  0.52509801375E+03  0.00000000000E+00 0. -1.
        -12    1    3    3    0    0  0.12577211410E+02  0.67208723411E+01 -0.34408433193E+03  0.34437970883E+03  0.00000000000E+00 0.  1.
          5    1    4    4  501    0 -0.35509495396E+02  0.80046772681E+02  0.37298575348E+02  0.95273638552E+02  0.41800000000E+01 0. -1.
         -5    1    4    4    0  501  0.43447079565E+02 -0.21070071133E+02  0.43282510747E+02  0.64980341311E+02  0.41800000000E+01 0. -1.
</event>
<event>
11    1  0.6930157E-009  0.1375251E+03  0.7561462E-02  0.1110354E+00
         22   -1    0    0    0    0  0.00000000000E+00  0.00000000000E+00  0.93587742867E+03  0.93587742867E+03  0.00000000000E+00 0.  1.
         22   -1    0    0    0    0 -0.00000000000E+00 -0.00000000000E+00 -0.79650764971E+02  0.79650764971E+02  0.00000000000E+00 0. -1.
         24    2    1    2    0    0 -0.62232940859E+01 -0.42653083788E+02 -0.29968860203E+02  0.95828162507E+02  0.80167881359E+02 0.  0.
         25    2    1    2    0    0  0.50206771862E+02 -0.45867299599E+01  0.38162901616E+03  0.40475874908E+03  0.12508869234E+03 0.  0.
        -24    2    1    2    0    0 -0.43983477776E+02  0.47239813748E+02  0.50456650774E+03  0.51494128205E+03  0.80068826046E+02 0.  0.
        -11    1    3    3    0    0  0.32617778994E+02 -0.27805064443E+02  0.27029208273E+01  0.42945860059E+02  0.00000000000E+00 0.  1.
         12    1    3    3    0    0 -0.38841073080E+02 -0.14848019345E+02 -0.32671781031E+02  0.52882302448E+02  0.00000000000E+00 0. -1.
         11    1    5    5    0    0 -0.27999432128E+02  0.67474628568E+02  0.30051890100E+03  0.30927076091E+03  0.00000000000E+00 0. -1.
        -12    1    5    5    0    0 -0.15984045648E+02 -0.20234814820E+02  0.20404760675E+03  0.20567052114E+03  0.00000000000E+00 0.  1.
          5    1    4    4  501    0  0.59268774410E+02  0.35976169544E+02  0.33512836910E+03  0.34225073933E+03  0.41800000000E+01 0.  1.
         -5    1    4    4    0  501 -0.90620025477E+01 -0.40562899504E+02  0.46500647054E+02  0.62508009749E+02  0.41800000000E+01 0.  1.
</event>
<event>
11    1  0.6930157E-009  0.1567775E+03  0.7561462E-02  0.1090148E+00
         22   -1    0    0    0    0  0.00000000000E+00  0.00000000000E+00  0.84992321780E+02  0.84992321780E+02  0.00000000000E+00 0.  1.
         22   -1    0    0    0    0 -0.00000000000E+00 -0.00000000000E+00 -0.10973851387E+04  0.10973851387E+04  0.00000000000E+00 0. -1.
        -24    2    1    2    0    0 -0.26410002033E+02  0.11779000120E+02 -0.40270197510E+03  0.41195773205E+03  0.81878319460E+02 0.  0.
         25    2    1    2    0    0 -0.70065854563E+02 -0.74228560563E+01 -0.62823116266E+03  0.64443075764E+03  0.12510909197E+03 0.  0.
         24    2    1    2    0    0  0.96475856596E+02 -0.43561440637E+01  0.18540320889E+02  0.12598897073E+03  0.78758557317E+02 0.  0.
        -11    1    5    5    0    0  0.97534510562E+02 -0.40767409492E+01  0.39275898171E+02  0.10522450639E+03  0.00000000000E+00 0.  1.
         12    1    5    5    0    0 -0.10586539661E+01 -0.27940311448E+00 -0.20735577282E+02  0.20764464345E+02  0.00000000000E+00 0. -1.
         11    1    3    3    0    0  0.67824715309E+01  0.20583762819E+02 -0.33811591376E+03  0.33880977605E+03  0.00000000000E+00 0. -1.
        -12    1    3    3    0    0 -0.33192473564E+02 -0.88047626987E+01 -0.64586061343E+02  0.73147956002E+02  0.00000000000E+00 0.  1.
          5    1    4    4  501    0 -0.90814685620E+02 -0.39868867784E+01 -0.25797080241E+03  0.27355001314E+03  0.41800000000E+01 0.  1.
         -5    1    4    4    0  501  0.20748831057E+02 -0.34359692778E+01 -0.37026036025E+03  0.37088074451E+03  0.41800000000E+01 0.  1.
</event>
<event>
11    1  0.6930157E-009  0.1411924E+03  0.7561462E-02  0.1106234E+00
         22   -1    0    0    0    0  0.00000000000E+00  0.00000000000E+00  0.27840016126E+04  0.27840016126E+04  0.00000000000E+00 0. -1.
         22   -1    0    0    0    0 -0.00000000000E+00 -0.00000000000E+00 -0.43264349661E+02  0.43264349661E+02  0.00000000000E+00 0.  1.
        -24    2    1    2    0    0 -0.49476465181E+02 -0.71589115166E+02  0.10600950030E+03  0.15864003816E+03  0.79722804377E+02 0.  0.
         25    2    1    2    0    0 -0.25685672831E+02  0.36133901325E+02  0.26760109749E+03  0.29870239103E+03  0.12508940170E+03 0.  0.
         24    2    1    2    0    0  0.75162138013E+02  0.35455213841E+02  0.23671266651E+04  0.23699235330E+04  0.79639717061E+02 0.  0.
        -11    1    5    5    0    0  0.24111001171E+02 -0.13551499430E+02  0.13741900883E+04  0.13744683999E+04  0.00000000000E+00 0.  1.
         12    1    5    5    0    0  0.51051136841E+02  0.49006713271E+02  0.99293657683E+03  0.99545513316E+03  0.00000000000E+00 0. -1.
         13    1    3    3    0    0  0.21026720595E+02 -0.11259375019E+02  0.12600907662E+02  0.26975532965E+02  0.00000000000E+00 0. -1.
        -14    1    3    3    0    0 -0.70503185777E+02 -0.60329740147E+02  0.93408592637E+02  0.13166450520E+03  0.00000000000E+00 0.  1.
          5    1    4    4  501    0 -0.69773205958E+01  0.71760169804E+01 -0.12446597458E+02  0.16509645989E+02  0.41800000000E+01 0.  1.
         -5    1    4    4    0  501 -0.18708352235E+02  0.28957884345E+02  0.28004769495E+03  0.28219274504E+03  0.41800000000E+01 0.  1.
</event>
<event>
11    1  0.6930157E-009  0.1395852E+03  0.7561462E-02  0.1108022E+00
         22   -1    0    0    0    0  0.00000000000E+00  0.00000000000E+00  0.14960398112E+04  0.14960398112E+04  0.00000000000E+00 0. -1.
         22   -1    0    0    0    0 -0.00000000000E+00 -0.00000000000E+00 -0.55822536861E+03  0.55822536861E+03  0.00000000000E+00 0. -1.
         24    2    1    2    0    0  0.39310303428E+02  0.54087586378E+02 -0.47282684389E+03  0.48405904937E+03  0.79228606050E+02 0.  0.
         25    2    1    2    0    0 -0.35178050162E+02  0.86488818508E+01 -0.23640865901E+02  0.13234710719E+03  0.12507824699E+03 0.  0.
        -24    2    1    2    0    0 -0.41322532660E+01 -0.62736468229E+02  0.14342821524E+04  0.14378590233E+04  0.79500554386E+02 0.  0.
        -11    1    3    3    0    0  0.29358944053E+01 -0.96881520246E+01 -0.65954868426E+01  0.12082227125E+02  0.00000000000E+00 0.  1.
         12    1    3    3    0    0  0.36374409023E+02  0.63775738402E+02 -0.46623135705E+03  0.47197682224E+03  0.00000000000E+00 0. -1.
         13    1    5    5    0    0  0.13542730200E+02 -0.58678766157E+02  0.53248325773E+03  0.53587780594E+03  0.00000000000E+00 0. -1.
        -14    1    5    5    0    0 -0.17674983466E+02 -0.40577020720E+01  0.90179889467E+03  0.90198121733E+03  0.00000000000E+00 0.  1.
          5    1    4    4  501    0  0.26036487389E+02  0.42235892824E+02 -0.35831410833E+02  0.61344369917E+02  0.41800000000E+01 0. -1.
         -5    1    4    4    0  501 -0.61214537552E+02 -0.33587010974E+02  0.12190544932E+02  0.71002737268E+02  0.41800000000E+01 0. -1.
</event>
<event>
11    1  0.6930157E-009  0.1622335E+03  0.7561462E-02  0.1084995E+00
         22   -1    0    0    0    0  0.00000000000E+00  0.00000000000E+00  0.10277459657E+03  0.10277459657E+03  0.00000000000E+00 0. -1.
         22   -1    0    0    0    0 -0.00000000000E+00 -0.00000000000E+00 -0.13980231686E+04  0.13980231686E+04  0.00000000000E+00 0.  1.
         24    2    1    2    0    0  0.82985981751E+02 -0.47475337153E+02 -0.93927521861E+03  0.94752069941E+03  0.80105921868E+02 0.  0.
         25    2    1    2    0    0 -0.10647129813E+03  0.13893257480E+03 -0.36737670527E+03  0.42573650808E+03  0.12509009983E+03 0.  0.
        -24    2    1    2    0    0  0.23485316375E+02 -0.91457237645E+02  0.11403351853E+02  0.12754055767E+03  0.84973943146E+02 0.  0.
        -13    1    3    3    0    0  0.90499587433E+02 -0.60180960032E+02 -0.86428216003E+03  0.87108872994E+03  0.00000000000E+00 0.  1.
         14    1    3    3    0    0 -0.75136056814E+01  0.12705622879E+02 -0.74993058577E+02  0.76431969475E+02  0.00000000000E+00 0. -1.
         13    1    5    5    0    0 -0.20028017395E+02 -0.76942135014E+02  0.17080602820E+02  0.81320111989E+02  0.00000000000E+00 0. -1.
        -14    1    5    5    0    0  0.43513333770E+02 -0.14515102632E+02 -0.56772509667E+01  0.46220445679E+02  0.00000000000E+00 0.  1.
          5    1    4    4  501    0 -0.10555185110E+03  0.44383114058E+02 -0.15087859084E+03  0.18945415187E+03  0.41800000000E+01 0.  1.
         -5    1    4    4    0  501 -0.91944702472E+00  0.94549460741E+02 -0.21649811443E+03  0.23628235622E+03  0.41800000000E+01 0.  1.
</event>
<event>
11    1  0.6930157E-009  0.1324470E+03  0.7561462E-02  0.1116298E+00
         22   -1    0    0    0    0  0.00000000000E+00  0.00000000000E+00  0.35357548385E+03  0.35357548385E+03  0.00000000000E+00 0.  1.
         22   -1    0    0    0    0 -0.00000000000E+00 -0.00000000000E+00 -0.49278820568E+03  0.49278820568E+03  0.00000000000E+00 0.  1.
        -24    2    1    2    0    0  0.42295343721E+02  0.18899751417E+02 -0.40605594123E+03  0.41718494387E+03  0.83760093575E+02 0.  0.
         25    2    1    2    0    0 -0.19591898306E+02  0.38471232463E+01 -0.21314237713E+02  0.12845821690E+03  0.12509426015E+03 0.  0.
         24    2    1    2    0    0 -0.22703445415E+02 -0.22746874663E+02  0.28815745712E+03  0.30072052876E+03  0.79782514291E+02 0.  0.
        -13    1    5    5    0    0 -0.20690765192E+01 -0.27089230363E+02  0.27395136800E+03  0.27529522245E+03  0.00000000000E+00 0.  1.
         14    1    5    5    0    0 -0.20634368895E+02  0.43423557001E+01  0.14206089120E+02  0.25425306307E+02  0.00000000000E+00 0. -1.
         11    1    3    3    0    0 -0.13246828632E+02  0.32140490409E+02 -0.10057193613E+03  0.10641054426E+03  0.00000000000E+00 0. -1.
        -12    1    3    3    0    0  0.55542172353E+02 -0.13240738992E+02 -0.30548400511E+03  0.31077439961E+03  0.00000000000E+00 0.  1.
          5    1    4    4  501    0  0.26892363176E+01  0.15050264918E+02 -0.70978689222E+02  0.72726812042E+02  0.41800000000E+01 0. -1.
         -5    1    4    4    0  501 -0.22281134624E+02 -0.11203141671E+02  0.49664451509E+02  0.55731404855E+02  0.41800000000E+01 0. -1.
</event>
<event>
11    1  0.6930157E-009  0.1505500E+03  0.7561462E-02  0.1096318E+00
         22   -1    0    0    0    0  0.00000000000E+00  0.00000000000E+00  0.40691998821E+03  0.40691998821E+03  0.00000000000E+00 0. -1.
         22   -1    0    0    0    0 -0.00000000000E+00 -0.00000000000E+00 -0.27056340548E+03  0.27056340548E+03  0.00000000000E+00 0.  1.
        -24    2    1    2    0    0 -0.26308353431E+01  0.10926763860E+02 -0.21786172607E+03  0.23231150804E+03  0.79866073013E+02 0.  0.
         25    2    1    2    0    0 -0.57168456750E+02  0.54650801602E+02  0.22399897321E+03  0.26847628100E+03  0.12509608668E+03 0.  0.
         24    2    1    2    0    0  0.59799292093E+02 -0.65577565462E+02  0.13021933560E+03  0.17669560465E+03  0.79924269845E+02 0.  0.
        -11    1    5    5    0    0  0.32372821101E+02 -0.42983534123E+02  0.14624851925E+02  0.55762622298E+02  0.00000000000E+00 0.  1.
         12    1    5    5    0    0  0.27426470992E+02 -0.22594031339E+02  0.11559448368E+03  0.12093298235E+03  0.00000000000E+00 0. -1.
         13    1    3    3    0    0 -0.24030916300E+02  0.28005993047E+02 -0.49521619930E+02  0.61759302338E+02  0.00000000000E+00 0. -1.
        -14    1    3    3    0    0  0.21400080957E+02 -0.17079229187E+02 -0.16834010614E+03  0.17055220570E+03  0.00000000000E+00 0.  1.
          5    1    4    4  501    0 -0.19020040736E+02  0.89062758345E+02  0.10664969378E+03  0.14030526169E+03  0.41800000000E+01 0. -1.
         -5    1    4    4    0  501 -0.38148416014E+02 -0.34411956743E+02  0.11734927942E+03  0.12817101932E+03  0.41800000000E+01 0. -1.
</event>
<event>
11    1  0.6930157E-009  0.3423734E+03  0.7561462E-02  0.9836985E-01
         22   -1    0    0    0    0  0.00000000000E+00  0.00000000000E+00  0.90243744161E+03  0.90243744161E+03  0.00000000000E+00 0.  1.
         22   -1    0    0    0    0 -0.00000000000E+00 -0.00000000000E+00 -0.12657761493E+04  0.12657761493E+04  0.00000000000E+00 0. -1.
        -24    2    1    2    0    0  0.22626820608E+03  0.21989261259E+03 -0.11437720269E+04  0.11892323476E+04  0.80678776018E+02 0.  0.
         25    2    1    2    0    0 -0.34122072919E+03 -0.20919724376E+03  0.43026292485E+03  0.60080681587E+03  0.12509025810E+03 0.  0.
         24    2    1    2    0    0  0.11495252311E+03 -0.10695368826E+02  0.35017039436E+03  0.37817442746E+03  0.84072106033E+02 0.  0.
        -11    1    5    5    0    0  0.12437150152E+03 -0.16447858436E+02  0.34244728531E+03  0.36470391505E+03  0.00000000000E+00 0.  1.
         12    1    5    5    0    0 -0.94189784126E+01  0.57524896104E+01  0.77231090490E+01  0.13470512404E+02  0.00000000000E+00 0. -1.
         13    1    3    3    0    0  0.22086332670E+03  0.17885388513E+03 -0.98968274538E+03  0.10296801726E+04  0.00000000000E+00 0. -1.
        -14    1    3    3    0    0  0.54048793747E+01  0.41038727452E+02 -0.15408928150E+03  0.15955217500E+03  0.00000000000E+00 0.  1.
          5    1    4    4  501    0 -0.12871022041E+03 -0.88377419638E+02  0.25846971715E+03  0.30199496060E+03  0.41800000000E+01 0.  1.
         -5    1    4    4    0  501 -0.21251050878E+03 -0.12081982412E+03  0.17179320769E+03  0.29881185527E+03  0.41800000000E+01 0.  1.
</event>
<event>
11    1  0.6930157E-009  0.1319330E+03  0.7561462E-02  0.1116917E+00
         22   -1    0    0    0    0  0.00000000000E+00  0.00000000000E+00  0.49070944681E+03  0.49070944681E+03  0.00000000000E+00 0.  1.
         22   -1    0    0    0    0 -0.00000000000E+00 -0.00000000000E+00 -0.41078169692E+03  0.41078169692E+03  0.00000000000E+00 0. -1.
        -24    2    1    2    0    0 -0.42117846484E+02 -0.56912567718E+01 -0.34828306502E+03  0.35986865441E+03  0.79987821928E+02 0.  0.
         25    2    1    2    0    0  0.36670562432E+02 -0.26860329852E+02  0.33055085642E+02  0.13713964975E+03  0.12509371438E+03 0.  0.
         24    2    1    2    0    0  0.54472840515E+01  0.32551586624E+02  0.39515572926E+03  0.40448283957E+03  0.79806255654E+02 0.  0.
        -11    1    5    5    0    0 -0.25938196095E+02 -0.12332489395E+02  0.18927968263E+03  0.19144628115E+03  0.00000000000E+00 0.  1.
         12    1    5    5    0    0  0.31385480146E+02  0.44884076019E+02  0.20587604663E+03  0.21303655842E+03  0.00000000000E+00 0. -1.
         13    1    3    3    0    0 -0.44781443966E+02 -0.32442456666E+02 -0.29554546856E+03  0.30067426678E+03  0.00000000000E+00 0. -1.
        -14    1    3    3    0    0  0.26635974817E+01  0.26751199894E+02 -0.52737596458E+02  0.59194387635E+02  0.00000000000E+00 0.  1.
          5    1    4    4  501    0 -0.27911391920E+02 -0.43638671280E+02  0.45572892313E+02  0.69121200393E+02  0.41800000000E+01 0. -1.
         -5    1    4    4    0  501  0.64581954353E+02  0.16778341428E+02 -0.12517806671E+02  0.68018449357E+02  0.41800000000E+01 0. -1.
</event>
<event>
11    1  0.6930157E-009  0.1571449E+03  0.7561462E-02  0.1089794E+00
         22   -1    0    0    0    0  0.00000000000E+00  0.00000000000E+00  0.21671576727E+03  0.21671576727E+03  0.00000000000E+00 0. -1.
         22   -1    0    0    0    0 -0.00000000000E+00 -0.00000000000E+00 -0.14482660046E+04  0.14482660046E+04  0.00000000000E+00 0. -1.
         24    2    1    2    0    0 -0.50690783066E+01  0.21235169293E+02 -0.12794116909E+04  0.12820785888E+04  0.79715776619E+02 0.  0.
         25    2    1    2    0    0  0.24502618263E+02 -0.11133922554E+03 -0.95492187207E+02  0.19432407874E+03  0.12508512428E+03 0.  0.
        -24    2    1    2    0    0 -0.19433539956E+02  0.90104056242E+02  0.14335364078E+03  0.18857910434E+03  0.80718082497E+02 0.  0.
        -13    1    3    3    0    0 -0.19586473740E+02  0.38615985894E+02 -0.39307306651E+03  0.39545070481E+03  0.00000000000E+00 0.  1.
         14    1    3    3    0    0  0.14517395433E+02 -0.17380816600E+02 -0.88633862440E+03  0.88662788398E+03  0.00000000000E+00 0. -1.
         13    1    5    5    0    0  0.15889359123E+02  0.51025930709E+02  0.11919381342E+03  0.13062649998E+03  0.00000000000E+00 0. -1.
        -14    1    5    5    0    0 -0.35322899079E+02  0.39078125533E+02  0.24159827361E+02  0.57952604365E+02  0.00000000000E+00 0.  1.
          5    1    4    4  501    0  0.24924944099E+02 -0.67838483588E+02  0.16375879439E+02  0.74222331689E+02  0.41800000000E+01 0.  1.
         -5    1    4    4    0  501 -0.42232583673E+00 -0.43500741948E+02 -0.11186806665E+03  0.12010174705E+03  0.41800000000E+01 0.  1.
</event>
<event>
11    1  0.6930157E-009  0.1909546E+03  0.7561462E-02  0.1061111E+00
         22   -1    0    0    0    0  0.00000000000E+00  0.00000000000E+00  0.12045907349E+04  0.12045907349E+04  0.00000000000E+00 0.  1.
         22   -1    0    0    0    0 -0.00000000000E+00 -0.00000000000E+00 -0.20240780234E+04  0.20240780234E+04  0.00000000000E+00 0. -1.
         24    2    1    2    0    0 -0.42707092523E+02  0.14395726464E+03 -0.19001111126E+04  0.19075162850E+04  0.75156818504E+02 0.  0.
         25    2    1    2    0    0  0.11943347398E+03 -0.15608408040E+02 -0.47737135741E+02  0.18009032540E+03  0.12508282882E+03 0.  0.
        -24    2    1    2    0    0 -0.76726381454E+02 -0.12834885660E+03  0.11283609599E+04  0.11410621480E+04  0.80399024677E+02 0.  0.
        -11    1    3    3    0    0 -0.41980249057E+02  0.25049994333E+02 -0.52118155089E+03  0.52346924696E+03  0.00000000000E+00 0.  1.
         12    1    3    3    0    0 -0.72684346595E+00  0.11890727031E+03 -0.13789295617E+04  0.13840470380E+04  0.00000000000E+00 0. -1.
         13    1    5    5    0    0  0.67345526221E+01  0.59738173697E+01  0.12412575450E+03  0.12445177228E+03  0.00000000000E+00 0. -1.
        -14    1    5    5    0    0 -0.83460934076E+02 -0.13432267397E+03  0.10042352054E+04  0.10166103757E+04  0.00000000000E+00 0.  1.
          5    1    4    4  501    0  0.34610520799E+02 -0.31158157456E+02  0.36614183738E+02  0.59386781162E+02  0.41800000000E+01 0.  1.
         -5    1    4    4    0  501  0.84822953178E+02  0.15549749415E+02 -0.84351319478E+02  0.12070354423E+03  0.41800000000E+01 0.  1.
</event>
<event>
11    1  0.6930157E-009  0.2477031E+03  0.7561462E-02  0.1025130E+00
         22   -1    0    0    0    0  0.00000000000E+00  0.00000000000E+00  0.48267133938E+03  0.48267133938E+03  0.00000000000E+00 0. -1.
         22   -1    0    0    0    0 -0.00000000000E+00 -0.00000000000E+00 -0.23837804417E+04  0.23837804417E+04  0.00000000000E+00 0. -1.
         24    2    1    2    0    0  0.48601255971E+02 -0.77440250281E+02 -0.69188843551E+03  0.70240943254E+03  0.79437581090E+02 0.  0.
         25    2    1    2    0    0  0.10943172108E+03  0.22105445579E+03 -0.16471344100E+04  0.16701895294E+04  0.12506368598E+03 0.  0.
        -24    2    1    2    0    0 -0.15803297705E+03 -0.14361420551E+03  0.43791374315E+03  0.49385281916E+03  0.80763226114E+02 0.  0.
        -13    1    3    3    0    0 -0.13595147588E+02  0.77410847659E+01 -0.88337774720E+02  0.89712400892E+02  0.00000000000E+00 0.  1.
         14    1    3    3    0    0  0.62196403559E+02 -0.85181335047E+02 -0.60355066078E+03  0.61269703165E+03  0.00000000000E+00 0. -1.
         11    1    5    5    0    0 -0.15527296856E+03 -0.10022756839E+03  0.35686640133E+03  0.40188168486E+03  0.00000000000E+00 0. -1.
        -12    1    5    5    0    0 -0.27600084934E+01 -0.43386637127E+02  0.81047341821E+02  0.91971134300E+02  0.00000000000E+00 0.  1.
          5    1    4    4  501    0 -0.10032172648E+02  0.74905917387E+02 -0.27885726267E+03  0.28894703025E+03  0.41800000000E+01 0. -1.
         -5    1    4    4    0  501  0.11946389373E+03  0.14614853841E+03 -0.13682771473E+04  0.13812424992E+04  0.41800000000E+01 0. -1.
</event>
<event>
11    1  0.8344871E-009  0.1434422E+03  0.7561462E-02  0.1103774E+00
         22   -1    0    0    0    0  0.00000000000E+00  0.00000000000E+00  0.47191713236E+03  0.47191713236E+03  0.00000000000E+00 0. -1.
         22   -1    0    0    0    0 -0.00000000000E+00 -0.00000000000E+00 -0.29243207500E+03  0.29243207500E+03  0.00000000000E+00 0. -1.
        -24    2    1    2    0    0 -0.70430211870E+02 -0.25506375903E+02 -0.19844571546E+03  0.22645373142E+03  0.79307001791E+02 0.  0.
         25    2    1    2    0    0  0.58296360781E+01  0.63033482731E+02 -0.39270591802E+01  0.14025381450E+03  0.12509398900E+03 0.  0.
         24    2    1    2    0    0  0.64600575792E+02 -0.37527106829E+02  0.38185783200E+03  0.39764166144E+03  0.81987614400E+02 0.  0.
        -11    1    5    5    0    0 -0.54785931706E+01  0.13974879020E+02  0.17534299717E+02  0.23081678737E+02  0.00000000000E+00 0.  1.
         12    1    5    5    0    0  0.70079168962E+02 -0.51501985848E+02  0.36432353228E+03  0.37455998270E+03  0.00000000000E+00 0. -1.
         13    1    3    3    0    0 -0.30873621528E+02 -0.45782377794E+01 -0.17128360365E+03  0.17410403111E+03  0.00000000000E+00 0. -1.
        -14    1    3    3    0    0 -0.39556590342E+02 -0.20928138124E+02 -0.27162111806E+02  0.52349700310E+02  0.00000000000E+00 0.  1.
          5    1    4    4  501    0  0.35979188086E+02 -0.18629640471E+02  0.25750128262E+02  0.48188245298E+02  0.41800000000E+01 0.  1.
         -5    1    4    4    0  501 -0.30149552008E+02  0.81663123203E+02 -0.29677187442E+02  0.92065569199E+02  0.41800000000E+01 0.  1.
</event>
<event>
11    1  0.6930157E-009  0.1478919E+03  0.7561462E-02  0.1099053E+00
         22   -1    0    0    0    0  0.00000000000E+00  0.00000000000E+00  0.24081422898E+04  0.24081422898E+04  0.00000000000E+00 0. -1.
         22   -1    0    0    0    0 -0.00000000000E+00 -0.00000000000E+00 -0.57907680746E+02  0.57907680746E+02  0.00000000000E+00 0. -1.
        -24    2    1    2    0    0  0.31278659285E+01  0.58989190953E+02  0.39987681720E+01  0.10030128690E+03  0.80962026979E+02 0.  0.
         25    2    1    2    0    0  0.36750103336E+01 -0.12599243811E+03  0.99995523243E+03  0.10155969820E+04  0.12505663841E+03 0.  0.
         24    2    1    2    0    0 -0.68028762621E+01  0.67003247153E+02  0.13462806084E+04  0.13501517016E+04  0.76827251173E+02 0.  0.
        -11    1    5    5    0    0 -0.80217156401E+01 -0.14545581389E+02  0.11761579462E+03  0.11878298281E+03  0.00000000000E+00 0.  1.
         12    1    5    5    0    0  0.12188393780E+01  0.81548828542E+02  0.12286648138E+04  0.12313687188E+04  0.00000000000E+00 0. -1.
         11    1    3    3    0    0 -0.38537626373E+02  0.22562614819E+02  0.50985665398E+01  0.44946808726E+02  0.00000000000E+00 0. -1.
        -12    1    3    3    0    0  0.41665492301E+02  0.36426576134E+02 -0.10997983678E+01  0.55354478175E+02  0.00000000000E+00 0.  1.
          5    1    4    4  501    0 -0.52227760931E+01  0.89083237130E+01  0.41728089708E+03  0.41742958099E+03  0.41800000000E+01 0. -1.
         -5    1    4    4    0  501  0.88977864266E+01 -0.13490076182E+03  0.58267433535E+03  0.59816740100E+03  0.41800000000E+01 0. -1.
</event>
<event>
11    1  0.6930157E-009  0.1855687E+03  0.7561462E-02  0.1065225E+00
         22   -1    0    0    0    0  0.00000000000E+00  0.00000000000E+00  0.31511350386E+03  0.31511350386E+03  0.00000000000E+00 0. -1.
         22   -1    0    0    0    0 -0.00000000000E+00 -0.00000000000E+00 -0.64643752234E+03  0.64643752234E+03  0.00000000000E+00 0. -1.
         24    2    1    2    0    0  0.10724050645E+03  0.92333895457E+02 -0.57089782465E+03  0.59350120510E+03  0.79330194715E+02 0.  0.
         25    2    1    2    0    0 -0.78617817315E+02 -0.48415886580E+02  0.65220315041E+02  0.16859106429E+03  0.12507756870E+03 0.  0.
        -24    2    1    2    0    0 -0.28622689133E+02 -0.43918008877E+02  0.17435349113E+03  0.19945875681E+03  0.81465366642E+02 0.  0.
        -13    1    3    3    0    0  0.83160774232E+02  0.97757411357E+02 -0.38169296117E+03  0.40269311200E+03  0.00000000000E+00 0.  1.
         14    1    3    3    0    0  0.24079732216E+02 -0.54235159003E+01 -0.18920486348E+03  0.19080809310E+03  0.00000000000E+00 0. -1.
         13    1    5    5    0    0 -0.27486153812E+02 -0.48903721804E+02  0.18189373549E+03  0.19034808554E+03  0.00000000000E+00 0. -1.
        -14    1    5    5    0    0 -0.11365353202E+01  0.49857129262E+01 -0.75402443631E+01  0.91106712690E+01  0.00000000000E+00 0.  1.
          5    1    4    4  501    0 -0.93535308138E+02 -0.45107538301E+02  0.91129319436E+02  0.13822289659E+03  0.41800000000E+01 0. -1.
         -5    1    4    4    0  501  0.14917490822E+02 -0.33083482790E+01 -0.25909004395E+02  0.30368167701E+02  0.41800000000E+01 0. -1.
</event>
<event>
11    1  0.6930157E-009  0.1399950E+03  0.7561462E-02  0.1107564E+00
         22   -1    0    0    0    0  0.00000000000E+00  0.00000000000E+00  0.33763089090E+03  0.33763089090E+03  0.00000000000E+00 0.  1.
         22   -1    0    0    0    0 -0.00000000000E+00 -0.00000000000E+00 -0.34443823230E+03  0.34443823230E+03  0.00000000000E+00 0.  1.
        -24    2    1    2    0    0 -0.59302937735E+02 -0.17154828998E+02 -0.20992710432E+03  0.23316039937E+03  0.80518669419E+02 0.  0.
         25    2    1    2    0    0  0.56103515602E+02  0.43760695138E+02 -0.72351515149E+02  0.16106896545E+03  0.12508344009E+03 0.  0.
         24    2    1    2    0    0  0.31994221330E+01 -0.26605866140E+02  0.27547127806E+03  0.28783975838E+03  0.79051837749E+02 0.  0.
        -11    1    5    5    0    0  0.13525678576E+02 -0.30753129700E+02  0.27463298172E+03  0.27668027327E+03  0.00000000000E+00 0.  1.
         12    1    5    5    0    0 -0.10326256443E+02  0.41472635598E+01  0.83829634089E+00  0.11159485110E+02  0.00000000000E+00 0. -1.
         13    1    3    3    0    0 -0.86944360123E+01 -0.42239043928E+02 -0.69411669680E+02  0.81717256056E+02  0.00000000000E+00 0. -1.
        -14    1    3    3    0    0 -0.50608501723E+02  0.25084214931E+02 -0.14051543464E+03  0.15144314332E+03  0.00000000000E+00 0.  1.
          5    1    4    4  501    0  0.58597595520E+02 -0.17862783159E+02  0.55145148894E+01  0.61649326820E+02  0.41800000000E+01 0.  1.
         -5    1    4    4    0  501 -0.24940799181E+01  0.61623478297E+02 -0.77866030038E+02  0.99419638633E+02  0.41800000000E+01 0.  1.
</event>
<event>
11    1  0.6930157E-009  0.1590075E+03  0.7561462E-02  0.1088014E+00
         22   -1    0    0    0    0  0.00000000000E+00  0.00000000000E+00  0.13241248661E+03  0.13241248661E+03  0.00000000000E+00 0.  1.
         22   -1    0    0    0    0 -0.00000000000E+00 -0.00000000000E+00 -0.30682123822E+04  0.30682123822E+04  0.00000000000E+00 0.  1.
         24    2    1    2    0    0 -0.93170806681E+01 -0.34495200874E+02 -0.28730200755E+04  0.28743080324E+04  0.78266107999E+02 0.  0.
         25    2    1    2    0    0  0.68624755678E+02 -0.50582996589E+02 -0.10617988959E+03  0.18490269471E+03  0.12508733318E+03 0.  0.
        -24    2    1    2    0    0 -0.59307675010E+02  0.85078197464E+02  0.43400069504E+02  0.14141414177E+03  0.85782827302E+02 0.  0.
        -11    1    3    3    0    0 -0.25426645375E+02 -0.19266927912E+02 -0.26493589259E+04  0.26495509897E+04  0.00000000000E+00 0.  1.
         12    1    3    3    0    0  0.16109564707E+02 -0.15228272962E+02 -0.22366114968E+03  0.22475704271E+03  0.00000000000E+00 0. -1.
         11    1    5    5    0    0 -0.98023293440E+00  0.12324517960E+02 -0.23565511841E+02  0.26611800914E+02  0.00000000000E+00 0. -1.
        -12    1    5    5    0    0 -0.58327442076E+02  0.72753679504E+02  0.66965581345E+02  0.11480234085E+03  0.00000000000E+00 0.  1.
          5    1    4    4  501    0 -0.34133395618E+02 -0.34999929339E+01 -0.88459523898E+01  0.35679993282E+02  0.41800000000E+01 0. -1.
         -5    1    4    4    0  501  0.10275815130E+03 -0.47083003655E+02 -0.97333937204E+02  0.14922270143E+03  0.41800000000E+01 0. -1.
</event>
<event>
11    1  0.6930157E-009  0.1459061E+03  0.7561462E-02  0.1101137E+00
         22   -1    0    0    0    0  0.00000000000E+00  0.00000000000E+00  0.10456281296E+03  0.10456281296E+03  0.00000000000E+00 0.  1.
         22   -1    0    0    0    0 -0.00000000000E+00 -0.00000000000E+00 -0.21229742268E+04  0.21229742268E+04  0.00000000000E+00 0. -1.
         24    2    1    2    0    0  0.49067597068E+02 -0.55317284866E+02 -0.17991887190E+04  0.18027197680E+04  0.85152123290E+02 0.  0.
         25    2    1    2    0    0 -0.69666205711E+02  0.55464387613E+02 -0.28134707331E+03  0.32052366586E+03  0.12509822622E+03 0.  0.
        -24    2    1    2    0    0  0.20598608643E+02 -0.14710274656E+00  0.62124378562E+02  0.10429360586E+03  0.81199713635E+02 0.  0.
        -13    1    3    3    0    0  0.37629026989E+02 -0.61312626893E+02 -0.74792546617E+03  0.75137719211E+03  0.00000000000E+00 0.  1.
         14    1    3    3    0    0  0.11438570079E+02  0.59953420266E+01 -0.10512632529E+04  0.10513425759E+04  0.00000000000E+00 0. -1.
         13    1    5    5    0    0 -0.19003713038E+02  0.22813356016E+02  0.34751141457E+01  0.29894259320E+02  0.00000000000E+00 0. -1.
        -14    1    5    5    0    0  0.39602321681E+02 -0.22960458763E+02  0.58649264416E+02  0.74399346541E+02  0.00000000000E+00 0.  1.
          5    1    4    4  501    0  0.16767130212E+02  0.23051868621E+02 -0.18423226824E+03  0.18647124809E+03  0.41800000000E+01 0.  1.
         -5    1    4    4    0  501 -0.86433335923E+02  0.32412518991E+02 -0.97114805074E+02  0.13405241777E+03  0.41800000000E+01 0.  1.
</event>
<event>
11    1  0.6930157E-009  0.1568755E+03  0.7561462E-02  0.1090053E+00
         22   -1    0    0    0    0  0.00000000000E+00  0.00000000000E+00  0.45303664166E+02  0.45303664166E+02  0.00000000000E+00 0. -1.
         22   -1    0    0    0    0 -0.00000000000E+00 -0.00000000000E+00 -0.15338324987E+04  0.15338324987E+04  0.00000000000E+00 0.  1.
        -24    2    1    2    0    0 -0.29248586274E+02  0.43613006214E+01 -0.10150158576E+04  0.10186067489E+04  0.80174914588E+02 0.  0.
         25    2    1    2    0    0  0.10685922879E+03  0.36817098275E+02 -0.35273335130E+03  0.39095156417E+03  0.12509162602E+03 0.  0.
         24    2    1    2    0    0 -0.77610642515E+02 -0.41178398896E+02 -0.12077962561E+03  0.16957784981E+03  0.80311000587E+02 0.  0.
        -13    1    5    5    0    0  0.14579610405E+02 -0.10816734325E+02 -0.37591019189E+02  0.41745077611E+02  0.00000000000E+00 0.  1.
         14    1    5    5    0    0 -0.92190252921E+02 -0.30361664571E+02 -0.83188606424E+02  0.12783277220E+03  0.00000000000E+00 0. -1.
         13    1    3    3    0    0  0.25533204142E+02  0.15032270232E+01 -0.18224450365E+03  0.18403060430E+03  0.00000000000E+00 0. -1.
        -14    1    3    3    0    0 -0.54781790416E+02  0.28580735982E+01 -0.83277135394E+03  0.83457614457E+03  0.00000000000E+00 0.  1.
          5    1    4    4  501    0  0.84096203730E+02 -0.19675461686E+02 -0.29318240279E+03  0.30566761193E+03  0.41800000000E+01 0.  1.
         -5    1    4    4    0  501  0.22763025059E+02  0.56492559961E+02 -0.59550948509E+02  0.85283952236E+02  0.41800000000E+01 0.  1.
</event>
<event>
11    1  0.6930157E-009  0.1714019E+03  0.7561462E-02  0.1076818E+00
         22   -1    0    0    0    0  0.00000000000E+00  0.00000000000E+00  0.53681202408E+03  0.53681202408E+03  0.00000000000E+00 0.  1.
         22   -1    0    0    0    0 -0.00000000000E+00 -0.00000000000E+00 -0.21874324711E+03  0.21874324711E+03  0.00000000000E+00 0. -1.
        -24    2    1    2    0    0  0.17698567538E+02 -0.84352914822E+02 -0.11332886040E+03  0.17124266764E+03  0.95141826189E+02 0.  0.
         25    2    1    2    0    0 -0.11632578404E+03  0.12690675237E+03  0.11858594555E+03  0.24361238016E+03  0.12508938188E+03 0.  0.
         24    2    1    2    0    0  0.98627216500E+02 -0.42553837544E+02  0.31281169182E+03  0.34070022339E+03  0.81776101379E+02 0.  0.
        -11    1    5    5    0    0  0.31909533068E+02 -0.55767777859E+02  0.11802330387E+03  0.13437917847E+03  0.00000000000E+00 0.  1.
         12    1    5    5    0    0  0.66717683432E+02  0.13213940316E+02  0.19478838794E+03  0.20632104492E+03  0.00000000000E+00 0. -1.
         11    1    3    3    0    0  0.54418061228E+02 -0.70314555928E+02 -0.82382184209E+02  0.12121174216E+03  0.00000000000E+00 0. -1.
        -12    1    3    3    0    0 -0.36719493689E+02 -0.14038358894E+02 -0.30946676187E+02  0.50030925479E+02  0.00000000000E+00 0.  1.
          5    1    4    4  501    0 -0.10856381354E+03  0.31652853873E+02  0.87443061134E+02  0.14300967138E+03  0.41800000000E+01 0. -1.
         -5    1    4    4    0  501 -0.77619704967E+01  0.95253898493E+02  0.31142884412E+02  0.10060270878E+03  0.41800000000E+01 0. -1.
</event>
<event>
11    1  0.6930157E-009  0.1333698E+03  0.7561462E-02  0.1115197E+00
         22   -1    0    0    0    0  0.00000000000E+00  0.00000000000E+00  0.14153301762E+04  0.14153301762E+04  0.00000000000E+00 0.  1.
         22   -1    0    0    0    0 -0.00000000000E+00 -0.00000000000E+00 -0.15753085561E+04  0.15753085561E+04  0.00000000000E+00 0.  1.
        -24    2    1    2    0    0 -0.12354520562E+02  0.25670788461E+02 -0.14564233556E+04  0.14589006837E+04  0.80066164502E+02 0.  0.
         25    2    1    2    0    0 -0.26680648172E+02 -0.50413917474E+02 -0.75340349905E+02  0.15677000724E+03  0.12508895549E+03 0.  0.
         24    2    1    2    0    0  0.39035168734E+02  0.24743129013E+02  0.13717853256E+04  0.13749680414E+04  0.81278338456E+02 0.  0.
        -11    1    5    5    0    0  0.91234746566E+01  0.51416365165E+02  0.66483523243E+03  0.66688287328E+03  0.00000000000E+00 0.  1.
         12    1    5    5    0    0  0.29911694078E+02 -0.26673236152E+02  0.70695009320E+03  0.70808516808E+03  0.00000000000E+00 0. -1.
         13    1    3    3    0    0 -0.45588121078E+02  0.17302028265E+02 -0.10026708938E+04  0.10038558454E+04  0.00000000000E+00 0. -1.
        -14    1    3    3    0    0  0.33233600515E+02  0.83687601955E+01 -0.45375246178E+03  0.45504483836E+03  0.00000000000E+00 0.  1.
          5    1    4    4  501    0 -0.30140073633E+02  0.97176882432E+01 -0.89265939345E+02  0.94808954380E+02  0.41800000000E+01 0. -1.
         -5    1    4    4    0  501  0.34594254613E+01 -0.60131605717E+02  0.13925589440E+02  0.61961052863E+02  0.41800000000E+01 0. -1.
</event>
<event>
11    1  0.6930157E-009  0.2422127E+03  0.7561462E-02  0.1028131E+00
         22   -1    0    0    0    0  0.00000000000E+00  0.00000000000E+00  0.10165061058E+04  0.10165061058E+04  0.00000000000E+00 0. -1.
         22   -1    0    0    0    0 -0.00000000000E+00 -0.00000000000E+00 -0.16451207425E+03  0.16451207425E+03  0.00000000000E+00 0.  1.
         24    2    1    2    0    0  0.12921759018E+03  0.15559469015E+03  0.28856734177E+01  0.21912628622E+03  0.84268078101E+02 0.  0.
         25    2    1    2    0    0 -0.70429327741E+02 -0.22717354377E+03  0.31675074091E+03  0.41538775420E+03  0.12509134773E+03 0.  0.
        -24    2    1    2    0    0 -0.58788262437E+02  0.71578853623E+02  0.53235761721E+03  0.54650413962E+03  0.81746864981E+02 0.  0.
        -11    1    3    3    0    0  0.12793133821E+03  0.15824285158E+03  0.17480863501E+02  0.20423713659E+03  0.00000000000E+00 0.  1.
         12    1    3    3    0    0  0.12862519709E+01 -0.26481614367E+01 -0.14595190083E+02  0.14889149629E+02  0.00000000000E+00 0. -1.
         13    1    5    5    0    0 -0.42640167518E+02  0.57001022770E+02  0.51128507958E+03  0.51621675010E+03  0.00000000000E+00 0. -1.
        -14    1    5    5    0    0 -0.16148094920E+02  0.14577830853E+02  0.21072537638E+02  0.30287389528E+02  0.00000000000E+00 0.  1.
          5    1    4    4  501    0 -0.71544620797E+02 -0.11629988765E+03  0.91880576687E+02  0.16463234617E+03  0.41800000000E+01 0.  1.
         -5    1    4    4    0  501  0.11152930560E+01 -0.11087365612E+03  0.22487016423E+03  0.25075540804E+03  0.41800000000E+01 0.  1.
</event>
<event>
11    1  0.6930157E-009  0.1471953E+03  0.7561462E-02  0.1099780E+00
         22   -1    0    0    0    0  0.00000000000E+00  0.00000000000E+00  0.54435780421E+03  0.54435780421E+03  0.00000000000E+00 0.  1.
         22   -1    0    0    0    0 -0.00000000000E+00 -0.00000000000E+00 -0.21898190324E+04  0.21898190324E+04  0.00000000000E+00 0. -1.
         24    2    1    2    0    0 -0.20060907681E+02 -0.75640389998E+02 -0.21000479545E+04  0.21031480184E+04  0.83103956438E+02 0.  0.
         25    2    1    2    0    0  0.28746428644E+02  0.47550524071E+02 -0.28965086620E+02  0.13990827015E+03  0.12509171960E+03 0.  0.
        -24    2    1    2    0    0 -0.86855209630E+01  0.28089865927E+02  0.48355181293E+03  0.49112054805E+03  0.80700421821E+02 0.  0.
        -13    1    3    3    0    0  0.22927914202E+02 -0.16485815003E+02 -0.23876999888E+03  0.24043415671E+03  0.00000000000E+00 0.  1.
         14    1    3    3    0    0 -0.42988821882E+02 -0.59154574996E+02 -0.18612779556E+04  0.18627138617E+04  0.00000000000E+00 0. -1.
         11    1    5    5    0    0  0.18549479072E+02  0.16697885013E+02  0.44055723987E+02  0.50634073052E+02  0.00000000000E+00 0. -1.
        -12    1    5    5    0    0 -0.27235000035E+02  0.11391980914E+02  0.43949608894E+03  0.44048647499E+03  0.00000000000E+00 0.  1.
          5    1    4    4  501    0  0.17410486143E+02  0.89620012431E+02 -0.29810129412E+02  0.96130057066E+02  0.41800000000E+01 0.  1.
         -5    1    4    4    0  501  0.11335942501E+02 -0.42069488360E+02  0.84504279236E+00  0.43778213081E+02  0.41800000000E+01 0.  1.
</event>
<event>
11    1  0.6930157E-009  0.1487345E+03  0.7561462E-02  0.1098179E+00
         22   -1    0    0    0    0  0.00000000000E+00  0.00000000000E+00  0.28116275183E+04  0.28116275183E+04  0.00000000000E+00 0.  1.
         22   -1    0    0    0    0 -0.00000000000E+00 -0.00000000000E+00 -0.59634470906E+02  0.59634470906E+02  0.00000000000E+00 0.  1.
        -24    2    1    2    0    0 -0.27580855975E+02  0.75274892177E+02  0.32192190374E+02  0.11812631942E+03  0.80563497994E+02 0.  0.
         25    2    1    2    0    0  0.61419029577E+02 -0.63279843423E+02  0.35383379388E+03  0.38551637867E+03  0.12509152150E+03 0.  0.
         24    2    1    2    0    0 -0.33838173602E+02 -0.11995048754E+02  0.23659670631E+04  0.23676192911E+04  0.80821164616E+02 0.  0.
        -13    1    5    5    0    0 -0.45188707380E+02 -0.20556195588E+02  0.22755357275E+04  0.22760772007E+04  0.00000000000E+00 0.  1.
         14    1    5    5    0    0  0.11350533778E+02  0.85611468341E+01  0.90431335665E+02  0.91542090441E+02  0.00000000000E+00 0. -1.
         11    1    3    3    0    0 -0.26483658735E+02  0.51233305711E+02  0.58721635591E+02  0.82307145988E+02  0.00000000000E+00 0. -1.
        -12    1    3    3    0    0 -0.10971972404E+01  0.24041586465E+02 -0.26529445217E+02  0.35819173428E+02  0.00000000000E+00 0.  1.
          5    1    4    4  501    0  0.83684741952E+02 -0.28856489780E+02  0.12634679706E+03  0.15432698586E+03  0.41800000000E+01 0. -1.
         -5    1    4    4    0  501 -0.22265712375E+02 -0.34423353643E+02  0.22748699682E+03  0.23118939281E+03  0.41800000000E+01 0. -1.
</event>
<event>
11    1  0.6930157E-009  0.1939967E+03  0.7561462E-02  0.1058852E+00
         22   -1    0    0    0    0  0.00000000000E+00  0.00000000000E+00  0.38670301520E+04  0.38670301520E+04  0.00000000000E+00 0. -1.
         22   -1    0    0    0    0 -0.00000000000E+00 -0.00000000000E+00 -0.13394192710E+03  0.13394192710E+03  0.00000000000E+00 0. -1.
        -24    2    1    2    0    0  0.14850863302E+03 -0.52695344048E+02 -0.58073767097E+02  0.18588545223E+03  0.79682027832E+02 0.  0.
         25    2    1    2    0    0 -0.59954751472E+02  0.52979041158E+02  0.49569579232E+03  0.51745859926E+03  0.12509089656E+03 0.  0.
         24    2    1    2    0    0 -0.88553881552E+02 -0.28369711031E+00  0.32954661997E+04  0.32976280276E+04  0.80070374407E+02 0.  0.
        -11    1    5    5    0    0  0.10196425023E+02 -0.15955932213E+02  0.42674987869E+03  0.42716977634E+03  0.00000000000E+00 0.  1.
         12    1    5    5    0    0 -0.98750306575E+02  0.15672235103E+02  0.28687163210E+04  0.28704582512E+04  0.00000000000E+00 0. -1.
         11    1    3    3    0    0  0.89159292933E+02 -0.69877808577E+01 -0.65142650164E+02  0.11064254818E+03  0.00000000000E+00 0. -1.
        -12    1    3    3    0    0  0.59349340091E+02 -0.45707563190E+02  0.70688830674E+01  0.75242904050E+02  0.00000000000E+00 0.  1.
          5    1    4    4  501    0 -0.86207320033E+02  0.56874953521E+02  0.25329200167E+03  0.27357041667E+03  0.41800000000E+01 0.  1.
         -5    1    4    4    0  501  0.26252568561E+02 -0.38959123625E+01  0.24240379064E+03  0.24388818259E+03  0.41800000000E+01 0.  1.
</event>
<event>
11    1  0.6930157E-009  0.1856681E+03  0.7561462E-02  0.1065148E+00
         22   -1    0    0    0    0  0.00000000000E+00  0.00000000000E+00  0.16772848028E+04  0.16772848028E+04  0.00000000000E+00 0.  1.
         22   -1    0    0    0    0 -0.00000000000E+00 -0.00000000000E+00 -0.11231896707E+03  0.11231896707E+03  0.00000000000E+00 0. -1.
        -24    2    1    2    0    0 -0.30286001918E+02  0.15030926417E+02 -0.46029333162E+02  0.97679275152E+02  0.79242479907E+02 0.  0.
         25    2    1    2    0    0  0.15963410161E+03  0.21838731914E+02  0.25183514916E+03  0.32408079978E+03  0.12508975108E+03 0.  0.
         24    2    1    2    0    0 -0.12934809969E+03 -0.36869658331E+02  0.13591600197E+04  0.13678436949E+04  0.74767051078E+02 0.  0.
        -13    1    5    5    0    0 -0.11985782351E+03 -0.55744233325E+02  0.11274558825E+04  0.11351784373E+04  0.00000000000E+00 0.  1.
         14    1    5    5    0    0 -0.94902761787E+01  0.18874574994E+02  0.23170413717E+03  0.23266525763E+03  0.00000000000E+00 0. -1.
         11    1    3    3    0    0  0.44384551615E+01 -0.70388284172E+01 -0.54952010694E+02  0.55578489266E+02  0.00000000000E+00 0. -1.
        -12    1    3    3    0    0 -0.34724457080E+02  0.22069754834E+02  0.89226775323E+01  0.42100785886E+02  0.00000000000E+00 0.  1.
          5    1    4    4  501    0  0.60696044428E+02 -0.43904586313E+02  0.14934998126E+03  0.16713620736E+03  0.41800000000E+01 0. -1.
         -5    1    4    4    0  501  0.98938057179E+02  0.65743318227E+02  0.10248516790E+03  0.15694459242E+03  0.41800000000E+01 0. -1.
</event>
<event>
11    1  0.6930157E-009  0.1433201E+03  0.7561462E-02  0.1103907E+00
         22   -1    0    0    0    0  0.00000000000E+00  0.00000000000E+00  0.15448129405E+03  0.15448129405E+03  0.00000000000E+00 0.  1.
         22   -1    0    0    0    0 -0.00000000000E+00 -0.00000000000E+00 -0.85492570267E+03  0.85492570267E+03  0.00000000000E+00 0. -1.
         24    2    1    2    0    0  0.11878906140E+02  0.42041251734E+02 -0.45868167253E+03  0.46782623288E+03  0.81018097950E+02 0.  0.
         25    2    1    2    0    0  0.23920447357E+02 -0.10022329417E+03 -0.35256881231E+03  0.38803269590E+03  0.12509080373E+03 0.  0.
        -24    2    1    2    0    0 -0.35799353497E+02  0.58182042434E+02  0.11080607623E+03  0.15354806794E+03  0.81438804414E+02 0.  0.
        -13    1    3    3    0    0 -0.11320831344E+02 -0.15064890635E+02 -0.35617630807E+02  0.40295505661E+02  0.00000000000E+00 0.  1.
         14    1    3    3    0    0  0.23199737484E+02  0.57106142369E+02 -0.42306404173E+03  0.42753072722E+03  0.00000000000E+00 0. -1.
         11    1    5    5    0    0 -0.66973522047E+01  0.95217863130E+01 -0.12955275257E+02  0.17417178248E+02  0.00000000000E+00 0. -1.
        -12    1    5    5    0    0 -0.29102001292E+02  0.48660256121E+02  0.12376135149E+03  0.13613088969E+03  0.00000000000E+00 0.  1.
          5    1    4    4  501    0  0.47362334641E+01 -0.65112261229E+01  0.97255683479E+01  0.13299889200E+02  0.41800000000E+01 0. -1.
         -5    1    4    4    0  501  0.19184213892E+02 -0.93712068046E+02 -0.36229438066E+03  0.37473280670E+03  0.41800000000E+01 0. -1.
</event>
<event>
11    1  0.6930157E-009  0.2107178E+03  0.7561462E-02  0.1047193E+00
         22   -1    0    0    0    0  0.00000000000E+00  0.00000000000E+00  0.24242626028E+03  0.24242626028E+03  0.00000000000E+00 0.  1.
         22   -1    0    0    0    0 -0.00000000000E+00 -0.00000000000E+00 -0.11616854834E+04  0.11616854834E+04  0.00000000000E+00 0.  1.
        -24    2    1    2    0    0  0.50047350280E+02  0.16507605467E+03 -0.62229686799E+03  0.65079132061E+03  0.80753389835E+02 0.  0.
         25    2    1    2    0    0 -0.13704363468E+03 -0.11973293109E+03 -0.48071650071E+03  0.52900939818E+03  0.12508259955E+03 0.  0.
         24    2    1    2    0    0  0.86996284400E+02 -0.45343123582E+02  0.18375414561E+03  0.22431102486E+03  0.83219573953E+02 0.  0.
        -13    1    5    5    0    0  0.38607487862E+02 -0.82356185023E+01  0.14896337908E+03  0.15410532709E+03  0.00000000000E+00 0.  1.
         14    1    5    5    0    0  0.48388796539E+02 -0.37107505080E+02  0.34790766538E+02  0.70205697774E+02  0.00000000000E+00 0. -1.
         13    1    3    3    0    0  0.15650667970E+02  0.82365309737E+02 -0.16812257460E+03  0.18786747389E+03  0.00000000000E+00 0. -1.
        -14    1    3    3    0    0  0.34396682311E+02  0.82710744938E+02 -0.45417429339E+03  0.46292384672E+03  0.00000000000E+00 0.  1.
          5    1    4    4  501    0  0.17758750992E+02 -0.30901910295E+02 -0.41309629324E+02  0.54719824301E+02  0.41800000000E+01 0.  1.
         -5    1    4    4    0  501 -0.15480238567E+03 -0.88831020798E+02 -0.43940687139E+03  0.47428957387E+03  0.41800000000E+01 0.  1.
</event>
