<event>
11    1  0.8479398E-009  0.1266249E+03  0.7561462E-02  0.1123487E+00
         22   -1    0    0    0    0  0.00000000000E+00  0.00000000000E+00  0.19870291116E+03  0.19870291116E+03  0.00000000000E+00 0.  1.
         22   -1    0    0    0    0 -0.00000000000E+00 -0.00000000000E+00 -0.56448745840E+03  0.56448745840E+03  0.00000000000E+00 0.  1.
        -24    2    1    2    0    0  0.56505242887E+00 -0.12647148623E+01 -0.47455027487E+03  0.48130529447E+03  0.80342419183E+02 0.  0.
         25    2    1    2    0    0 -0.13788897819E+02 -0.13347445757E+02 -0.20847897117E+02  0.12826303776E+03  0.12509390085E+03 0.  0.
         24    2    1    2    0    0  0.13223845390E+02  0.14612160619E+02  0.12961362475E+03  0.15362203732E+03  0.80072800045E+02 0.  0.
        -13    1    5    5    0    0  0.35929471851E+02 -0.71383763314E+00  0.11889228104E+03  0.12420471409E+03  0.00000000000E+00 0.  1.
         14    1    5    5    0    0 -0.22705626461E+02  0.15325998252E+02  0.10721343709E+02  0.29417323236E+02  0.00000000000E+00 0. -1.
         13    1    3    3    0    0  0.18167541661E+02  0.35189741525E+02 -0.21498422728E+03  0.21860145347E+03  0.00000000000E+00 0. -1.
        -14    1    3    3    0    0 -0.17602489232E+02 -0.36454456387E+02 -0.25956604759E+03  0.26270384101E+03  0.00000000000E+00 0.  1.
          5    1    4    4  501    0  0.26849079046E+02  0.33438313971E+02 -0.44368987164E+02  0.61847177048E+02  0.41800000000E+01 0. -1.
         -5    1    4    4    0  501 -0.40637976864E+02 -0.46785759728E+02  0.23521090047E+02  0.66415860711E+02  0.41800000000E+01 0. -1.
</event>
<event>
11    1  0.8479398E-009  0.1347861E+03  0.7561462E-02  0.1113524E+00
         22   -1    0    0    0    0  0.00000000000E+00  0.00000000000E+00  0.30711698349E+03  0.30711698349E+03  0.00000000000E+00 0. -1.
         22   -1    0    0    0    0 -0.00000000000E+00 -0.00000000000E+00 -0.73218243935E+03  0.73218243935E+03  0.00000000000E+00 0. -1.
        -24    2    1    2    0    0  0.41790802658E+02  0.91006281121E+01 -0.66028281912E+03  0.66581584348E+03  0.74216194818E+02 0.  0.
         25    2    1    2    0    0 -0.67094057410E+02  0.31304309337E+02  0.30998147001E+02  0.14862802286E+03  0.12509129361E+03 0.  0.
         24    2    1    2    0    0  0.25303254752E+02 -0.40404937449E+02  0.20421921626E+03  0.22485555650E+03  0.81127796270E+02 0.  0.
        -11    1    5    5    0    0  0.10194316360E+01  0.93258172576E+01 -0.34063475689E+01  0.99806468800E+01  0.00000000000E+00 0.  1.
         12    1    5    5    0    0  0.24283823116E+02 -0.49730754706E+02  0.20762556383E+03  0.21487490962E+03  0.00000000000E+00 0. -1.
         13    1    3    3    0    0  0.31237826747E+02  0.38144106227E+02 -0.51071269721E+03  0.51308696510E+03  0.00000000000E+00 0. -1.
        -14    1    3    3    0    0  0.10552975911E+02 -0.29043478115E+02 -0.14957012191E+03  0.15272887838E+03  0.00000000000E+00 0.  1.
          5    1    4    4  501    0 -0.77297006205E+02 -0.68433100288E+01 -0.23509370481E+02  0.81190029935E+02  0.41800000000E+01 0.  1.
         -5    1    4    4    0  501  0.10202948795E+02  0.38147619366E+02  0.54507517482E+02  0.67437992923E+02  0.41800000000E+01 0.  1.
</event>
<event>
11    1  0.8479398E-009  0.3240289E+03  0.7561462E-02  0.9905050E-01
         22   -1    0    0    0    0  0.00000000000E+00  0.00000000000E+00  0.13523729699E+04  0.13523729699E+04  0.00000000000E+00 0. -1.
         22   -1    0    0    0    0 -0.00000000000E+00 -0.00000000000E+00 -0.54363550682E+03  0.54363550682E+03  0.00000000000E+00 0.  1.
         24    2    1    2    0    0 -0.10053550223E+03  0.10087172361E+03 -0.51125107766E+03  0.53683060116E+03  0.80789467769E+02 0.  0.
         25    2    1    2    0    0  0.18369050133E+02  0.34755929647E+02  0.36300931476E+03  0.38596435418E+03  0.12508926192E+03 0.  0.
        -24    2    1    2    0    0  0.82166452097E+02 -0.13562765326E+03  0.95697922603E+03  0.97321352142E+03  0.78671043199E+02 0.  0.
        -11    1    3    3    0    0 -0.49904534601E+02  0.93426400256E+02 -0.40893948425E+03  0.42243396717E+03  0.00000000000E+00 0.  1.
         12    1    3    3    0    0 -0.50630967630E+02  0.74453233541E+01 -0.10231159341E+03  0.11439663399E+03  0.00000000000E+00 0. -1.
         11    1    5    5    0    0  0.37732148555E+02 -0.12546980557E+03  0.67967023603E+03  0.69218351388E+03  0.00000000000E+00 0. -1.
        -12    1    5    5    0    0  0.44434303543E+02 -0.10157847691E+02  0.27730899000E+03  0.28103000754E+03  0.00000000000E+00 0.  1.
          5    1    4    4  501    0  0.42846113408E+02  0.19185140823E+02  0.40545547239E+02  0.62171318656E+02  0.41800000000E+01 0. -1.
         -5    1    4    4    0  501 -0.24477063275E+02  0.15570788824E+02  0.32246376752E+03  0.32379303552E+03  0.41800000000E+01 0. -1.
</event>
<event>
11    1  0.8479398E-009  0.1720459E+03  0.7561462E-02  0.1076265E+00
         22   -1    0    0    0    0  0.00000000000E+00  0.00000000000E+00  0.24534301018E+04  0.24534301018E+04  0.00000000000E+00 0. -1.
         22   -1    0    0    0    0 -0.00000000000E+00 -0.00000000000E+00 -0.29870280122E+03  0.29870280122E+03  0.00000000000E+00 0.  1.
         24    2    1    2    0    0 -0.43427021522E+02 -0.69961776764E+02 -0.26734320962E+03  0.29118540594E+03  0.80845485296E+02 0.  0.
         25    2    1    2    0    0 -0.72344357371E+02  0.10370546118E+03  0.45247140204E+03  0.48617555195E+03  0.12509104256E+03 0.  0.
        -24    2    1    2    0    0  0.11577137889E+03 -0.33743684418E+02  0.19695991081E+04  0.19747719451E+04  0.76563307417E+02 0.  0.
        -11    1    3    3    0    0 -0.37492810279E+02 -0.33323180363E+02 -0.23973689047E+03  0.24492840142E+03  0.00000000000E+00 0.  1.
         12    1    3    3    0    0 -0.59342112426E+01 -0.36638596401E+02 -0.27606319155E+02  0.46257004514E+02  0.00000000000E+00 0. -1.
         13    1    5    5    0    0  0.86519042517E+02 -0.39301222721E+02  0.18051137149E+04  0.18076132480E+04  0.00000000000E+00 0. -1.
        -14    1    5    5    0    0  0.29252336375E+02  0.55575383037E+01  0.16448539325E+03  0.16715869708E+03  0.00000000000E+00 0.  1.
          5    1    4    4  501    0  0.14686154245E+02 -0.87742832829E+01  0.77353621749E+01  0.19234848625E+02  0.41800000000E+01 0. -1.
         -5    1    4    4    0  501 -0.87030511616E+02  0.11247974446E+03  0.44473603986E+03  0.46694070332E+03  0.41800000000E+01 0. -1.
</event>
<event>
11    1  0.8479398E-009  0.1490459E+03  0.7561462E-02  0.1097858E+00
         22   -1    0    0    0    0  0.00000000000E+00  0.00000000000E+00  0.15642668742E+04  0.15642668742E+04  0.00000000000E+00 0. -1.
         22   -1    0    0    0    0 -0.00000000000E+00 -0.00000000000E+00 -0.67179252811E+02  0.67179252811E+02  0.00000000000E+00 0. -1.
         24    2    1    2    0    0  0.71807925324E+02 -0.10070933212E+02  0.22172116597E+02  0.11068884841E+03  0.80638803150E+02 0.  0.
         25    2    1    2    0    0 -0.48447422956E+02  0.88565597030E+02  0.30208213261E+03  0.34218685704E+03  0.12508881853E+03 0.  0.
        -24    2    1    2    0    0 -0.23360502369E+02 -0.78494663818E+02  0.11728333722E+04  0.11785704215E+04  0.82358936033E+02 0.  0.
        -13    1    3    3    0    0  0.62468184546E+02  0.13217188428E+02  0.43908865740E+02  0.77491655299E+02  0.00000000000E+00 0.  1.
         14    1    3    3    0    0  0.93397407790E+01 -0.23288121639E+02 -0.21736749144E+02  0.33197193114E+02  0.00000000000E+00 0. -1.
         13    1    5    5    0    0 -0.28061244201E+02 -0.89728584657E+02  0.11335698114E+04  0.11374617222E+04  0.00000000000E+00 0. -1.
        -14    1    5    5    0    0  0.47007418320E+01  0.11233920839E+02  0.39263560820E+02  0.41108699316E+02  0.00000000000E+00 0.  1.
          5    1    4    4  501    0  0.19848240002E+02  0.32441823546E+02  0.21375966503E+03  0.21715683582E+03  0.41800000000E+01 0.  1.
         -5    1    4    4    0  501 -0.68295662958E+02  0.56123773483E+02  0.88322467575E+02  0.12503002122E+03  0.41800000000E+01 0.  1.
</event>
<event>
11    1  0.8479398E-009  0.1698138E+03  0.7561462E-02  0.1078194E+00
         22   -1    0    0    0    0  0.00000000000E+00  0.00000000000E+00  0.17377532159E+04  0.17377532159E+04  0.00000000000E+00 0.  1.
         22   -1    0    0    0    0 -0.00000000000E+00 -0.00000000000E+00 -0.38340659437E+03  0.38340659437E+03  0.00000000000E+00 0. -1.
        -24    2    1    2    0    0  0.43400550746E+02  0.39356892478E+02 -0.34442708667E+03  0.35847653597E+03  0.80267278610E+02 0.  0.
         25    2    1    2    0    0 -0.53836781530E+02  0.78623682574E+02  0.18742237372E+03  0.24465119581E+03  0.12508788483E+03 0.  0.
         24    2    1    2    0    0  0.10436230784E+02 -0.11798057505E+03  0.15113513345E+04  0.15180320785E+04  0.78804848164E+02 0.  0.
        -11    1    5    5    0    0  0.22447475282E+02 -0.11642238667E+03  0.10760979611E+04  0.10826102175E+04  0.00000000000E+00 0.  1.
         12    1    5    5    0    0 -0.12011244498E+02 -0.15581883777E+01  0.43525337339E+03  0.43542186095E+03  0.00000000000E+00 0. -1.
         11    1    3    3    0    0  0.30015691491E+02  0.10890079111E+02 -0.31077731120E+03  0.31241330432E+03  0.00000000000E+00 0. -1.
        -12    1    3    3    0    0  0.13384859256E+02  0.28466813367E+02 -0.33649775468E+02  0.46063231645E+02  0.00000000000E+00 0.  1.
          5    1    4    4  501    0  0.78992058450E+01  0.21430519960E+02  0.15113625772E+03  0.15290946811E+03  0.41800000000E+01 0.  1.
         -5    1    4    4    0  501 -0.61735987375E+02  0.57193162614E+02  0.36286115999E+02  0.91741727700E+02  0.41800000000E+01 0.  1.
</event>
<event>
11    1  0.8479398E-009  0.1256718E+03  0.7561462E-02  0.1124704E+00
         22   -1    0    0    0    0  0.00000000000E+00  0.00000000000E+00  0.41383053292E+03  0.41383053292E+03  0.00000000000E+00 0.  1.
         22   -1    0    0    0    0 -0.00000000000E+00 -0.00000000000E+00 -0.26932885623E+03  0.26932885623E+03  0.00000000000E+00 0.  1.
        -24    2    1    2    0    0  0.35040454793E+01 -0.98861018477E+01 -0.20128715670E+03  0.22270542160E+03  0.94716271107E+02 0.  0.
         25    2    1    2    0    0 -0.37874082747E+02  0.39886031999E+01  0.31643796053E+02  0.13455500810E+03  0.12511340966E+03 0.  0.
         24    2    1    2    0    0  0.34370037268E+02  0.58974986478E+01  0.31414503734E+03  0.32589895946E+03  0.79416291387E+02 0.  0.
        -13    1    5    5    0    0 -0.22359907952E+02  0.11534159032E+02  0.53900200035E+02  0.59483055335E+02  0.00000000000E+00 0.  1.
         14    1    5    5    0    0  0.56729945220E+02 -0.56366603842E+01  0.26024483731E+03  0.26641590412E+03  0.00000000000E+00 0. -1.
         13    1    3    3    0    0  0.30117370349E+02 -0.38669572089E+02 -0.68343387649E+02  0.84102380690E+02  0.00000000000E+00 0. -1.
        -14    1    3    3    0    0 -0.26613324870E+02  0.28783470241E+02 -0.13294376905E+03  0.13860304091E+03  0.00000000000E+00 0.  1.
          5    1    4    4  501    0 -0.99618593354E+01  0.42172834058E+02  0.63778772578E+02  0.77220404074E+02  0.41800000000E+01 0. -1.
         -5    1    4    4    0  501 -0.27912223412E+02 -0.38184230858E+02 -0.32134976525E+02  0.57334604022E+02  0.41800000000E+01 0. -1.
</event>
<event>
11    1  0.8479398E-009  0.1325128E+03  0.7561462E-02  0.1116220E+00
         22   -1    0    0    0    0  0.00000000000E+00  0.00000000000E+00  0.93468738696E+03  0.93468738696E+03  0.00000000000E+00 0.  1.
         22   -1    0    0    0    0 -0.00000000000E+00 -0.00000000000E+00 -0.76748372070E+03  0.76748372070E+03  0.00000000000E+00 0. -1.
        -24    2    1    2    0    0  0.30414580309E+02 -0.18318537152E+02 -0.54377334851E+03  0.55339475220E+03  0.96414115753E+02 0.  0.
         25    2    1    2    0    0 -0.92015998691E+02  0.24160811461E+02 -0.18754750150E+03  0.24469043354E+03  0.12509458070E+03 0.  0.
         24    2    1    2    0    0  0.61601418382E+02 -0.58422743089E+01  0.89852451627E+03  0.90408592191E+03  0.78715824031E+02 0.  0.
        -11    1    5    5    0    0  0.80316975089E+02 -0.55607498442E+01  0.67649662086E+03  0.68127044297E+03  0.00000000000E+00 0.  1.
         12    1    5    5    0    0 -0.18715556707E+02 -0.28152446471E+00  0.22202789540E+03  0.22281547894E+03  0.00000000000E+00 0. -1.
         11    1    3    3    0    0  0.33267560300E+02 -0.38331895270E+02 -0.51874425996E+03  0.52122132727E+03  0.00000000000E+00 0. -1.
        -12    1    3    3    0    0 -0.28529799911E+01  0.20013358117E+02 -0.25029088547E+02  0.32173424925E+02  0.00000000000E+00 0.  1.
          5    1    4    4  501    0 -0.44674761695E+00 -0.42791380820E+01  0.17388541422E+02  0.18394139799E+02  0.41800000000E+01 0. -1.
         -5    1    4    4    0  501 -0.91569251074E+02  0.28439949543E+02 -0.20493604293E+03  0.22629629374E+03  0.41800000000E+01 0. -1.
</event>
<event>
11    1  0.8479398E-009  0.1878117E+03  0.7561462E-02  0.1063494E+00
         22   -1    0    0    0    0  0.00000000000E+00  0.00000000000E+00  0.18993774882E+04  0.18993774882E+04  0.00000000000E+00 0.  1.
         22   -1    0    0    0    0 -0.00000000000E+00 -0.00000000000E+00 -0.46316299885E+02  0.46316299885E+02  0.00000000000E+00 0.  1.
        -24    2    1    2    0    0  0.19361734045E+02 -0.21583206773E+01  0.29488648325E+02  0.87367980578E+02  0.79900241282E+02 0.  0.
         25    2    1    2    0    0 -0.13247224838E+03 -0.70669150867E+02  0.85219476463E+03  0.87431474182E+03  0.12508926982E+03 0.  0.
         24    2    1    2    0    0  0.11311051433E+03  0.72827471545E+02  0.97137777532E+03  0.98401106565E+03  0.81272171537E+02 0.  0.
        -13    1    5    5    0    0  0.53008927183E+02  0.59586801786E+02  0.75031054566E+03  0.75453724112E+03  0.00000000000E+00 0.  1.
         14    1    5    5    0    0  0.60101587151E+02  0.13240669759E+02  0.22106722966E+03  0.22947382453E+03  0.00000000000E+00 0. -1.
         11    1    3    3    0    0  0.17104888482E+02 -0.22618369767E+02  0.50523092443E+02  0.57937472597E+02  0.00000000000E+00 0. -1.
        -12    1    3    3    0    0  0.22568455634E+01  0.20460049090E+02 -0.21034444118E+02  0.29430507981E+02  0.00000000000E+00 0.  1.
          5    1    4    4  501    0 -0.82174578768E+02 -0.73127384222E+02  0.29561158700E+03  0.31544248047E+03  0.41800000000E+01 0.  1.
         -5    1    4    4    0  501 -0.50297669612E+02  0.24582333549E+01  0.55658317763E+03  0.55887226134E+03  0.41800000000E+01 0.  1.
</event>
<event>
11    1  0.8479398E-009  0.1294630E+03  0.7561462E-02  0.1119931E+00
         22   -1    0    0    0    0  0.00000000000E+00  0.00000000000E+00  0.10759595111E+03  0.10759595111E+03  0.00000000000E+00 0. -1.
         22   -1    0    0    0    0 -0.00000000000E+00 -0.00000000000E+00 -0.18202504238E+04  0.18202504238E+04  0.00000000000E+00 0. -1.
        -24    2    1    2    0    0 -0.29608196018E+02  0.18611233090E+02 -0.16646434895E+04  0.16665418433E+04  0.71419500429E+02 0.  0.
         25    2    1    2    0    0  0.53472628602E+02 -0.33049468089E+02 -0.93031729990E+02  0.16809404715E+03  0.12509642902E+03 0.  0.
         24    2    1    2    0    0 -0.23864432584E+02  0.14438234999E+02  0.45020746869E+02  0.93210484398E+02  0.76703018067E+02 0.  0.
        -13    1    5    5    0    0 -0.13087906215E+02  0.20565451884E+02 -0.17156812416E+02  0.29809181682E+02  0.00000000000E+00 0.  1.
         14    1    5    5    0    0 -0.10776526368E+02 -0.61272168843E+01  0.62177559285E+02  0.63401302715E+02  0.00000000000E+00 0. -1.
         11    1    3    3    0    0 -0.23307770669E+02 -0.15962680015E+02 -0.12759954547E+04  0.12763081367E+04  0.00000000000E+00 0. -1.
        -12    1    3    3    0    0 -0.63004253490E+01  0.34573913105E+02 -0.38864803486E+03  0.39023370668E+03  0.00000000000E+00 0.  1.
          5    1    4    4  501    0  0.36675838586E+02 -0.71140562301E+02 -0.17936146039E+02  0.82129619963E+02  0.41800000000E+01 0. -1.
         -5    1    4    4    0  501  0.16796790015E+02  0.38091094212E+02 -0.75095583951E+02  0.85964427189E+02  0.41800000000E+01 0. -1.
</event>
<event>
11    1  0.8479398E-009  0.1484152E+03  0.7561462E-02  0.1098509E+00
         22   -1    0    0    0    0  0.00000000000E+00  0.00000000000E+00  0.22518073523E+03  0.22518073523E+03  0.00000000000E+00 0.  1.
         22   -1    0    0    0    0 -0.00000000000E+00 -0.00000000000E+00 -0.43191779384E+03  0.43191779384E+03  0.00000000000E+00 0. -1.
         24    2    1    2    0    0  0.65775983038E+02 -0.47782223054E+02 -0.32379246481E+03  0.34377767862E+03  0.82048225268E+02 0.  0.
         25    2    1    2    0    0 -0.41799296043E+02  0.62345838271E+02 -0.24291096452E+02  0.14789100468E+03  0.12508999639E+03 0.  0.
        -24    2    1    2    0    0 -0.23976686995E+02 -0.14563615217E+02  0.14134650265E+03  0.16542984578E+03  0.81247890157E+02 0.  0.
        -11    1    3    3    0    0 -0.14664286061E+02  0.69684881295E+01 -0.27713249056E+02  0.32118924106E+02  0.00000000000E+00 0.  1.
         12    1    3    3    0    0  0.80440269099E+02 -0.54750711184E+02 -0.29607921575E+03  0.31165875452E+03  0.00000000000E+00 0. -1.
         13    1    5    5    0    0 -0.28477087481E+01 -0.80412354618E+01 -0.96170965897E+01  0.12855328066E+02  0.00000000000E+00 0. -1.
        -14    1    5    5    0    0 -0.21128978247E+02 -0.65223797551E+01  0.15096359924E+03  0.15257451771E+03  0.00000000000E+00 0.  1.
          5    1    4    4  501    0 -0.16829673753E+02  0.60996089297E+02 -0.70722344586E+02  0.94988858567E+02  0.41800000000E+01 0.  1.
         -5    1    4    4    0  501 -0.24969622290E+02  0.13497489740E+01  0.46431248134E+02  0.52902146108E+02  0.41800000000E+01 0.  1.
</event>
<event>
11    1  0.8479398E-009  0.4376991E+03  0.7561462E-02  0.9544638E-01
         22   -1    0    0    0    0  0.00000000000E+00  0.00000000000E+00  0.21163487305E+04  0.21163487305E+04  0.00000000000E+00 0.  1.
         22   -1    0    0    0    0 -0.00000000000E+00 -0.00000000000E+00 -0.10094580670E+04  0.10094580670E+04  0.00000000000E+00 0.  1.
         24    2    1    2    0    0 -0.45263469431E+02 -0.90779576680E+02 -0.85600121603E+03  0.86510977252E+03  0.73397026208E+02 0.  0.
         25    2    1    2    0    0 -0.21356542634E+03  0.41073875223E+03  0.34861983082E+03  0.59287556765E+03  0.12509651622E+03 0.  0.
        -24    2    1    2    0    0  0.25882889577E+03 -0.31995917555E+03  0.16142720487E+04  0.16678214573E+04  0.79924307027E+02 0.  0.
        -11    1    3    3    0    0 -0.40470239252E+02 -0.82859515581E+02 -0.46801818588E+03  0.47701631199E+03  0.00000000000E+00 0.  1.
         12    1    3    3    0    0 -0.47932301789E+01 -0.79200610988E+01 -0.38798303015E+03  0.38809346053E+03  0.00000000000E+00 0. -1.
         11    1    5    5    0    0  0.44125356511E+02 -0.16369809733E+02  0.16149853232E+03  0.16821650840E+03  0.00000000000E+00 0. -1.
        -12    1    5    5    0    0  0.21470353926E+03 -0.30358936581E+03  0.14527735164E+04  0.14996049489E+04  0.00000000000E+00 0.  1.
          5    1    4    4  501    0 -0.17562050801E+03  0.23687141031E+03  0.16855312242E+03  0.33967374837E+03  0.41800000000E+01 0.  1.
         -5    1    4    4    0  501 -0.37944918329E+02  0.17386734192E+03  0.18006670840E+03  0.25320181928E+03  0.41800000000E+01 0.  1.
</event>
<event>
11    1  0.9704288E-009  0.1682239E+03  0.7561462E-02  0.1079588E+00
         22   -1    0    0    0    0  0.00000000000E+00  0.00000000000E+00  0.36197588062E+03  0.36197588062E+03  0.00000000000E+00 0.  1.
         22   -1    0    0    0    0 -0.00000000000E+00 -0.00000000000E+00 -0.11013663282E+04  0.11013663282E+04  0.00000000000E+00 0.  1.
        -24    2    1    2    0    0 -0.32453736451E+02 -0.15593805582E+02 -0.86239819506E+03  0.86711832132E+03  0.82868115359E+02 0.  0.
         25    2    1    2    0    0 -0.44387361383E+02  0.98601688075E+02 -0.19121479463E+03  0.25279074356E+03  0.12509009394E+03 0.  0.
         24    2    1    2    0    0  0.76841097834E+02 -0.83007882493E+02  0.31422254209E+03  0.34343314397E+03  0.80097787393E+02 0.  0.
        -11    1    5    5    0    0  0.33311614828E+02 -0.86505314789E+02  0.18306468436E+03  0.20519627635E+03  0.00000000000E+00 0.  1.
         12    1    5    5    0    0  0.43529483006E+02  0.34974322961E+01  0.13115785773E+03  0.13823686762E+03  0.00000000000E+00 0. -1.
         13    1    3    3    0    0  0.13170747444E+02  0.20093732216E+02 -0.11521950953E+03  0.11769775716E+03  0.00000000000E+00 0. -1.
        -14    1    3    3    0    0 -0.45624483895E+02 -0.35687537798E+02 -0.74717868553E+03  0.74942056417E+03  0.00000000000E+00 0.  1.
          5    1    4    4  501    0 -0.47372335429E+02 -0.16127320426E+02 -0.65165409643E+02  0.82269263046E+02  0.41800000000E+01 0. -1.
         -5    1    4    4    0  501  0.29849740460E+01  0.11472900850E+03 -0.12604938499E+03  0.17052148052E+03  0.41800000000E+01 0. -1.
</event>
<event>
11    1  0.8479398E-009  0.1796805E+03  0.7561462E-02  0.1069902E+00
         22   -1    0    0    0    0  0.00000000000E+00  0.00000000000E+00  0.39765342861E+03  0.39765342861E+03  0.00000000000E+00 0. -1.
         22   -1    0    0    0    0 -0.00000000000E+00 -0.00000000000E+00 -0.50872819871E+03  0.50872819871E+03  0.00000000000E+00 0.  1.
        -24    2    1    2    0    0 -0.41867660815E+01 -0.11679446714E+03 -0.23583431199E+03  0.27539787022E+03  0.81041271271E+02 0.  0.
         25    2    1    2    0    0 -0.19434750915E+02  0.23551354908E+03 -0.15957276284E+03  0.31137727636E+03  0.12509196717E+03 0.  0.
         24    2    1    2    0    0  0.23621516996E+02 -0.11871908195E+03  0.28433230472E+03  0.31960648073E+03  0.81555174780E+02 0.  0.
        -11    1    5    5    0    0 -0.11302143958E+01 -0.12103485809E+03  0.23917159184E+03  0.26805552522E+03  0.00000000000E+00 0.  1.
         12    1    5    5    0    0  0.24751731392E+02  0.23157761453E+01  0.45160712879E+02  0.51550955508E+02  0.00000000000E+00 0. -1.
         13    1    3    3    0    0  0.15940972059E+02  0.19465983863E+01 -0.61129304570E+02  0.63203605219E+02  0.00000000000E+00 0. -1.
        -14    1    3    3    0    0 -0.20127738140E+02 -0.11874106552E+03 -0.17470500742E+03  0.21219426500E+03  0.00000000000E+00 0.  1.
          5    1    4    4  501    0 -0.34451817599E+02  0.23622856046E+03 -0.11670953806E+03  0.26576201607E+03  0.41800000000E+01 0.  1.
         -5    1    4    4    0  501  0.15017066684E+02 -0.71501137384E+00 -0.42863224780E+02  0.45615260293E+02  0.41800000000E+01 0.  1.
</event>
<event>
11    1  0.8479398E-009  0.1367776E+03  0.7561462E-02  0.1111211E+00
         22   -1    0    0    0    0  0.00000000000E+00  0.00000000000E+00  0.10439853864E+04  0.10439853864E+04  0.00000000000E+00 0.  1.
         22   -1    0    0    0    0 -0.00000000000E+00 -0.00000000000E+00 -0.10455000377E+04  0.10455000377E+04  0.00000000000E+00 0.  1.
         24    2    1    2    0    0 -0.30293880542E+02 -0.44123205896E+02 -0.94006767689E+03  0.94526309310E+03  0.83249633991E+02 0.  0.
         25    2    1    2    0    0  0.49805128901E+02  0.86173165382E+02 -0.37109663184E+02  0.16410792474E+03  0.12509164066E+03 0.  0.
        -24    2    1    2    0    0 -0.19511248359E+02 -0.42049959487E+02  0.97566268879E+03  0.98011440631E+03  0.80979498893E+02 0.  0.
        -13    1    3    3    0    0 -0.42276851509E+02 -0.31539255151E+02 -0.90055489786E+03  0.90209821020E+03  0.00000000000E+00 0.  1.
         14    1    3    3    0    0  0.11982970967E+02 -0.12583950745E+02 -0.39512779025E+02  0.43164882901E+02  0.00000000000E+00 0. -1.
         13    1    5    5    0    0 -0.44487801755E+02 -0.61730796036E+01  0.34054380253E+03  0.34349287162E+03  0.00000000000E+00 0. -1.
        -14    1    5    5    0    0  0.24976553396E+02 -0.35876879883E+02  0.63511888627E+03  0.63662153468E+03  0.00000000000E+00 0.  1.
          5    1    4    4  501    0  0.14050724092E+02  0.23892032232E+02 -0.76935849166E+02  0.81883144411E+02  0.41800000000E+01 0. -1.
         -5    1    4    4    0  501  0.35754404810E+02  0.62281133150E+02  0.39826185982E+02  0.82224780326E+02  0.41800000000E+01 0. -1.
</event>
<event>
11    1  0.8479398E-009  0.1798130E+03  0.7561462E-02  0.1069794E+00
         22   -1    0    0    0    0  0.00000000000E+00  0.00000000000E+00  0.48423893304E+03  0.48423893304E+03  0.00000000000E+00 0.  1.
         22   -1    0    0    0    0 -0.00000000000E+00 -0.00000000000E+00 -0.11708948388E+04  0.11708948388E+04  0.00000000000E+00 0. -1.
         24    2    1    2    0    0 -0.69063280700E+02 -0.10716179661E+03 -0.99906245333E+03  0.10102924723E+04  0.79446249699E+02 0.  0.
         25    2    1    2    0    0  0.67712177155E+02  0.13046476130E+03 -0.10460654456E+03  0.21953493026E+03  0.12508822312E+03 0.  0.
        -24    2    1    2    0    0  0.13511035446E+01 -0.23302964688E+02  0.41701309209E+03  0.42530636930E+03  0.80254190825E+02 0.  0.
        -13    1    3    3    0    0 -0.29788418184E+02 -0.43868085593E+02 -0.17466552546E+03  0.18253713204E+03  0.00000000000E+00 0.  1.
         14    1    3    3    0    0 -0.39274862516E+02 -0.63293711016E+02 -0.82439692787E+03  0.82775534028E+03  0.00000000000E+00 0. -1.
         13    1    5    5    0    0 -0.14374334302E+02  0.26160445448E+02  0.11203503827E+03  0.11594326282E+03  0.00000000000E+00 0. -1.
        -14    1    5    5    0    0  0.15725437847E+02 -0.49463410136E+02  0.30497805382E+03  0.30936310648E+03  0.00000000000E+00 0.  1.
          5    1    4    4  501    0  0.93220423688E+02  0.46650115372E+02 -0.67763138373E+02  0.12440094846E+03  0.41800000000E+01 0.  1.
         -5    1    4    4    0  501 -0.25508246533E+02  0.83814645924E+02 -0.36843406187E+02  0.95133981794E+02  0.41800000000E+01 0.  1.
</event>
<event>
11    1  0.8479398E-009  0.1973668E+03  0.7561462E-02  0.1056402E+00
         22   -1    0    0    0    0  0.00000000000E+00  0.00000000000E+00  0.38594754278E+03  0.38594754278E+03  0.00000000000E+00 0. -1.
         22   -1    0    0    0    0 -0.00000000000E+00 -0.00000000000E+00 -0.73569107642E+03  0.73569107642E+03  0.00000000000E+00 0. -1.
        -24    2    1    2    0    0 -0.11960831485E+03 -0.87184837667E+02 -0.50441158911E+03  0.53207233937E+03  0.82234896416E+02 0.  0.
         25    2    1    2    0    0  0.17408279210E+03  0.49179202295E+02 -0.15051873612E+03  0.26651247994E+03  0.12509835969E+03 0.  0.
         24    2    1    2    0    0 -0.54474477250E+02  0.38005635372E+02  0.30518679159E+03  0.32305379989E+03  0.82540189407E+02 0.  0.
        -13    1    5    5    0    0 -0.46271551497E+02  0.23078429988E+02  0.68852557999E+02  0.86106591801E+02  0.00000000000E+00 0.  1.
         14    1    5    5    0    0 -0.82029257527E+01  0.14927205385E+02  0.23633423359E+03  0.23694720808E+03  0.00000000000E+00 0. -1.
         11    1    3    3    0    0 -0.76817032431E+02 -0.45640715859E+02 -0.41557651872E+03  0.42507384574E+03  0.00000000000E+00 0. -1.
        -12    1    3    3    0    0 -0.42791282423E+02 -0.41544121809E+02 -0.88835070389E+02  0.10699849363E+03  0.00000000000E+00 0.  1.
          5    1    4    4  501    0  0.34471536834E+02  0.62637100878E+02 -0.86436307149E+02  0.11225150712E+03  0.41800000000E+01 0. -1.
         -5    1    4    4    0  501  0.13961125527E+03 -0.13457898583E+02 -0.64082428974E+02  0.15426097282E+03  0.41800000000E+01 0. -1.
</event>
<event>
11    1  0.8479398E-009  0.1428672E+03  0.7561462E-02  0.1104398E+00
         22   -1    0    0    0    0  0.00000000000E+00  0.00000000000E+00  0.32682395881E+03  0.32682395881E+03  0.00000000000E+00 0.  1.
         22   -1    0    0    0    0 -0.00000000000E+00 -0.00000000000E+00 -0.16100476792E+03  0.16100476792E+03  0.00000000000E+00 0. -1.
         24    2    1    2    0    0  0.54478584993E+02 -0.23550610609E+02 -0.62287242988E+02  0.11852529776E+03  0.81522991150E+02 0.  0.
         25    2    1    2    0    0 -0.10553399006E+03  0.34518922776E+02  0.63558709960E+02  0.17893016785E+03  0.12508923322E+03 0.  0.
        -24    2    1    2    0    0  0.51055405064E+02 -0.10968312167E+02  0.16454772392E+03  0.19037326112E+03  0.80243796291E+02 0.  0.
        -11    1    3    3    0    0 -0.17952824189E+02  0.10500435837E+02 -0.13323041622E+02  0.24699524027E+02  0.00000000000E+00 0.  1.
         12    1    3    3    0    0  0.72431409182E+02 -0.34051046446E+02 -0.48964201366E+02  0.93825773728E+02  0.00000000000E+00 0. -1.
         13    1    5    5    0    0  0.19235179788E+02 -0.82709565173E+00 -0.30388842939E+01  0.19491306945E+02  0.00000000000E+00 0. -1.
        -14    1    5    5    0    0  0.31820225276E+02 -0.10141216515E+02  0.16758660821E+03  0.17088195417E+03  0.00000000000E+00 0.  1.
          5    1    4    4  501    0 -0.56661878924E+02  0.22719779807E+02  0.99623843182E+02  0.11691509504E+03  0.41800000000E+01 0.  1.
         -5    1    4    4    0  501 -0.48872111133E+02  0.11799142969E+02 -0.36065133222E+02  0.62015072811E+02  0.41800000000E+01 0.  1.
</event>
<event>
11    1  0.8479398E-009  0.2164312E+03  0.7561462E-02  0.1043476E+00
         22   -1    0    0    0    0  0.00000000000E+00  0.00000000000E+00  0.16075224907E+03  0.16075224907E+03  0.00000000000E+00 0. -1.
         22   -1    0    0    0    0 -0.00000000000E+00 -0.00000000000E+00 -0.23187639959E+04  0.23187639959E+04  0.00000000000E+00 0. -1.
        -24    2    1    2    0    0  0.19204036118E+03  0.64350757927E+02 -0.12764647293E+04  0.12949158326E+04  0.80151655288E+02 0.  0.
         25    2    1    2    0    0 -0.14136934880E+03 -0.50844352084E+02 -0.10068147971E+04  0.10256186274E+04  0.12508833761E+03 0.  0.
         24    2    1    2    0    0 -0.50671012378E+02 -0.13506405842E+02  0.12526777956E+03  0.15898178508E+03  0.82663274164E+02 0.  0.
        -11    1    5    5    0    0 -0.12579661658E+02  0.27954227629E+02  0.12821513370E+02  0.33227668213E+02  0.00000000000E+00 0.  1.
         12    1    5    5    0    0 -0.38091350720E+02 -0.41460633472E+02  0.11244626619E+03  0.12575411686E+03  0.00000000000E+00 0. -1.
         11    1    3    3    0    0  0.15031665600E+03  0.80945299654E+02 -0.10779581918E+04  0.10913941093E+04  0.00000000000E+00 0. -1.
        -12    1    3    3    0    0  0.41723705176E+02 -0.16594541727E+02 -0.19850653759E+03  0.20352172330E+03  0.00000000000E+00 0.  1.
          5    1    4    4  501    0 -0.31320198243E+01 -0.45272854411E+02 -0.12586397314E+03  0.13386057309E+03  0.41800000000E+01 0. -1.
         -5    1    4    4    0  501 -0.13823732898E+03 -0.55714976732E+01 -0.88095082396E+03  0.89175805427E+03  0.41800000000E+01 0. -1.
</event>
<event>
11    1  0.8479398E-009  0.1571141E+03  0.7561462E-02  0.1089823E+00
         22   -1    0    0    0    0  0.00000000000E+00  0.00000000000E+00  0.21781264155E+04  0.21781264155E+04  0.00000000000E+00 0.  1.
         22   -1    0    0    0    0 -0.00000000000E+00 -0.00000000000E+00 -0.18698049854E+04  0.18698049854E+04  0.00000000000E+00 0. -1.
        -24    2    1    2    0    0  0.10518082454E+02 -0.29310222859E+02 -0.18405113170E+04  0.18432460432E+04  0.95416710044E+02 0.  0.
         25    2    1    2    0    0  0.37150769439E+01  0.12144116440E+03  0.26590729659E+03  0.31798302853E+03  0.12507900643E+03 0.  0.
         24    2    1    2    0    0 -0.14233159398E+02 -0.92130941539E+02  0.18829254505E+04  0.18867023291E+04  0.74476392785E+02 0.  0.
        -13    1    5    5    0    0  0.25380343840E+02 -0.38558674147E+02  0.10920869558E+04  0.10930621447E+04  0.00000000000E+00 0.  1.
         14    1    5    5    0    0 -0.39613503237E+02 -0.53572267392E+02  0.79083849479E+03  0.79364018441E+03  0.00000000000E+00 0. -1.
         11    1    3    3    0    0 -0.34653449437E+02  0.12602666406E+02 -0.52577806843E+03  0.52706950776E+03  0.00000000000E+00 0. -1.
        -12    1    3    3    0    0  0.45171531891E+02 -0.41912889265E+02 -0.13147332486E+04  0.13161765355E+04  0.00000000000E+00 0.  1.
          5    1    4    4  501    0 -0.44405297952E+02  0.41470405619E+02  0.18372165427E+03  0.19355294799E+03  0.41800000000E+01 0. -1.
         -5    1    4    4    0  501  0.48120374896E+02  0.79970758778E+02  0.82185642313E+02  0.12443008054E+03  0.41800000000E+01 0. -1.
</event>
<event>
11    1  0.8479398E-009  0.1598219E+03  0.7561462E-02  0.1087245E+00
         22   -1    0    0    0    0  0.00000000000E+00  0.00000000000E+00  0.31633824918E+03  0.31633824918E+03  0.00000000000E+00 0. -1.
         22   -1    0    0    0    0 -0.00000000000E+00 -0.00000000000E+00 -0.12562769470E+04  0.12562769470E+04  0.00000000000E+00 0. -1.
         24    2    1    2    0    0  0.17197289446E+02  0.96215500878E+02 -0.92824232948E+03  0.93694549277E+03  0.81730439909E+02 0.  0.
         25    2    1    2    0    0  0.38620417886E+02 -0.11507216398E+03 -0.29111459555E+03  0.33930532992E+03  0.12508900658E+03 0.  0.
        -24    2    1    2    0    0 -0.55817707332E+02  0.18856663104E+02  0.27941822726E+03  0.29636437345E+03  0.79284966621E+02 0.  0.
        -11    1    3    3    0    0 -0.14225203975E+02  0.69314930170E+02 -0.34187292769E+03  0.34911891192E+03  0.00000000000E+00 0.  1.
         12    1    3    3    0    0  0.31422493421E+02  0.26900570708E+02 -0.58636940179E+03  0.58782658085E+03  0.00000000000E+00 0. -1.
         11    1    5    5    0    0 -0.57824562597E+02  0.41763284612E+02  0.24336269449E+03  0.25360057779E+03  0.00000000000E+00 0. -1.
        -12    1    5    5    0    0  0.20068552649E+01 -0.22906621508E+02  0.36055532762E+02  0.42763795665E+02  0.00000000000E+00 0.  1.
          5    1    4    4  501    0  0.27279575467E+02  0.18497277282E+02 -0.10337383748E+03  0.10858152320E+03  0.41800000000E+01 0.  1.
         -5    1    4    4    0  501  0.11340842419E+02 -0.13356944126E+03 -0.18774075807E+03  0.23072380672E+03  0.41800000000E+01 0.  1.
</event>
<event>
11    1  0.8479398E-009  0.1328641E+03  0.7561462E-02  0.1115799E+00
         22   -1    0    0    0    0  0.00000000000E+00  0.00000000000E+00  0.29691182335E+04  0.29691182335E+04  0.00000000000E+00 0.  1.
         22   -1    0    0    0    0 -0.00000000000E+00 -0.00000000000E+00 -0.86209964001E+03  0.86209964001E+03  0.00000000000E+00 0.  1.
        -24    2    1    2    0    0  0.11752448966E+02  0.12959362030E+02 -0.85543770073E+03  0.85891535598E+03  0.75205477113E+02 0.  0.
         25    2    1    2    0    0  0.30588468645E+02 -0.30970105913E+02  0.11808398323E+04  0.11882446869E+04  0.12509166464E+03 0.  0.
         24    2    1    2    0    0 -0.42340917611E+02  0.18010743883E+02  0.17816164619E+04  0.17840578307E+04  0.81166405900E+02 0.  0.
        -13    1    5    5    0    0 -0.35448817696E+02  0.24806792994E+02  0.17580331360E+04  0.17585654673E+04  0.00000000000E+00 0.  1.
         14    1    5    5    0    0 -0.68920999149E+01 -0.67960491103E+01  0.23583325980E+02  0.25492363347E+02  0.00000000000E+00 0. -1.
         13    1    3    3    0    0  0.22966725754E+02 -0.74076269569E+00 -0.78955040201E+02  0.82230879810E+02  0.00000000000E+00 0. -1.
        -14    1    3    3    0    0 -0.11214276789E+02  0.13700124725E+02 -0.77648266053E+03  0.77668447617E+03  0.00000000000E+00 0.  1.
          5    1    4    4  501    0  0.22544648665E+02 -0.79666866000E+02  0.73054114376E+03  0.73522983199E+03  0.41800000000E+01 0.  1.
         -5    1    4    4    0  501  0.80438199808E+01  0.48696760087E+02  0.45029868855E+03  0.45301485494E+03  0.41800000000E+01 0.  1.
</event>
<event>
11    1  0.1637742E-008  0.1808395E+03  0.7561462E-02  0.1068966E+00
         22   -1    0    0    0    0  0.00000000000E+00  0.00000000000E+00  0.60208031079E+03  0.60208031079E+03  0.00000000000E+00 0. -1.
         22   -1    0    0    0    0 -0.00000000000E+00 -0.00000000000E+00 -0.11296414878E+04  0.11296414878E+04  0.00000000000E+00 0.  1.
         24    2    1    2    0    0 -0.89804985139E+02  0.28413386651E+02 -0.82379775052E+03  0.83324320411E+03  0.82336186114E+02 0.  0.
         25    2    1    2    0    0  0.19683296591E+02  0.84683852675E+02 -0.27066404268E+03  0.31058794897E+03  0.12508822077E+03 0.  0.
        -24    2    1    2    0    0  0.70121688548E+02 -0.11309723933E+03  0.56690061620E+03  0.58789064549E+03  0.80815008869E+02 0.  0.
        -11    1    3    3    0    0 -0.89157351501E+02  0.47136960768E+02 -0.76266537028E+03  0.76930448681E+03  0.00000000000E+00 0.  1.
         12    1    3    3    0    0 -0.64763363797E+00 -0.18723574118E+02 -0.61132380239E+02  0.63938717306E+02  0.00000000000E+00 0. -1.
         13    1    5    5    0    0  0.41625469533E+02 -0.99307798723E+02  0.52176266720E+03  0.53275791827E+03  0.00000000000E+00 0. -1.
        -14    1    5    5    0    0  0.28496219015E+02 -0.13789440603E+02  0.45137949004E+02  0.55132727219E+02  0.00000000000E+00 0.  1.
          5    1    4    4  501    0 -0.13206418751E+02  0.86293424049E+02 -0.26212864252E+03  0.27631478817E+03  0.41800000000E+01 0. -1.
         -5    1    4    4    0  501  0.32889715342E+02 -0.16095713736E+01 -0.85354001585E+01  0.34273160799E+02  0.41800000000E+01 0. -1.
</event>
<event>
11    1  0.8479398E-009  0.1430571E+03  0.7561462E-02  0.1104192E+00
         22   -1    0    0    0    0  0.00000000000E+00  0.00000000000E+00  0.89073544163E+03  0.89073544163E+03  0.00000000000E+00 0. -1.
         22   -1    0    0    0    0 -0.00000000000E+00 -0.00000000000E+00 -0.48316928259E+03  0.48316928259E+03  0.00000000000E+00 0.  1.
        -24    2    1    2    0    0  0.36572185710E+02  0.30843559080E+02 -0.37694532951E+03  0.38827700193E+03  0.79889917301E+02 0.  0.
         25    2    1    2    0    0  0.33992026602E+02 -0.27396739419E+02 -0.52166906280E+02  0.14238835860E+03  0.12508804639E+03 0.  0.
         24    2    1    2    0    0 -0.70564212313E+02 -0.34468196605E+01  0.83667839484E+03  0.84323936369E+03  0.77657578254E+02 0.  0.
        -13    1    5    5    0    0  0.70908495520E+01  0.73222621071E+01  0.17009401467E+02  0.19829659806E+02  0.00000000000E+00 0.  1.
         14    1    5    5    0    0 -0.77655061865E+02 -0.10769081768E+02  0.81966899337E+03  0.82340970388E+03  0.00000000000E+00 0. -1.
         13    1    3    3    0    0 -0.78615821028E+01 -0.21515958810E+02 -0.12799915574E+03  0.13003278366E+03  0.00000000000E+00 0. -1.
        -14    1    3    3    0    0  0.44433767813E+02  0.52359517890E+02 -0.24894617377E+03  0.25824421827E+03  0.00000000000E+00 0.  1.
          5    1    4    4  501    0  0.29858490130E+02  0.45976414595E+02 -0.55488378306E+01  0.55259588608E+02  0.41800000000E+01 0. -1.
         -5    1    4    4    0  501  0.41335364721E+01 -0.73373154014E+02 -0.46618068450E+02  0.87128769989E+02  0.41800000000E+01 0. -1.
</event>
<event>
11    1  0.8479398E-009  0.2360876E+03  0.7561462E-02  0.1031583E+00
         22   -1    0    0    0    0  0.00000000000E+00  0.00000000000E+00  0.19978126653E+03  0.19978126653E+03  0.00000000000E+00 0. -1.
         22   -1    0    0    0    0 -0.00000000000E+00 -0.00000000000E+00 -0.11220091131E+04  0.11220091131E+04  0.00000000000E+00 0.  1.
        -24    2    1    2    0    0  0.10192415722E+03 -0.14994884347E+03 -0.59766372541E+03  0.63328354158E+03  0.10475173451E+03 0.  0.
         25    2    1    2    0    0 -0.19189509752E+03  0.15922453766E+03 -0.44012106853E+03  0.52108519367E+03  0.12508813792E+03 0.  0.
         24    2    1    2    0    0  0.89970940304E+02 -0.92756941923E+01  0.11555694735E+03  0.16742164440E+03  0.80596465991E+02 0.  0.
        -13    1    5    5    0    0  0.19955781464E+02 -0.10366742733E+00 -0.10786211622E+02  0.22684495188E+02  0.00000000000E+00 0.  1.
         14    1    5    5    0    0  0.70015158840E+02 -0.91720267650E+01  0.12634315898E+03  0.14473714921E+03  0.00000000000E+00 0. -1.
         13    1    3    3    0    0  0.68101358994E+02 -0.16751453809E+02 -0.16399100175E+03  0.17835766022E+03  0.00000000000E+00 0. -1.
        -14    1    3    3    0    0  0.33822798224E+02 -0.13319738966E+03 -0.43367272366E+03  0.45492588137E+03  0.00000000000E+00 0.  1.
          5    1    4    4  501    0 -0.16686937211E+03  0.10029573504E+03 -0.40140989135E+03  0.44615243481E+03  0.41800000000E+01 0.  1.
         -5    1    4    4    0  501 -0.25025725414E+02  0.58928802623E+02 -0.38711177180E+02  0.74932758855E+02  0.41800000000E+01 0.  1.
</event>
<event>
11    1  0.8479398E-009  0.1438363E+03  0.7561462E-02  0.1103349E+00
         22   -1    0    0    0    0  0.00000000000E+00  0.00000000000E+00  0.29824595566E+04  0.29824595566E+04  0.00000000000E+00 0. -1.
         22   -1    0    0    0    0 -0.00000000000E+00 -0.00000000000E+00 -0.14899712520E+03  0.14899712520E+03  0.00000000000E+00 0.  1.
        -24    2    1    2    0    0 -0.50156163714E+02 -0.15663694737E+02 -0.11971505340E+03  0.15251497347E+03  0.78537449854E+02 0.  0.
         25    2    1    2    0    0 -0.23515510235E+02  0.29360471818E+02  0.35034730369E+03  0.37390799570E+03  0.12509572142E+03 0.  0.
         24    2    1    2    0    0  0.73671673949E+02 -0.13696777081E+02  0.26028301811E+04  0.26050337126E+04  0.76554392420E+02 0.  0.
        -11    1    5    5    0    0  0.28998470190E+02 -0.35317388729E+02  0.66507633422E+03  0.66664440263E+03  0.00000000000E+00 0.  1.
         12    1    5    5    0    0  0.44673203759E+02  0.21620611648E+02  0.19377538469E+04  0.19383893100E+04  0.00000000000E+00 0. -1.
         13    1    3    3    0    0 -0.16767142574E+02 -0.28260106060E+02 -0.60921880907E+01  0.33419835732E+02  0.00000000000E+00 0. -1.
        -14    1    3    3    0    0 -0.33389021140E+02  0.12596411323E+02 -0.11362286531E+03  0.11909513774E+03  0.00000000000E+00 0.  1.
          5    1    4    4  501    0 -0.21608517920E+02  0.61326936606E+02  0.87555169942E+02  0.10913890866E+03  0.41800000000E+01 0. -1.
         -5    1    4    4    0  501 -0.19069923151E+01 -0.31966464788E+02  0.26279213375E+03  0.26476908704E+03  0.41800000000E+01 0. -1.
</event>
<event>
11    1  0.8479398E-009  0.2351354E+03  0.7561462E-02  0.1032130E+00
         22   -1    0    0    0    0  0.00000000000E+00  0.00000000000E+00  0.29173779087E+04  0.29173779087E+04  0.00000000000E+00 0. -1.
         22   -1    0    0    0    0 -0.00000000000E+00 -0.00000000000E+00 -0.48068542331E+02  0.48068542331E+02  0.00000000000E+00 0.  1.
        -24    2    1    2    0    0 -0.10109684431E+03  0.15970363802E+03  0.30549764254E+03  0.36843182936E+03  0.81776398554E+02 0.  0.
         25    2    1    2    0    0  0.19421476989E+03 -0.16529857796E+03  0.15568766926E+04  0.15825788665E+04  0.12509131112E+03 0.  0.
         24    2    1    2    0    0 -0.93117925580E+02  0.55949399409E+01  0.10069350312E+04  0.10144357552E+04  0.80370969710E+02 0.  0.
        -13    1    5    5    0    0 -0.72280129845E+02 -0.77919110682E+00  0.36272793635E+03  0.36986021700E+03  0.00000000000E+00 0.  1.
         14    1    5    5    0    0 -0.20837795735E+02  0.63741310477E+01  0.64420709489E+03  0.64457553815E+03  0.00000000000E+00 0. -1.
         13    1    3    3    0    0 -0.59962965637E+02  0.44741383903E+02  0.17172426011E+03  0.18731409502E+03  0.00000000000E+00 0. -1.
        -14    1    3    3    0    0 -0.41133878672E+02  0.11496225412E+03  0.13377338243E+03  0.18111773435E+03  0.00000000000E+00 0.  1.
          5    1    4    4  501    0  0.19490218359E+02 -0.60957034480E+02  0.18770171930E+03  0.19835583302E+03  0.41800000000E+01 0. -1.
         -5    1    4    4    0  501  0.17472455153E+03 -0.10434154348E+03  0.13691749733E+04  0.13842230335E+04  0.41800000000E+01 0. -1.
</event>
<event>
11    1  0.8479398E-009  0.1639627E+03  0.7561462E-02  0.1083408E+00
         22   -1    0    0    0    0  0.00000000000E+00  0.00000000000E+00  0.55673639746E+03  0.55673639746E+03  0.00000000000E+00 0. -1.
         22   -1    0    0    0    0 -0.00000000000E+00 -0.00000000000E+00 -0.54551762823E+03  0.54551762823E+03  0.00000000000E+00 0. -1.
         24    2    1    2    0    0 -0.65479159337E+02  0.95870746026E+02 -0.42432304123E+03  0.44717263950E+03  0.80215995585E+02 0.  0.
         25    2    1    2    0    0  0.33722390469E+02 -0.54942284131E+02 -0.58020055995E+02  0.15221339644E+03  0.12508691759E+03 0.  0.
        -24    2    1    2    0    0  0.31756768868E+02 -0.40928461895E+02  0.49356186645E+03  0.50286798975E+03  0.81174304682E+02 0.  0.
        -13    1    3    3    0    0  0.12742888733E+02 -0.45898055311E+00 -0.83393049700E+02  0.84362270090E+02  0.00000000000E+00 0.  1.
         14    1    3    3    0    0 -0.78222048070E+02  0.96329726579E+02 -0.34092999153E+03  0.36281036941E+03  0.00000000000E+00 0. -1.
         13    1    5    5    0    0  0.57270310352E+02 -0.37443454020E+02  0.30668778363E+03  0.31422809760E+03  0.00000000000E+00 0. -1.
        -14    1    5    5    0    0 -0.25513541484E+02 -0.34850078748E+01  0.18687408282E+03  0.18863989215E+03  0.00000000000E+00 0.  1.
          5    1    4    4  501    0  0.36498238238E+02 -0.93685446172E+02 -0.33367549358E+02  0.10601863029E+03  0.41800000000E+01 0.  1.
         -5    1    4    4    0  501 -0.27758477685E+01  0.38743162041E+02 -0.24652506637E+02  0.46194766146E+02  0.41800000000E+01 0.  1.
</event>
<event>
11    1  0.8479398E-009  0.1463772E+03  0.7561462E-02  0.1100639E+00
         22   -1    0    0    0    0  0.00000000000E+00  0.00000000000E+00  0.15194788905E+04  0.15194788905E+04  0.00000000000E+00 0. -1.
         22   -1    0    0    0    0 -0.00000000000E+00 -0.00000000000E+00 -0.37495049995E+02  0.37495049995E+02  0.00000000000E+00 0.  1.
        -24    2    1    2    0    0  0.28876920792E+02  0.20602541072E+02  0.76251742765E+02  0.11640797927E+03  0.80486943727E+02 0.  0.
         25    2    1    2    0    0  0.25494012457E+01  0.53825233471E+02  0.30231631385E+03  0.33158145626E+03  0.12508978100E+03 0.  0.
         24    2    1    2    0    0 -0.31426322038E+02 -0.74427774543E+02  0.11034157839E+04  0.11089845050E+04  0.76112632168E+02 0.  0.
        -13    1    5    5    0    0  0.97999499681E+01  0.13476004755E+01  0.42384799331E+03  0.42396341408E+03  0.00000000000E+00 0.  1.
         14    1    5    5    0    0 -0.41226272006E+02 -0.75775375018E+02  0.67956779062E+03  0.68502109092E+03  0.00000000000E+00 0. -1.
         13    1    3    3    0    0  0.50320348238E+02  0.35729056522E+02  0.53732609334E+02  0.81828456129E+02  0.00000000000E+00 0. -1.
        -14    1    3    3    0    0 -0.21443427446E+02 -0.15126515450E+02  0.22519133431E+02  0.34579523143E+02  0.00000000000E+00 0.  1.
          5    1    4    4  501    0  0.35174581646E+02  0.76533970581E+02  0.13201720233E+03  0.15665476040E+03  0.41800000000E+01 0.  1.
         -5    1    4    4    0  501 -0.32625180400E+02 -0.22708737109E+02  0.17029911152E+03  0.17492669586E+03  0.41800000000E+01 0.  1.
</event>
<event>
11    1  0.8479398E-009  0.1329995E+03  0.7561462E-02  0.1115638E+00
         22   -1    0    0    0    0  0.00000000000E+00  0.00000000000E+00  0.25624284756E+03  0.25624284756E+03  0.00000000000E+00 0.  1.
         22   -1    0    0    0    0 -0.00000000000E+00 -0.00000000000E+00 -0.10297243812E+04  0.10297243812E+04  0.00000000000E+00 0.  1.
         24    2    1    2    0    0  0.29315732577E+02  0.57288404853E+01 -0.92814004422E+03  0.93122955820E+03  0.69658571481E+02 0.  0.
         25    2    1    2    0    0 -0.12054278159E+02 -0.47996963091E+02 -0.39964088292E+02  0.14033501263E+03  0.12509106014E+03 0.  0.
        -24    2    1    2    0    0 -0.17261454418E+02  0.42268122605E+02  0.19462259893E+03  0.21440265789E+03  0.77498333526E+02 0.  0.
        -11    1    3    3    0    0  0.47421257267E+02 -0.91373955632E+01 -0.75038173511E+03  0.75193418331E+03  0.00000000000E+00 0.  1.
         12    1    3    3    0    0 -0.18105524690E+02  0.14866236048E+02 -0.17775830911E+03  0.17929537489E+03  0.00000000000E+00 0. -1.
         13    1    5    5    0    0  0.14202054153E+02  0.25846163184E+02  0.18664954432E+02  0.34901332603E+02  0.00000000000E+00 0. -1.
        -14    1    5    5    0    0 -0.31463508572E+02  0.16421959421E+02  0.17595764450E+03  0.17950132529E+03  0.00000000000E+00 0.  1.
          5    1    4    4  501    0  0.47628129133E+02  0.89122630319E+01 -0.30051557845E+02  0.57170233916E+02  0.41800000000E+01 0. -1.
         -5    1    4    4    0  501 -0.59682407292E+02 -0.56909226122E+02 -0.99125304465E+01  0.83164778710E+02  0.41800000000E+01 0. -1.
</event>
<event>
11    1  0.8479398E-009  0.4077874E+03  0.7561462E-02  0.9627056E-01
         22   -1    0    0    0    0  0.00000000000E+00  0.00000000000E+00  0.12976325910E+04  0.12976325910E+04  0.00000000000E+00 0.  1.
         22   -1    0    0    0    0 -0.00000000000E+00 -0.00000000000E+00 -0.69223446214E+03  0.69223446214E+03  0.00000000000E+00 0. -1.
        -24    2    1    2    0    0 -0.11076029469E+02  0.47535893278E+02 -0.40302879009E+03  0.41384697737E+03  0.80341617208E+02 0.  0.
         25    2    1    2    0    0  0.57567730001E+02  0.34347437753E+03 -0.11136813738E+03  0.38644429523E+03  0.12509052616E+03 0.  0.
         24    2    1    2    0    0 -0.46491700531E+02 -0.39101027081E+03  0.11197950564E+04  0.11895757806E+04  0.78096474979E+02 0.  0.
        -11    1    5    5    0    0 -0.50993355585E+02 -0.38536311707E+03  0.11152235355E+04  0.11810286146E+04  0.00000000000E+00 0.  1.
         12    1    5    5    0    0  0.45016550536E+01 -0.56471537399E+01  0.45715208300E+01  0.85471659796E+01  0.00000000000E+00 0. -1.
         11    1    3    3    0    0 -0.41883674693E+02  0.42744456187E+02 -0.31026961464E+03  0.31598823476E+03  0.00000000000E+00 0. -1.
        -12    1    3    3    0    0  0.30807645224E+02  0.47914370906E+01 -0.92759175453E+02  0.97858742606E+02  0.00000000000E+00 0.  1.
          5    1    4    4  501    0 -0.37006015220E+02  0.11696931954E+03 -0.55274835327E+02  0.13462557965E+03  0.41800000000E+01 0. -1.
         -5    1    4    4    0  501  0.94573745220E+02  0.22650505799E+03 -0.56093302056E+02  0.25181871558E+03  0.41800000000E+01 0. -1.
</event>
<event>
11    1  0.8479398E-009  0.1449785E+03  0.7561462E-02  0.1102123E+00
         22   -1    0    0    0    0  0.00000000000E+00  0.00000000000E+00  0.62486155693E+03  0.62486155693E+03  0.00000000000E+00 0.  1.
         22   -1    0    0    0    0 -0.00000000000E+00 -0.00000000000E+00 -0.86875982363E+03  0.86875982363E+03  0.00000000000E+00 0.  1.
         24    2    1    2    0    0 -0.69567413052E+02  0.38734669319E+02 -0.57842519307E+03  0.58897279968E+03  0.77286837322E+02 0.  0.
         25    2    1    2    0    0  0.54251212647E+02 -0.11374338772E+02 -0.26577509792E+03  0.29892549569E+03  0.12508988626E+03 0.  0.
        -24    2    1    2    0    0  0.15316200405E+02 -0.27360330547E+02  0.60030202428E+03  0.60572308518E+03  0.74530274932E+02 0.  0.
        -11    1    3    3    0    0 -0.80168775318E+02  0.44271376352E+02 -0.55661438184E+03  0.56409800334E+03  0.00000000000E+00 0.  1.
         12    1    3    3    0    0  0.10601362266E+02 -0.55367070327E+01 -0.21810811226E+02  0.24874796341E+02  0.00000000000E+00 0. -1.
         11    1    5    5    0    0  0.44191706935E+02 -0.19062337888E+02  0.28960269385E+03  0.29357452201E+03  0.00000000000E+00 0. -1.
        -12    1    5    5    0    0 -0.28875506529E+02 -0.82979926592E+01  0.31069933043E+03  0.31214856317E+03  0.00000000000E+00 0.  1.
          5    1    4    4  501    0 -0.15785614892E+02 -0.41776726058E+02 -0.17289673588E+03  0.17862036322E+03  0.41800000000E+01 0. -1.
         -5    1    4    4    0  501  0.70036827539E+02  0.30402387287E+02 -0.92878362040E+02  0.12030513247E+03  0.41800000000E+01 0. -1.
</event>
<event>
11    1  0.8479398E-009  0.1523776E+03  0.7561462E-02  0.1094474E+00
         22   -1    0    0    0    0  0.00000000000E+00  0.00000000000E+00  0.99804360445E+02  0.99804360445E+02  0.00000000000E+00 0.  1.
         22   -1    0    0    0    0 -0.00000000000E+00 -0.00000000000E+00 -0.76003423516E+03  0.76003423516E+03  0.00000000000E+00 0. -1.
         24    2    1    2    0    0 -0.38148596908E+02  0.66594181265E+02 -0.27629949279E+03  0.29730914205E+03  0.78493412490E+02 0.  0.
         25    2    1    2    0    0  0.18660845841E+02 -0.14539403860E+03 -0.40299473315E+03  0.44669852772E+03  0.12508863297E+03 0.  0.
        -24    2    1    2    0    0  0.19487751067E+02  0.78799857337E+02  0.19064351221E+02  0.11583092583E+03  0.80400024466E+02 0.  0.
        -11    1    3    3    0    0 -0.33468253814E+02  0.38693695816E+02 -0.58645546652E+02  0.77824329431E+02  0.00000000000E+00 0.  1.
         12    1    3    3    0    0 -0.46803430943E+01  0.27900485449E+02 -0.21765394614E+03  0.21948481262E+03  0.00000000000E+00 0. -1.
         13    1    5    5    0    0 -0.30313407505E+02  0.22062387268E+02  0.14503699358E+02  0.40199613202E+02  0.00000000000E+00 0. -1.
        -14    1    5    5    0    0  0.49801158573E+02  0.56737470069E+02  0.45606518633E+01  0.75631312632E+02  0.00000000000E+00 0.  1.
          5    1    4    4  501    0 -0.12923491135E+02 -0.45195775255E+02 -0.23138963694E+02  0.52560049133E+02  0.41800000000E+01 0.  1.
         -5    1    4    4    0  501  0.31584336976E+02 -0.10019826335E+03 -0.37985576945E+03  0.39413847859E+03  0.41800000000E+01 0.  1.
</event>
<event>
11    1  0.8479398E-009  0.1866324E+03  0.7561462E-02  0.1064401E+00
         22   -1    0    0    0    0  0.00000000000E+00  0.00000000000E+00  0.20382475214E+04  0.20382475214E+04  0.00000000000E+00 0.  1.
         22   -1    0    0    0    0 -0.00000000000E+00 -0.00000000000E+00 -0.93663996316E+03  0.93663996316E+03  0.00000000000E+00 0. -1.
         24    2    1    2    0    0  0.56698625671E+02  0.36631823618E+02 -0.91791945337E+03  0.92381543842E+03  0.79386502187E+02 0.  0.
         25    2    1    2    0    0 -0.11832430137E+03 -0.13336210648E+03  0.12054923360E+04  0.12250082547E+04  0.12508940928E+03 0.  0.
        -24    2    1    2    0    0  0.61625675701E+02  0.96730282867E+02  0.81403467569E+03  0.82606379147E+03  0.81083061304E+02 0.  0.
        -11    1    3    3    0    0  0.52549901080E+02 -0.11862691132E+02 -0.39943679154E+03  0.40305330415E+03  0.00000000000E+00 0.  1.
         12    1    3    3    0    0  0.41487245908E+01  0.48494514751E+02 -0.51848266182E+03  0.52076213427E+03  0.00000000000E+00 0. -1.
         13    1    5    5    0    0  0.73758731408E+02  0.99649696108E+02  0.66136219162E+03  0.67288213002E+03  0.00000000000E+00 0. -1.
        -14    1    5    5    0    0 -0.12133055706E+02 -0.29194132419E+01  0.15267248407E+03  0.15318166145E+03  0.00000000000E+00 0.  1.
          5    1    4    4  501    0 -0.61934723286E+02 -0.10451086820E+02  0.65972934847E+03  0.66272575082E+03  0.41800000000E+01 0.  1.
         -5    1    4    4    0  501 -0.56389578086E+02 -0.12291101966E+03  0.54576298748E+03  0.56228250389E+03  0.41800000000E+01 0.  1.
</event>
<event>
11    1  0.8479398E-009  0.1366358E+03  0.7561462E-02  0.1111374E+00
         22   -1    0    0    0    0  0.00000000000E+00  0.00000000000E+00  0.15019571634E+03  0.15019571634E+03  0.00000000000E+00 0.  1.
         22   -1    0    0    0    0 -0.00000000000E+00 -0.00000000000E+00 -0.10721234074E+04  0.10721234074E+04  0.00000000000E+00 0.  1.
        -24    2    1    2    0    0  0.55779167324E+02 -0.28233861427E+02 -0.65518756679E+03  0.66318352912E+03  0.81444331823E+02 0.  0.
         25    2    1    2    0    0  0.20140153573E+01  0.28530435214E+02 -0.38124517287E+03  0.40226201308E+03  0.12509517714E+03 0.  0.
         24    2    1    2    0    0 -0.57793182681E+02 -0.29657378702E+00  0.11450504856E+03  0.15687358156E+03  0.90320399280E+02 0.  0.
        -13    1    5    5    0    0 -0.49180709443E+02 -0.35137280550E+02  0.10256485380E+03  0.11905007308E+03  0.00000000000E+00 0.  1.
         14    1    5    5    0    0 -0.86124732383E+01  0.34840706763E+02  0.11940194762E+02  0.37823508483E+02  0.00000000000E+00 0. -1.
         13    1    3    3    0    0 -0.21321177602E+01  0.13675207502E+02 -0.22122469339E+02  0.26095227073E+02  0.00000000000E+00 0. -1.
        -14    1    3    3    0    0  0.57911285084E+02 -0.41909068929E+02 -0.63306509745E+03  0.63708830205E+03  0.00000000000E+00 0.  1.
          5    1    4    4  501    0  0.26072729359E+02 -0.36047828912E+02 -0.25003213296E+03  0.25399364775E+03  0.41800000000E+01 0.  1.
         -5    1    4    4    0  501 -0.24058714002E+02  0.64578264126E+02 -0.13121303991E+03  0.14826836533E+03  0.41800000000E+01 0.  1.
</event>
<event>
11    1  0.8479398E-009  0.1378626E+03  0.7561462E-02  0.1109969E+00
         22   -1    0    0    0    0  0.00000000000E+00  0.00000000000E+00  0.65600052414E+03  0.65600052414E+03  0.00000000000E+00 0. -1.
         22   -1    0    0    0    0 -0.00000000000E+00 -0.00000000000E+00 -0.25113233517E+03  0.25113233517E+03  0.00000000000E+00 0.  1.
         24    2    1    2    0    0  0.19691063644E+01  0.60576802980E+02 -0.17259424083E+03  0.20103327180E+03  0.83379721534E+02 0.  0.
         25    2    1    2    0    0 -0.51333291609E+02 -0.37814019717E+02  0.21672288554E+02  0.14206333278E+03  0.12508915027E+03 0.  0.
        -24    2    1    2    0    0  0.49364185244E+02 -0.22762783263E+02  0.55579014126E+03  0.56403625473E+03  0.79241708975E+02 0.  0.
        -13    1    3    3    0    0  0.77509207034E+01  0.33168708415E+02 -0.16945737614E+03  0.17284687535E+03  0.00000000000E+00 0.  1.
         14    1    3    3    0    0 -0.57818143390E+01  0.27408094565E+02 -0.31368646906E+01  0.28186396449E+02  0.00000000000E+00 0. -1.
         11    1    5    5    0    0  0.56268239842E+02 -0.29050676940E+01  0.51569289695E+03  0.51876171621E+03  0.00000000000E+00 0. -1.
        -12    1    5    5    0    0 -0.69040545978E+01 -0.19857715569E+02  0.40097244304E+02  0.45274538521E+02  0.00000000000E+00 0.  1.
          5    1    4    4  501    0 -0.14321827240E+01 -0.69123175512E+02 -0.17190459094E+02  0.71365599724E+02  0.41800000000E+01 0. -1.
         -5    1    4    4    0  501 -0.49901108885E+02  0.31309155795E+02  0.38862747648E+02  0.70697733056E+02  0.41800000000E+01 0. -1.
</event>
<event>
11    1  0.8479398E-009  0.3665726E+03  0.7561462E-02  0.9753885E-01
         22   -1    0    0    0    0  0.00000000000E+00  0.00000000000E+00  0.84994639255E+03  0.84994639255E+03  0.00000000000E+00 0. -1.
         22   -1    0    0    0    0 -0.00000000000E+00 -0.00000000000E+00 -0.10188480060E+04  0.10188480060E+04  0.00000000000E+00 0. -1.
        -24    2    1    2    0    0  0.73662106198E+02  0.14964342358E+03 -0.56562885039E+03  0.59521075060E+03  0.80750115318E+02 0.  0.
         25    2    1    2    0    0  0.23656477534E+03  0.28833714687E+02 -0.35008445752E+03  0.44158873670E+03  0.12508880425E+03 0.  0.
         24    2    1    2    0    0 -0.31022688154E+03 -0.17847713827E+03  0.74681169447E+03  0.83199491124E+03  0.79956353175E+02 0.  0.
        -13    1    5    5    0    0 -0.20783105439E+03 -0.10341182644E+03  0.39742464524E+03  0.46025438799E+03  0.00000000000E+00 0.  1.
         14    1    5    5    0    0 -0.10239582715E+03 -0.75065311822E+02  0.34938704923E+03  0.37174052325E+03  0.00000000000E+00 0. -1.
         11    1    3    3    0    0  0.44433533685E+02  0.14328293039E+03 -0.51501531985E+03  0.53641878858E+03  0.00000000000E+00 0. -1.
        -12    1    3    3    0    0  0.29228572513E+02  0.63604931913E+01 -0.50613530544E+02  0.58791962027E+02  0.00000000000E+00 0.  1.
          5    1    4    4  501    0  0.67713700004E+01  0.87127110968E+01 -0.10248380658E+03  0.10316087338E+03  0.41800000000E+01 0.  1.
         -5    1    4    4    0  501  0.22979340534E+03  0.20121003590E+02 -0.24760065094E+03  0.33842786331E+03  0.41800000000E+01 0.  1.
</event>
<event>
11    1  0.8479398E-009  0.3190230E+03  0.7561462E-02  0.9924469E-01
         22   -1    0    0    0    0  0.00000000000E+00  0.00000000000E+00  0.41909935015E+03  0.41909935015E+03  0.00000000000E+00 0. -1.
         22   -1    0    0    0    0 -0.00000000000E+00 -0.00000000000E+00 -0.17435675510E+04  0.17435675510E+04  0.00000000000E+00 0. -1.
        -24    2    1    2    0    0  0.36678465775E+02  0.23475253081E+02 -0.13175666681E+04  0.13206912738E+04  0.79668804717E+02 0.  0.
         25    2    1    2    0    0  0.17828458510E+02  0.26959810234E+03 -0.29604422452E+03  0.41987009888E+03  0.12509087234E+03 0.  0.
         24    2    1    2    0    0 -0.54506924285E+02 -0.29307335542E+03  0.28914269177E+03  0.42210552847E+03  0.75541938735E+02 0.  0.
        -13    1    5    5    0    0  0.40288511136E+01 -0.12618484846E+03  0.85968880724E+02  0.15273996227E+03  0.00000000000E+00 0.  1.
         14    1    5    5    0    0 -0.58535775398E+02 -0.16688850696E+03  0.20317381105E+03  0.26936556620E+03  0.00000000000E+00 0. -1.
         13    1    3    3    0    0  0.32392297400E+02 -0.15250089685E+02 -0.10143506973E+04  0.10149823462E+04  0.00000000000E+00 0. -1.
        -14    1    3    3    0    0  0.42861683755E+01  0.38725342767E+02 -0.30321597083E+03  0.30570892754E+03  0.00000000000E+00 0.  1.
          5    1    4    4  501    0  0.65959981282E+02  0.13146412478E+03 -0.18379125033E+03  0.23543625747E+03  0.41800000000E+01 0. -1.
         -5    1    4    4    0  501 -0.48131522772E+02  0.13813397756E+03 -0.11225297419E+03  0.18443384141E+03  0.41800000000E+01 0. -1.
</event>
<event>
11    1  0.8479398E-009  0.2082038E+03  0.7561462E-02  0.1048869E+00
         22   -1    0    0    0    0  0.00000000000E+00  0.00000000000E+00  0.73523517961E+03  0.73523517961E+03  0.00000000000E+00 0. -1.
         22   -1    0    0    0    0 -0.00000000000E+00 -0.00000000000E+00 -0.28964505845E+03  0.28964505845E+03  0.00000000000E+00 0.  1.
         24    2    1    2    0    0 -0.12529830776E+03  0.11946819385E+03 -0.18497003552E+03  0.26528825309E+03  0.78686897983E+02 0.  0.
         25    2    1    2    0    0  0.11852444443E+03 -0.80482186722E+02  0.87871211548E+02  0.20950971227E+03  0.12509014114E+03 0.  0.
        -24    2    1    2    0    0  0.67738633370E+01 -0.38986007131E+02  0.54268894512E+03  0.55008227270E+03  0.80705771812E+02 0.  0.
        -11    1    3    3    0    0 -0.83999285919E+02  0.10492424676E+03 -0.93049919872E+02  0.16347252118E+03  0.00000000000E+00 0.  1.
         12    1    3    3    0    0 -0.41299021845E+02  0.14543947090E+02 -0.91920115647E+02  0.10181573190E+03  0.00000000000E+00 0. -1.
         13    1    5    5    0    0 -0.28416784414E+02  0.18580184595E+01  0.30641307506E+03  0.30773355104E+03  0.00000000000E+00 0. -1.
        -14    1    5    5    0    0  0.35190647751E+02 -0.40844025590E+02  0.23627587007E+03  0.24234872166E+03  0.00000000000E+00 0.  1.
          5    1    4    4  501    0  0.66091374014E+02 -0.21982858323E+02  0.10774784004E+03  0.12836816277E+03  0.41800000000E+01 0. -1.
         -5    1    4    4    0  501  0.52433070413E+02 -0.58499328399E+02 -0.19876628491E+02  0.81141549506E+02  0.41800000000E+01 0. -1.
</event>
<event>
11    1  0.8479398E-009  0.1462777E+03  0.7561462E-02  0.1100744E+00
         22   -1    0    0    0    0  0.00000000000E+00  0.00000000000E+00  0.54104034008E+03  0.54104034008E+03  0.00000000000E+00 0.  1.
         22   -1    0    0    0    0 -0.00000000000E+00 -0.00000000000E+00 -0.49812806682E+03  0.49812806682E+03  0.00000000000E+00 0. -1.
         24    2    1    2    0    0  0.69838822916E+02  0.86325540148E+01 -0.36358379812E+03  0.37873340147E+03  0.79333655903E+02 0.  0.
         25    2    1    2    0    0 -0.12325974516E+03  0.10242058499E+02 -0.58446528947E+02  0.18536893137E+03  0.12509108454E+03 0.  0.
        -24    2    1    2    0    0  0.53420922248E+02 -0.18874612514E+02  0.46494260033E+03  0.47506607407E+03  0.79411001748E+02 0.  0.
        -13    1    3    3    0    0  0.55227129131E+02  0.15281383971E+02 -0.10472297831E+03  0.11937528503E+03  0.00000000000E+00 0.  1.
         14    1    3    3    0    0  0.14611693785E+02 -0.66488299557E+01 -0.25886081981E+03  0.25935811644E+03  0.00000000000E+00 0. -1.
         11    1    5    5    0    0  0.25140532019E+02 -0.36297631857E+02  0.10938595172E+03  0.11796122610E+03  0.00000000000E+00 0. -1.
        -12    1    5    5    0    0  0.28280390229E+02  0.17423019343E+02  0.35555664861E+03  0.35710484797E+03  0.00000000000E+00 0.  1.
          5    1    4    4  501    0 -0.99592933359E+02 -0.49027193723E+02 -0.28132575756E+02  0.11459202554E+03  0.41800000000E+01 0.  1.
         -5    1    4    4    0  501 -0.23666811804E+02  0.59269252222E+02 -0.30313953192E+02  0.70776905824E+02  0.41800000000E+01 0.  1.
</event>
<event>
11    1  0.8479398E-009  0.1375760E+03  0.7561462E-02  0.1110296E+00
         22   -1    0    0    0    0  0.00000000000E+00  0.00000000000E+00  0.42167406501E+03  0.42167406501E+03  0.00000000000E+00 0. -1.
         22   -1    0    0    0    0 -0.00000000000E+00 -0.00000000000E+00 -0.49550407055E+03  0.49550407055E+03  0.00000000000E+00 0.  1.
        -24    2    1    2    0    0 -0.12225734789E+02 -0.16169076504E+02 -0.42733644841E+03  0.43527707416E+03  0.80242030859E+02 0.  0.
         25    2    1    2    0    0 -0.37684880784E+02  0.44729511768E+02  0.25877891262E+02  0.14049218185E+03  0.12509000136E+03 0.  0.
         24    2    1    2    0    0  0.49910615573E+02 -0.28560435265E+02  0.32762855161E+03  0.34140887956E+03  0.76894650033E+02 0.  0.
        -11    1    5    5    0    0  0.18147479526E+02  0.25177558828E+02  0.74695146263E+02  0.80886373122E+02  0.00000000000E+00 0.  1.
         12    1    5    5    0    0  0.31763136047E+02 -0.53737994092E+02  0.25293340535E+03  0.26052250644E+03  0.00000000000E+00 0. -1.
         11    1    3    3    0    0  0.20448347075E+02  0.52905934159E+01 -0.34163063544E+02  0.40165161365E+02  0.00000000000E+00 0. -1.
        -12    1    3    3    0    0 -0.32674081864E+02 -0.21459669920E+02 -0.39317338487E+03  0.39511191279E+03  0.00000000000E+00 0.  1.
          5    1    4    4  501    0  0.38101997547E+02  0.48782240948E+02  0.99841728715E+01  0.62838088425E+02  0.41800000000E+01 0. -1.
         -5    1    4    4    0  501 -0.75786878331E+02 -0.40527291796E+01  0.15893718390E+02  0.77654093422E+02  0.41800000000E+01 0. -1.
</event>
<event>
11    1  0.8479398E-009  0.1655009E+03  0.7561462E-02  0.1082015E+00
         22   -1    0    0    0    0  0.00000000000E+00  0.00000000000E+00  0.66597555112E+03  0.66597555112E+03  0.00000000000E+00 0. -1.
         22   -1    0    0    0    0 -0.00000000000E+00 -0.00000000000E+00 -0.16180637083E+03  0.16180637083E+03  0.00000000000E+00 0. -1.
        -24    2    1    2    0    0  0.27331929114E+02 -0.24518706981E+02 -0.10177376256E+03  0.13438894518E+03  0.79713791158E+02 0.  0.
         25    2    1    2    0    0  0.30784200744E+00  0.12485501380E+03  0.20319907742E+03  0.26930566558E+03  0.12508719843E+03 0.  0.
         24    2    1    2    0    0 -0.27639771121E+02 -0.10033630682E+03  0.40274386544E+03  0.42408731119E+03  0.82559644804E+02 0.  0.
        -11    1    5    5    0    0  0.23325737822E+02 -0.13354831208E+02  0.14223152899E+03  0.14474891848E+03  0.00000000000E+00 0.  1.
         12    1    5    5    0    0 -0.50965508943E+02 -0.86981475612E+02  0.26051233645E+03  0.27933839271E+03  0.00000000000E+00 0. -1.
         11    1    3    3    0    0  0.22972618738E+02 -0.53365505241E+02 -0.60874443810E+02  0.84150557161E+02  0.00000000000E+00 0. -1.
        -12    1    3    3    0    0  0.43593103764E+01  0.28846798261E+02 -0.40899318751E+02  0.50238388023E+02  0.00000000000E+00 0.  1.
          5    1    4    4  501    0 -0.53262504050E+01  0.29396837546E+02  0.16253417185E+03  0.16530992838E+03  0.41800000000E+01 0.  1.
         -5    1    4    4    0  501  0.56340924125E+01  0.95458176254E+02  0.40664905566E+02  0.10399573720E+03  0.41800000000E+01 0.  1.
</event>
<event>
11    1  0.8479398E-009  0.1282893E+03  0.7561462E-02  0.1121389E+00
         22   -1    0    0    0    0  0.00000000000E+00  0.00000000000E+00  0.25523461107E+03  0.25523461107E+03  0.00000000000E+00 0. -1.
         22   -1    0    0    0    0 -0.00000000000E+00 -0.00000000000E+00 -0.12179411086E+04  0.12179411086E+04  0.00000000000E+00 0.  1.
         24    2    1    2    0    0 -0.39389931996E+01 -0.30214447894E+02 -0.10166592690E+04  0.10209674424E+04  0.88600342020E+02 0.  0.
         25    2    1    2    0    0  0.34573673852E+02  0.16203438291E+01 -0.17149765690E+03  0.21507824390E+03  0.12509692339E+03 0.  0.
        -24    2    1    2    0    0 -0.30634680652E+02  0.28594104065E+02  0.22545042839E+03  0.23713003338E+03  0.60387503867E+02 0.  0.
        -13    1    3    3    0    0 -0.13619185968E+01 -0.49804947909E+02 -0.95324243283E+03  0.95454362049E+03  0.00000000000E+00 0.  1.
         14    1    3    3    0    0 -0.25770746028E+01  0.19590500015E+02 -0.63416836211E+02  0.66423821927E+02  0.00000000000E+00 0. -1.
         11    1    5    5    0    0 -0.28775023052E+01  0.10244200030E+00  0.16339512382E+03  0.16342049137E+03  0.00000000000E+00 0. -1.
        -12    1    5    5    0    0 -0.27757178347E+02  0.28491662064E+02  0.62055304575E+02  0.73709542007E+02  0.00000000000E+00 0.  1.
          5    1    4    4  501    0 -0.11109427213E+02 -0.32558784334E+02 -0.15002282643E+03  0.15397342193E+03  0.41800000000E+01 0. -1.
         -5    1    4    4    0  501  0.45683101065E+02  0.34179128163E+02 -0.21474830466E+02  0.61104821974E+02  0.41800000000E+01 0. -1.
</event>
<event>
11    1  0.8479398E-009  0.1473582E+03  0.7561462E-02  0.1099609E+00
         22   -1    0    0    0    0  0.00000000000E+00  0.00000000000E+00  0.78835530836E+03  0.78835530836E+03  0.00000000000E+00 0. -1.
         22   -1    0    0    0    0 -0.00000000000E+00 -0.00000000000E+00 -0.21655800694E+04  0.21655800694E+04  0.00000000000E+00 0.  1.
        -24    2    1    2    0    0 -0.78345715040E+02 -0.10516546278E+02 -0.20314969884E+04  0.20345731478E+04  0.79115303662E+02 0.  0.
         25    2    1    2    0    0  0.53818845732E+02 -0.35268645953E+02 -0.91182050293E+02  0.16763698256E+03  0.12509055153E+03 0.  0.
         24    2    1    2    0    0  0.24526869308E+02  0.45785192231E+02  0.74545427765E+03  0.75172524735E+03  0.81798021323E+02 0.  0.
        -11    1    5    5    0    0  0.27267742138E+02 -0.80824765623E+01  0.98422768529E+02  0.10244948782E+03  0.00000000000E+00 0.  1.
         12    1    5    5    0    0 -0.27408728308E+01  0.53867668793E+02  0.64703150912E+03  0.64927575954E+03  0.00000000000E+00 0. -1.
         13    1    3    3    0    0  0.93156974580E+01 -0.16639256470E+02 -0.65283400222E+03  0.65311245703E+03  0.00000000000E+00 0. -1.
        -14    1    3    3    0    0 -0.87661412498E+02  0.61227101921E+01 -0.13786629861E+04  0.13814606908E+04  0.00000000000E+00 0.  1.
          5    1    4    4  501    0  0.66186625946E+02 -0.43515540802E+02 -0.43468950754E+01  0.79439534504E+02  0.41800000000E+01 0.  1.
         -5    1    4    4    0  501 -0.12367780214E+02  0.82468948484E+01 -0.86835155218E+02  0.88197448057E+02  0.41800000000E+01 0.  1.
</event>
<event>
11    1  0.8479398E-009  0.1323095E+03  0.7561462E-02  0.1116463E+00
         22   -1    0    0    0    0  0.00000000000E+00  0.00000000000E+00  0.19623098594E+04  0.19623098594E+04  0.00000000000E+00 0.  1.
         22   -1    0    0    0    0 -0.00000000000E+00 -0.00000000000E+00 -0.15608466511E+03  0.15608466511E+03  0.00000000000E+00 0. -1.
        -24    2    1    2    0    0 -0.26751744001E+02  0.30757961142E+02 -0.11124171402E+03  0.14381773674E+03  0.81529837992E+02 0.  0.
         25    2    1    2    0    0  0.26914906361E+02  0.13616849266E+02  0.12384962184E+03  0.17859213008E+03  0.12508632751E+03 0.  0.
         24    2    1    2    0    0 -0.16316236010E+00 -0.44374810409E+02  0.17936172864E+04  0.17959846576E+04  0.80800803771E+02 0.  0.
        -13    1    5    5    0    0  0.36384380313E+02 -0.37696084871E+02  0.12512549428E+04  0.12523512885E+04  0.00000000000E+00 0.  1.
         14    1    5    5    0    0 -0.36547542674E+02 -0.66787255377E+01  0.54236234361E+03  0.54363336912E+03  0.00000000000E+00 0. -1.
         11    1    3    3    0    0  0.16069223715E+01  0.52362404661E+02 -0.83805694844E+02  0.98832171431E+02  0.00000000000E+00 0. -1.
        -12    1    3    3    0    0 -0.28358666372E+02 -0.21604443519E+02 -0.27436019175E+02  0.44985565311E+02  0.00000000000E+00 0.  1.
          5    1    4    4  501    0  0.15319340068E+02 -0.84273280427E+01  0.14471775215E+03  0.14583004569E+03  0.41800000000E+01 0. -1.
         -5    1    4    4    0  501  0.11595566293E+02  0.22044177309E+02 -0.20868130316E+02  0.32762084394E+02  0.41800000000E+01 0. -1.
</event>
<event>
11    1  0.8479398E-009  0.1557416E+03  0.7561462E-02  0.1091152E+00
         22   -1    0    0    0    0  0.00000000000E+00  0.00000000000E+00  0.29747258291E+03  0.29747258291E+03  0.00000000000E+00 0. -1.
         22   -1    0    0    0    0 -0.00000000000E+00 -0.00000000000E+00 -0.98087870692E+03  0.98087870692E+03  0.00000000000E+00 0. -1.
        -24    2    1    2    0    0  0.83570524899E+02 -0.39137576412E+02 -0.78059513769E+03  0.79175659606E+03  0.95047124650E+02 0.  0.
         25    2    1    2    0    0 -0.75062471643E+02  0.64303838136E+02 -0.15401705566E+03  0.22167213960E+03  0.12509166956E+03 0.  0.
         24    2    1    2    0    0 -0.85080532561E+01 -0.25166261724E+02  0.25120606934E+03  0.26492255417E+03  0.79835723417E+02 0.  0.
        -11    1    5    5    0    0  0.99133467781E+01  0.13051988443E+00 -0.17248515865E+01  0.10063130367E+02  0.00000000000E+00 0.  1.
         12    1    5    5    0    0 -0.18421400034E+02 -0.25296781609E+02  0.25293092092E+03  0.25485942380E+03  0.00000000000E+00 0. -1.
         13    1    3    3    0    0  0.86149214806E+02 -0.41119116073E+02 -0.40315070138E+03  0.41429814981E+03  0.00000000000E+00 0. -1.
        -14    1    3    3    0    0 -0.25786899072E+01  0.19815396609E+01 -0.37744443631E+03  0.37745844625E+03  0.00000000000E+00 0.  1.
          5    1    4    4  501    0 -0.53600691279E+02 -0.17973652263E+02 -0.11460469341E+03  0.12785849379E+03  0.41800000000E+01 0.  1.
         -5    1    4    4    0  501 -0.21461780364E+02  0.82277490400E+02 -0.39412362249E+02  0.93813645814E+02  0.41800000000E+01 0.  1.
</event>
<event>
11    1  0.8479398E-009  0.1514369E+03  0.7561462E-02  0.1095420E+00
         22   -1    0    0    0    0  0.00000000000E+00  0.00000000000E+00  0.14581495103E+03  0.14581495103E+03  0.00000000000E+00 0. -1.
         22   -1    0    0    0    0 -0.00000000000E+00 -0.00000000000E+00 -0.12708421525E+04  0.12708421525E+04  0.00000000000E+00 0.  1.
        -24    2    1    2    0    0 -0.48053478130E+02  0.61948431363E+02 -0.71782935546E+03  0.72596693153E+03  0.74848227858E+02 0.  0.
         25    2    1    2    0    0  0.57403320027E+02 -0.90793576363E+02 -0.52187347933E+03  0.54730119146E+03  0.12509217037E+03 0.  0.
         24    2    1    2    0    0 -0.93498418972E+01  0.28845144999E+02  0.11467563328E+03  0.14338898058E+03  0.80563248126E+02 0.  0.
        -11    1    5    5    0    0  0.13562515430E+02  0.61316000447E+01 -0.77518580245E+01  0.16781824893E+02  0.00000000000E+00 0.  1.
         12    1    5    5    0    0 -0.22912357327E+02  0.22713544955E+02  0.12242749131E+03  0.12660715568E+03  0.00000000000E+00 0. -1.
         13    1    3    3    0    0 -0.59273888277E+02  0.16800458621E+02 -0.38374573065E+03  0.38865979344E+03  0.00000000000E+00 0. -1.
        -14    1    3    3    0    0  0.11220410147E+02  0.45147972742E+02 -0.33408362481E+03  0.33730713809E+03  0.00000000000E+00 0.  1.
          5    1    4    4  501    0  0.70326445542E+02 -0.12619934286E+02 -0.35977948934E+03  0.36682942226E+03  0.41800000000E+01 0.  1.
         -5    1    4    4    0  501 -0.12923125515E+02 -0.78173642077E+02 -0.16209398999E+03  0.18047176920E+03  0.41800000000E+01 0.  1.
</event>
<event>
11    1  0.8479398E-009  0.1481645E+03  0.7561462E-02  0.1098769E+00
         22   -1    0    0    0    0  0.00000000000E+00  0.00000000000E+00  0.65172822612E+03  0.65172822612E+03  0.00000000000E+00 0.  1.
         22   -1    0    0    0    0 -0.00000000000E+00 -0.00000000000E+00 -0.28951755554E+03  0.28951755554E+03  0.00000000000E+00 0. -1.
         24    2    1    2    0    0 -0.39947356578E+02 -0.65713426827E+02 -0.23916662471E+03  0.26322114742E+03  0.78553499668E+02 0.  0.
         25    2    1    2    0    0  0.96224035166E+02  0.10930820229E+03  0.27860180659E+03  0.33834025249E+03  0.12509121388E+03 0.  0.
        -24    2    1    2    0    0 -0.56276678588E+02 -0.43594775465E+02  0.32277548870E+03  0.33968438174E+03  0.78319180876E+02 0.  0.
        -11    1    3    3    0    0 -0.50739045655E+00 -0.48169838773E+02 -0.50948422211E+02  0.70116563936E+02  0.00000000000E+00 0.  1.
         12    1    3    3    0    0 -0.39439966122E+02 -0.17543588054E+02 -0.18821820250E+03  0.19310458349E+03  0.00000000000E+00 0. -1.
         11    1    5    5    0    0  0.14972816498E+01  0.13468196417E+02  0.10842202609E+02  0.17354755097E+02  0.00000000000E+00 0. -1.
        -12    1    5    5    0    0 -0.57773960238E+02 -0.57062971882E+02  0.31193328609E+03  0.32232962664E+03  0.00000000000E+00 0.  1.
          5    1    4    4  501    0  0.11405414421E+03  0.63803104276E+02  0.24846656679E+03  0.28077088727E+03  0.41800000000E+01 0.  1.
         -5    1    4    4    0  501 -0.17830109046E+02  0.45505098017E+02  0.30135239803E+02  0.57569365222E+02  0.41800000000E+01 0.  1.
</event>
<event>
11    1  0.8479398E-009  0.1687055E+03  0.7561462E-02  0.1079164E+00
         22   -1    0    0    0    0  0.00000000000E+00  0.00000000000E+00  0.36052589411E+03  0.36052589411E+03  0.00000000000E+00 0.  1.
         22   -1    0    0    0    0 -0.00000000000E+00 -0.00000000000E+00 -0.82565610959E+03  0.82565610959E+03  0.00000000000E+00 0. -1.
         24    2    1    2    0    0 -0.42086085845E+02  0.14993509966E+02 -0.75368963060E+03  0.75968143746E+03  0.84093894984E+02 0.  0.
         25    2    1    2    0    0  0.13766113166E+03 -0.29312959301E+02  0.16314207446E+03  0.24914532533E+03  0.12509284521E+03 0.  0.
        -24    2    1    2    0    0 -0.95575045811E+02  0.14319449334E+02  0.12541734067E+03  0.17735524091E+03  0.79910801066E+02 0.  0.
        -11    1    3    3    0    0 -0.21490510143E+02 -0.34198580537E+02 -0.25980378664E+03  0.26292468977E+03  0.00000000000E+00 0.  1.
         12    1    3    3    0    0 -0.20595575702E+02  0.49192090504E+02 -0.49388584397E+03  0.49675674769E+03  0.00000000000E+00 0. -1.
         11    1    5    5    0    0 -0.60095618099E+02  0.50463949639E+01  0.16636795909E+02  0.62559830522E+02  0.00000000000E+00 0. -1.
        -12    1    5    5    0    0 -0.35479427712E+02  0.92730543702E+01  0.10878054476E+03  0.11479541039E+03  0.00000000000E+00 0.  1.
          5    1    4    4  501    0  0.63953218083E+02  0.39596466444E+02  0.11447876448E+03  0.13704289173E+03  0.41800000000E+01 0.  1.
         -5    1    4    4    0  501  0.73707913573E+02 -0.68909425745E+02  0.48663309974E+02  0.11210243359E+03  0.41800000000E+01 0.  1.
</event>
<event>
11    1  0.8479398E-009  0.1318041E+03  0.7561462E-02  0.1117072E+00
         22   -1    0    0    0    0  0.00000000000E+00  0.00000000000E+00  0.48172460077E+02  0.48172460077E+02  0.00000000000E+00 0.  1.
         22   -1    0    0    0    0 -0.00000000000E+00 -0.00000000000E+00 -0.11406060979E+04  0.11406060979E+04  0.00000000000E+00 0.  1.
         24    2    1    2    0    0  0.26530480286E+00  0.22801466590E+02 -0.77104838217E+03  0.77557358430E+03  0.80490991787E+02 0.  0.
         25    2    1    2    0    0  0.33976048108E+02  0.50712502414E+01 -0.28320229591E+03  0.31150161301E+03  0.12509846150E+03 0.  0.
        -24    2    1    2    0    0 -0.34241352911E+02 -0.27872716832E+02 -0.38182959775E+02  0.10170336070E+03  0.83284311657E+02 0.  0.
        -13    1    3    3    0    0  0.49049135054E+01  0.75157369315E+01 -0.74474758648E+03  0.74480165953E+03  0.00000000000E+00 0.  1.
         14    1    3    3    0    0 -0.46396087026E+01  0.15285729659E+02 -0.26300795691E+02  0.30771924771E+02  0.00000000000E+00 0. -1.
         11    1    5    5    0    0 -0.38669388979E+02  0.58324755080E+01 -0.51952142628E+02  0.65025875913E+02  0.00000000000E+00 0. -1.
        -12    1    5    5    0    0  0.44280360673E+01 -0.33705192340E+02  0.13769182853E+02  0.36677484790E+02  0.00000000000E+00 0.  1.
          5    1    4    4  501    0  0.81599110099E+02  0.55179108682E+01 -0.18196974371E+03  0.19954779411E+03  0.41800000000E+01 0. -1.
         -5    1    4    4    0  501 -0.47623061991E+02 -0.44666062675E+00 -0.10123255220E+03  0.11195381889E+03  0.41800000000E+01 0. -1.
</event>
<event>
11    1  0.8479398E-009  0.1397224E+03  0.7561462E-02  0.1107869E+00
         22   -1    0    0    0    0  0.00000000000E+00  0.00000000000E+00  0.72439211362E+03  0.72439211362E+03  0.00000000000E+00 0.  1.
         22   -1    0    0    0    0 -0.00000000000E+00 -0.00000000000E+00 -0.14179437147E+04  0.14179437147E+04  0.00000000000E+00 0. -1.
         24    2    1    2    0    0 -0.18898872180E+02  0.42921165078E+02 -0.12385430037E+04  0.12419817825E+04  0.79564955931E+02 0.  0.
         25    2    1    2    0    0  0.32484224035E+02  0.18752942411E+02 -0.14883555340E+03  0.19800602553E+03  0.12508983384E+03 0.  0.
        -24    2    1    2    0    0 -0.13585351855E+02 -0.61674107489E+02  0.69382695598E+03  0.70234802035E+03  0.88930531979E+02 0.  0.
        -11    1    3    3    0    0  0.24048656472E+02  0.29817671624E+02 -0.31064731093E+03  0.31300029266E+03  0.00000000000E+00 0.  1.
         12    1    3    3    0    0 -0.42947528652E+02  0.13103493454E+02 -0.92789569276E+03  0.92898148980E+03  0.00000000000E+00 0. -1.
         11    1    5    5    0    0 -0.28343890698E+02  0.13415620747E+02  0.15776866841E+03  0.16085492766E+03  0.00000000000E+00 0. -1.
        -12    1    5    5    0    0  0.14758538843E+02 -0.75089728235E+02  0.53605828757E+03  0.54149309269E+03  0.00000000000E+00 0.  1.
          5    1    4    4  501    0  0.74078715056E+02 -0.15769384968E+02 -0.77972636334E+02  0.10878204789E+03  0.41800000000E+01 0. -1.
         -5    1    4    4    0  501 -0.41594491021E+02  0.34522327379E+02 -0.70862917064E+02  0.89223977639E+02  0.41800000000E+01 0. -1.
</event>
<event>
11    1  0.8479398E-009  0.1438043E+03  0.7561462E-02  0.1103383E+00
         22   -1    0    0    0    0  0.00000000000E+00  0.00000000000E+00  0.31124826046E+03  0.31124826046E+03  0.00000000000E+00 0. -1.
         22   -1    0    0    0    0 -0.00000000000E+00 -0.00000000000E+00 -0.28587114949E+03  0.28587114949E+03  0.00000000000E+00 0.  1.
         24    2    1    2    0    0  0.21348521434E+02  0.43275035551E+02 -0.21085999485E+03  0.23370332362E+03  0.88469305256E+02 0.  0.
         25    2    1    2    0    0  0.47177105733E+02  0.22665012085E+00  0.46944982601E+02  0.14168978536E+03  0.12508570346E+03 0.  0.
        -24    2    1    2    0    0 -0.68525627167E+02 -0.43501685672E+02  0.18929212322E+03  0.22172630096E+03  0.82115080169E+02 0.  0.
        -13    1    3    3    0    0  0.37873125192E+02  0.62288429084E+02 -0.17761033307E+03  0.19198867785E+03  0.00000000000E+00 0.  1.
         14    1    3    3    0    0 -0.16524603758E+02 -0.19013393533E+02 -0.33249661779E+02  0.41714645766E+02  0.00000000000E+00 0. -1.
         13    1    5    5    0    0 -0.56366853589E+02 -0.24668863168E+02  0.18957272856E+03  0.19930778813E+03  0.00000000000E+00 0. -1.
        -14    1    5    5    0    0 -0.12158773579E+02 -0.18832822504E+02 -0.28060534444E+00  0.22418512835E+02  0.00000000000E+00 0.  1.
          5    1    4    4  501    0  0.76991389714E+01  0.14681531537E+02 -0.40836265370E+02  0.44270724848E+02  0.41800000000E+01 0.  1.
         -5    1    4    4    0  501  0.39477966762E+02 -0.14454881416E+02  0.87781247971E+02  0.97419060516E+02  0.41800000000E+01 0.  1.
</event>
<event>
11    1  0.8479398E-009  0.1565786E+03  0.7561462E-02  0.1090340E+00
         22   -1    0    0    0    0  0.00000000000E+00  0.00000000000E+00  0.47965235043E+03  0.47965235043E+03  0.00000000000E+00 0.  1.
         22   -1    0    0    0    0 -0.00000000000E+00 -0.00000000000E+00 -0.25365863901E+03  0.25365863901E+03  0.00000000000E+00 0.  1.
        -24    2    1    2    0    0 -0.95224612241E+02 -0.41825288526E+01 -0.10761176714E+03  0.16539057850E+03  0.81783437837E+02 0.  0.
         25    2    1    2    0    0  0.92231509739E+02 -0.95447285201E+01 -0.59533236850E+02  0.16670118540E+03  0.12508927089E+03 0.  0.
         24    2    1    2    0    0  0.29931025018E+01  0.13727257373E+02  0.39313871542E+03  0.40121922554E+03  0.78875985754E+02 0.  0.
        -13    1    5    5    0    0 -0.93767837077E+01 -0.27096968081E+02  0.25596373325E+03  0.25756475397E+03  0.00000000000E+00 0.  1.
         14    1    5    5    0    0  0.12369886209E+02  0.40824225453E+02  0.13717498217E+03  0.14365447157E+03  0.00000000000E+00 0. -1.
         13    1    3    3    0    0 -0.82840773583E+00  0.12221729997E+02  0.84571985029E+01  0.14885602105E+02  0.00000000000E+00 0. -1.
        -14    1    3    3    0    0 -0.94396204505E+02 -0.16404258850E+02 -0.11606896564E+03  0.15050497639E+03  0.00000000000E+00 0.  1.
          5    1    4    4  501    0  0.69265174391E+02 -0.49274728721E+02 -0.79517609976E+02  0.11647397121E+03  0.41800000000E+01 0. -1.
         -5    1    4    4    0  501  0.22966335348E+02  0.39730000201E+02  0.19984373126E+02  0.50227214183E+02  0.41800000000E+01 0. -1.
</event>
<event>
11    1  0.8479398E-009  0.1326585E+03  0.7561462E-02  0.1116045E+00
         22   -1    0    0    0    0  0.00000000000E+00  0.00000000000E+00  0.11660166562E+04  0.11660166562E+04  0.00000000000E+00 0.  1.
         22   -1    0    0    0    0 -0.00000000000E+00 -0.00000000000E+00 -0.53980513765E+03  0.53980513765E+03  0.00000000000E+00 0. -1.
         24    2    1    2    0    0 -0.30117648936E+02  0.29182235013E+02 -0.46391238295E+03  0.47318269137E+03  0.83237520027E+02 0.  0.
         25    2    1    2    0    0  0.74384306282E+02 -0.46276591609E+02  0.14921685923E+02  0.15342568970E+03  0.12506893138E+03 0.  0.
        -24    2    1    2    0    0 -0.44266657346E+02  0.17094356597E+02  0.10752022155E+04  0.10792134127E+04  0.79937675398E+02 0.  0.
        -11    1    3    3    0    0 -0.48684604241E+01  0.23350794007E+02 -0.29224675600E+02  0.37723244181E+02  0.00000000000E+00 0.  1.
         12    1    3    3    0    0 -0.25249188512E+02  0.58314410061E+01 -0.43468770735E+03  0.43545944719E+03  0.00000000000E+00 0. -1.
         13    1    5    5    0    0 -0.72700244657E+01  0.22360845870E+02  0.81897414985E+02  0.85205910975E+02  0.00000000000E+00 0. -1.
        -14    1    5    5    0    0 -0.36996632880E+02 -0.52664892729E+01  0.99330480056E+03  0.99400750177E+03  0.00000000000E+00 0.  1.
          5    1    4    4  501    0 -0.14977097747E+02 -0.18987880228E+02 -0.38543565937E+02  0.45693893767E+02  0.41800000000E+01 0. -1.
         -5    1    4    4    0  501  0.89361404029E+02 -0.27288711381E+02  0.53465251860E+02  0.10773179593E+03  0.41800000000E+01 0. -1.
</event>
<event>
11    1  0.8479398E-009  0.1457525E+03  0.7561462E-02  0.1101300E+00
         22   -1    0    0    0    0  0.00000000000E+00  0.00000000000E+00  0.41112776600E+03  0.41112776600E+03  0.00000000000E+00 0. -1.
         22   -1    0    0    0    0 -0.00000000000E+00 -0.00000000000E+00 -0.20844542631E+04  0.20844542631E+04  0.00000000000E+00 0. -1.
        -24    2    1    2    0    0 -0.19064239321E+02  0.10172738687E+02 -0.20304865338E+04  0.20322147819E+04  0.80959409636E+02 0.  0.
         25    2    1    2    0    0  0.79826019960E+02  0.29399408018E+02  0.94495244096E+02  0.17836224556E+03  0.12508885174E+03 0.  0.
         24    2    1    2    0    0 -0.60761780638E+02 -0.39572146705E+02  0.26266479261E+03  0.28500500162E+03  0.83529090104E+02 0.  0.
        -13    1    5    5    0    0 -0.20205941371E+02 -0.69318129672E+01  0.47433867352E+01  0.21882180317E+02  0.00000000000E+00 0.  1.
         14    1    5    5    0    0 -0.40555839267E+02 -0.32640333738E+02  0.25792140587E+03  0.26312282131E+03  0.00000000000E+00 0. -1.
         13    1    3    3    0    0 -0.23962225083E+02 -0.31974670854E+02 -0.80053261467E+03  0.80152918535E+03  0.00000000000E+00 0. -1.
        -14    1    3    3    0    0  0.48979857617E+01  0.42147409541E+02 -0.12299539192E+04  0.12306855966E+04  0.00000000000E+00 0.  1.
          5    1    4    4  501    0  0.58610766958E+02  0.17573358409E+01 -0.17226594345E+02  0.61257964261E+02  0.41800000000E+01 0. -1.
         -5    1    4    4    0  501  0.21215253001E+02  0.27642072177E+02  0.11172183844E+03  0.11710428130E+03  0.41800000000E+01 0. -1.
</event>
<event>
11    1  0.8479398E-009  0.1370207E+03  0.7561462E-02  0.1110932E+00
         22   -1    0    0    0    0  0.00000000000E+00  0.00000000000E+00  0.32332856778E+03  0.32332856778E+03  0.00000000000E+00 0. -1.
         22   -1    0    0    0    0 -0.00000000000E+00 -0.00000000000E+00 -0.26695376660E+03  0.26695376660E+03  0.00000000000E+00 0.  1.
        -24    2    1    2    0    0 -0.17931955761E+02 -0.32797890878E+02 -0.18363490681E+03  0.20413466446E+03  0.80943965515E+02 0.  0.
         25    2    1    2    0    0 -0.39619235438E+01  0.80775250988E+02  0.24663403987E+02  0.15098390890E+03  0.12509004453E+03 0.  0.
         24    2    1    2    0    0  0.21893879305E+02 -0.47977360109E+02  0.21534630400E+03  0.23516376103E+03  0.78401497573E+02 0.  0.
        -13    1    5    5    0    0 -0.26617894848E+02 -0.26586850518E+02  0.58072015297E+02  0.69193438326E+02  0.00000000000E+00 0.  1.
         14    1    5    5    0    0  0.48511774153E+02 -0.21390509591E+02  0.15727428870E+03  0.16597032270E+03  0.00000000000E+00 0. -1.
         13    1    3    3    0    0 -0.28633614249E+02  0.15659511636E+02 -0.37032988708E+02  0.49361385944E+02  0.00000000000E+00 0. -1.
        -14    1    3    3    0    0  0.10701658487E+02 -0.48457402515E+02 -0.14660191810E+03  0.15477327852E+03  0.00000000000E+00 0.  1.
          5    1    4    4  501    0 -0.42605935095E+02  0.62542200629E+02  0.58968041700E+02  0.96028615041E+02  0.41800000000E+01 0. -1.
         -5    1    4    4    0  501  0.38644011551E+02  0.18233050359E+02 -0.34304637713E+02  0.54955293856E+02  0.41800000000E+01 0. -1.
</event>
<event>
11    1  0.8479398E-009  0.1630825E+03  0.7561462E-02  0.1084213E+00
         22   -1    0    0    0    0  0.00000000000E+00  0.00000000000E+00  0.11716137844E+04  0.11716137844E+04  0.00000000000E+00 0. -1.
         22   -1    0    0    0    0 -0.00000000000E+00 -0.00000000000E+00 -0.95964640904E+02  0.95964640904E+02  0.00000000000E+00 0. -1.
         24    2    1    2    0    0  0.68737762277E+02 -0.79159470097E+02  0.13762943637E+02  0.15371164452E+03  0.11156500067E+03 0.  0.
         25    2    1    2    0    0 -0.57535470202E+02  0.87535671595E+02  0.25362108041E+03  0.30156315148E+03  0.12507540833E+03 0.  0.
        -24    2    1    2    0    0 -0.11202292075E+02 -0.83762014980E+01  0.80826511943E+03  0.81230362928E+03  0.79680805467E+02 0.  0.
        -13    1    3    3    0    0  0.11472591833E+02  0.28065651600E+02  0.10574575696E+02  0.32111101106E+02  0.00000000000E+00 0.  1.
         14    1    3    3    0    0  0.57265170444E+02 -0.10722512170E+03  0.31883679408E+01  0.12160054342E+03  0.00000000000E+00 0. -1.
         13    1    5    5    0    0  0.93410822793E+01 -0.39898780568E+02  0.51638901426E+03  0.51801233823E+03  0.00000000000E+00 0. -1.
        -14    1    5    5    0    0 -0.20543374354E+02  0.31522579070E+02  0.29187610517E+03  0.29429129105E+03  0.00000000000E+00 0.  1.
          5    1    4    4  501    0 -0.52962988138E+02  0.43658430031E+02  0.32522725050E+02  0.76067974009E+02  0.41800000000E+01 0.  1.
         -5    1    4    4    0  501 -0.45724820642E+01  0.43877241564E+02  0.22109835536E+03  0.22549517747E+03  0.41800000000E+01 0.  1.
</event>
<event>
11    1  0.8479398E-009  0.1457857E+03  0.7561462E-02  0.1101264E+00
         22   -1    0    0    0    0  0.00000000000E+00  0.00000000000E+00  0.40227883712E+03  0.40227883712E+03  0.00000000000E+00 0. -1.
         22   -1    0    0    0    0 -0.00000000000E+00 -0.00000000000E+00 -0.20851079481E+03  0.20851079481E+03  0.00000000000E+00 0.  1.
         24    2    1    2    0    0 -0.71537774059E+02  0.27576572552E+02 -0.15605122312E+03  0.19152033447E+03  0.80311479919E+02 0.  0.
         25    2    1    2    0    0  0.58474365669E+02 -0.52101107708E+01  0.15387003949E+03  0.20680944640E+03  0.12509101237E+03 0.  0.
        -24    2    1    2    0    0  0.13063408390E+02 -0.22366461781E+02  0.19594922594E+03  0.21245985106E+03  0.77924180570E+02 0.  0.
        -13    1    3    3    0    0 -0.51048828486E+02  0.54112379072E+02 -0.84996623057E+02  0.11295378874E+03  0.00000000000E+00 0.  1.
         14    1    3    3    0    0 -0.20488945573E+02 -0.26535806520E+02 -0.71054600058E+02  0.78566545729E+02  0.00000000000E+00 0. -1.
         13    1    5    5    0    0  0.43531429588E+02 -0.26011346416E+02  0.10804178129E+03  0.11935075202E+03  0.00000000000E+00 0. -1.
        -14    1    5    5    0    0 -0.30468021198E+02  0.36448846343E+01  0.87907444649E+02  0.93109099042E+02  0.00000000000E+00 0.  1.
          5    1    4    4  501    0  0.50635862493E+02  0.45867750850E+02  0.13549798907E+03  0.15180585819E+03  0.41800000000E+01 0. -1.
         -5    1    4    4    0  501  0.78385031769E+01 -0.51077861621E+02  0.18372050416E+02  0.55003588213E+02  0.41800000000E+01 0. -1.
</event>
<event>
11    1  0.8479398E-009  0.1355488E+03  0.7561462E-02  0.1112633E+00
         22   -1    0    0    0    0  0.00000000000E+00  0.00000000000E+00  0.56754723174E+02  0.56754723174E+02  0.00000000000E+00 0. -1.
         22   -1    0    0    0    0 -0.00000000000E+00 -0.00000000000E+00 -0.24240175269E+04  0.24240175269E+04  0.00000000000E+00 0. -1.
         24    2    1    2    0    0 -0.48342939706E+02  0.25714714508E+02 -0.20268364209E+04  0.20292143302E+04  0.81526892528E+02 0.  0.
         25    2    1    2    0    0  0.67620337099E+01 -0.39304252324E+02 -0.33207811526E+03  0.35709312988E+03  0.12509628061E+03 0.  0.
        -24    2    1    2    0    0  0.41580905997E+02  0.13589537815E+02 -0.83482675567E+01  0.94464790043E+02  0.83308197107E+02 0.  0.
        -11    1    3    3    0    0 -0.12345983716E+02  0.32253322732E+02 -0.16976180503E+04  0.16979693004E+04  0.00000000000E+00 0.  1.
         12    1    3    3    0    0 -0.35996955990E+02 -0.65386082236E+01 -0.32921837060E+03  0.33124502982E+03  0.00000000000E+00 0. -1.
         13    1    5    5    0    0  0.26720590750E+02  0.46939321457E+02  0.77452295437E+01  0.54564443089E+02  0.00000000000E+00 0. -1.
        -14    1    5    5    0    0  0.14860315247E+02 -0.33349783642E+02 -0.16093497100E+02  0.39900346955E+02  0.00000000000E+00 0.  1.
          5    1    4    4  501    0 -0.10566964393E+02 -0.83118022083E+02 -0.21920099381E+03  0.23470580398E+03  0.41800000000E+01 0. -1.
         -5    1    4    4    0  501  0.17328998103E+02  0.43813769759E+02 -0.11287712145E+03  0.12238732591E+03  0.41800000000E+01 0. -1.
</event>
<event>
11    1  0.8479398E-009  0.1360623E+03  0.7561462E-02  0.1112037E+00
         22   -1    0    0    0    0  0.00000000000E+00  0.00000000000E+00  0.58304304808E+03  0.58304304808E+03  0.00000000000E+00 0. -1.
         22   -1    0    0    0    0 -0.00000000000E+00 -0.00000000000E+00 -0.11610355182E+03  0.11610355182E+03  0.00000000000E+00 0. -1.
        -24    2    1    2    0    0  0.25170876855E+02  0.56630830712E+02 -0.39562224043E+02  0.11104430736E+03  0.83216852847E+02 0.  0.
         25    2    1    2    0    0 -0.26946706020E+02 -0.15957422131E+02  0.79420714105E+02  0.15144663045E+03  0.12509063818E+03 0.  0.
         24    2    1    2    0    0  0.17758291658E+01 -0.40673408581E+02  0.42708100621E+03  0.43665566208E+03  0.81317289872E+02 0.  0.
        -11    1    5    5    0    0 -0.39276806649E+02 -0.14351240797E+02  0.21653672164E+03  0.22053747408E+03  0.00000000000E+00 0.  1.
         12    1    5    5    0    0  0.41052635815E+02 -0.26322167785E+02  0.21054428456E+03  0.21611818800E+03  0.00000000000E+00 0. -1.
         13    1    3    3    0    0  0.33417063990E+02  0.60510909122E+02 -0.58157522994E+02  0.90335860927E+02  0.00000000000E+00 0. -1.
        -14    1    3    3    0    0 -0.82461871360E+01 -0.38800784101E+01  0.18595298951E+02  0.20708446436E+02  0.00000000000E+00 0.  1.
          5    1    4    4  501    0 -0.34955735492E+01  0.51969881404E+02  0.53904545733E+02  0.75075029526E+02  0.41800000000E+01 0. -1.
         -5    1    4    4    0  501 -0.23451132471E+02 -0.67927303535E+02  0.25516168372E+02  0.76371600927E+02  0.41800000000E+01 0. -1.
</event>
<event>
11    1  0.8479398E-009  0.1348254E+03  0.7561462E-02  0.1113478E+00
         22   -1    0    0    0    0  0.00000000000E+00  0.00000000000E+00  0.23118565569E+03  0.23118565569E+03  0.00000000000E+00 0. -1.
         22   -1    0    0    0    0 -0.00000000000E+00 -0.00000000000E+00 -0.16010826074E+03  0.16010826074E+03  0.00000000000E+00 0. -1.
        -24    2    1    2    0    0 -0.53042518809E+00  0.32125046778E+02 -0.62441821302E+02  0.10670446202E+03  0.80340283703E+02 0.  0.
         25    2    1    2    0    0 -0.37460378388E+02 -0.57713282598E+02  0.30228656301E+02  0.14593029254E+03  0.12509106955E+03 0.  0.
         24    2    1    2    0    0  0.37990803577E+02  0.25588235821E+02  0.10329055995E+03  0.13865916187E+03  0.80370171245E+02 0.  0.
        -13    1    5    5    0    0 -0.32036962279E+01  0.18686210307E+02 -0.73986770296E+01  0.20351377028E+02  0.00000000000E+00 0.  1.
         14    1    5    5    0    0  0.41194499804E+02  0.69020255141E+01  0.11068923698E+03  0.11830778484E+03  0.00000000000E+00 0. -1.
         13    1    3    3    0    0 -0.59067087939E+01  0.20904130779E+02 -0.81277469874E+02  0.84130250217E+02  0.00000000000E+00 0. -1.
        -14    1    3    3    0    0  0.53762836058E+01  0.11220915998E+02  0.18835648572E+02  0.22574211800E+02  0.00000000000E+00 0.  1.
          5    1    4    4  501    0 -0.45974988768E+01  0.38598267673E+02  0.18987427892E+02  0.43462145382E+02  0.41800000000E+01 0.  1.
         -5    1    4    4    0  501 -0.32862879512E+02 -0.96311550271E+02  0.11241228409E+02  0.10246814716E+03  0.41800000000E+01 0.  1.
</event>
<event>
11    1  0.8479398E-009  0.1476908E+03  0.7561462E-02  0.1099262E+00
         22   -1    0    0    0    0  0.00000000000E+00  0.00000000000E+00  0.15545723315E+03  0.15545723315E+03  0.00000000000E+00 0.  1.
         22   -1    0    0    0    0 -0.00000000000E+00 -0.00000000000E+00 -0.18027423652E+04  0.18027423652E+04  0.00000000000E+00 0. -1.
         24    2    1    2    0    0 -0.75151708443E+02 -0.19584675486E+01 -0.11732352680E+04  0.11785061341E+04  0.82122464684E+02 0.  0.
         25    2    1    2    0    0  0.90712793662E+02 -0.32259273922E+02 -0.60265955775E+03  0.62298886018E+03  0.12508839142E+03 0.  0.
        -24    2    1    2    0    0 -0.15561085219E+02  0.34217741471E+02  0.12860969372E+03  0.15670460404E+03  0.81258097478E+02 0.  0.
        -11    1    3    3    0    0 -0.14234583838E+01  0.42397637059E+01 -0.19377230401E+01  0.48740743359E+01  0.00000000000E+00 0.  1.
         12    1    3    3    0    0 -0.73728250060E+02 -0.61982312545E+01 -0.11712975449E+04  0.11736320598E+04  0.00000000000E+00 0. -1.
         11    1    5    5    0    0  0.20530584128E+02 -0.12980654203E+02  0.66288750422E+02  0.70598871809E+02  0.00000000000E+00 0. -1.
        -12    1    5    5    0    0 -0.36091669346E+02  0.47198395674E+02  0.62320943294E+02  0.86105732233E+02  0.00000000000E+00 0.  1.
          5    1    4    4  501    0  0.37590042827E+02 -0.45642097193E+02 -0.92394438780E+02  0.10977439170E+03  0.41800000000E+01 0. -1.
         -5    1    4    4    0  501  0.53122750835E+02  0.13382823271E+02 -0.51026511897E+03  0.51321446847E+03  0.41800000000E+01 0. -1.
</event>
<event>
11    1  0.8479398E-009  0.1400862E+03  0.7561462E-02  0.1107462E+00
         22   -1    0    0    0    0  0.00000000000E+00  0.00000000000E+00  0.17678449157E+04  0.17678449157E+04  0.00000000000E+00 0.  1.
         22   -1    0    0    0    0 -0.00000000000E+00 -0.00000000000E+00 -0.23521011180E+03  0.23521011180E+03  0.00000000000E+00 0.  1.
         24    2    1    2    0    0 -0.25314291474E+02 -0.60763323243E+02 -0.20294016435E+03  0.22795660945E+03  0.80290165533E+02 0.  0.
         25    2    1    2    0    0  0.31863951576E+00  0.15955391276E+02  0.19974306258E+03  0.23621930317E+03  0.12509033576E+03 0.  0.
        -24    2    1    2    0    0  0.24995651959E+02  0.44807931967E+02  0.15358319057E+04  0.15388791149E+04  0.82077733631E+02 0.  0.
        -13    1    3    3    0    0 -0.45030255928E+02 -0.68059177941E+02 -0.17399936520E+03  0.19218625014E+03  0.00000000000E+00 0.  1.
         14    1    3    3    0    0  0.19715964453E+02  0.72958546978E+01 -0.28940799147E+02  0.35770359313E+02  0.00000000000E+00 0. -1.
         11    1    5    5    0    0  0.24160945001E+02 -0.18506481546E+02  0.69518486342E+03  0.69585072785E+03  0.00000000000E+00 0. -1.
        -12    1    5    5    0    0  0.83470695744E+00  0.63314413512E+02  0.84064704226E+03  0.84302838703E+03  0.00000000000E+00 0.  1.
          5    1    4    4  501    0 -0.20040620527E+02  0.44246795251E+02  0.19367406829E+02  0.52459262370E+02  0.41800000000E+01 0.  1.
         -5    1    4    4    0  501  0.20359260043E+02 -0.28291403975E+02  0.18037565575E+03  0.18376004080E+03  0.41800000000E+01 0.  1.
</event>
<event>
11    1  0.8479398E-009  0.1367225E+03  0.7561462E-02  0.1111274E+00
         22   -1    0    0    0    0  0.00000000000E+00  0.00000000000E+00  0.18154334790E+03  0.18154334790E+03  0.00000000000E+00 0. -1.
         22   -1    0    0    0    0 -0.00000000000E+00 -0.00000000000E+00 -0.41388038602E+03  0.41388038602E+03  0.00000000000E+00 0.  1.
        -24    2    1    2    0    0  0.14387382942E+02  0.23044137687E+02 -0.27332696933E+03  0.28600325399E+03  0.79700690482E+02 0.  0.
         25    2    1    2    0    0 -0.27341009651E+02 -0.73114550333E+02 -0.69605751840E+02  0.16305249590E+03  0.12509151630E+03 0.  0.
         24    2    1    2    0    0  0.12953626709E+02  0.50070412647E+02  0.11059568305E+03  0.14636798403E+03  0.80730037610E+02 0.  0.
        -13    1    5    5    0    0  0.26721400419E+02  0.21321928921E+02  0.31922070930E+01  0.34334357128E+02  0.00000000000E+00 0.  1.
         14    1    5    5    0    0 -0.13767773710E+02  0.28748483726E+02  0.10740347596E+03  0.11203362690E+03  0.00000000000E+00 0. -1.
         11    1    3    3    0    0  0.22514968988E+01 -0.29850036724E+02 -0.97418937906E+02  0.10191439247E+03  0.00000000000E+00 0. -1.
        -12    1    3    3    0    0  0.12135886043E+02  0.52894174411E+02 -0.17590803142E+03  0.18408886152E+03  0.00000000000E+00 0.  1.
          5    1    4    4  501    0  0.13629776425E+02 -0.82837931452E+02 -0.29601440734E+01  0.84107838788E+02  0.41800000000E+01 0. -1.
         -5    1    4    4    0  501 -0.40970786076E+02  0.97233811190E+01 -0.66645607767E+02  0.78944657113E+02  0.41800000000E+01 0. -1.
</event>
<event>
11    1  0.8479398E-009  0.1324747E+03  0.7561462E-02  0.1116265E+00
         22   -1    0    0    0    0  0.00000000000E+00  0.00000000000E+00  0.99203615059E+03  0.99203615059E+03  0.00000000000E+00 0.  1.
         22   -1    0    0    0    0 -0.00000000000E+00 -0.00000000000E+00 -0.74485938533E+03  0.74485938533E+03  0.00000000000E+00 0. -1.
         24    2    1    2    0    0 -0.43707183616E+02  0.20481645889E+01 -0.72313801609E+03  0.72886913111E+03  0.80044407026E+02 0.  0.
         25    2    1    2    0    0  0.27830317137E+02 -0.36368599857E+02  0.25786291754E+03  0.29023831254E+03  0.12509113564E+03 0.  0.
        -24    2    1    2    0    0  0.15876866478E+02  0.34320435268E+02  0.71245186381E+03  0.71778809226E+03  0.78753539477E+02 0.  0.
        -11    1    3    3    0    0 -0.15516885403E+01  0.11105988435E+02 -0.11995988760E+02  0.16421158996E+02  0.00000000000E+00 0.  1.
         12    1    3    3    0    0 -0.42155495075E+02 -0.90578238460E+01 -0.71114202733E+03  0.71244797212E+03  0.00000000000E+00 0. -1.
         13    1    5    5    0    0 -0.14958486426E+01 -0.13693019362E+02  0.25855610737E+02  0.29295886212E+02  0.00000000000E+00 0. -1.
        -14    1    5    5    0    0  0.17372715121E+02  0.48013454630E+02  0.68659625307E+03  0.68849220605E+03  0.00000000000E+00 0.  1.
          5    1    4    4  501    0  0.45760557739E+02  0.27930647169E+02  0.56238114180E+02  0.77809688230E+02  0.41800000000E+01 0.  1.
         -5    1    4    4    0  501 -0.17930240601E+02 -0.64299247026E+02  0.20162480336E+03  0.21242862431E+03  0.41800000000E+01 0.  1.
</event>
<event>
11    1  0.8479398E-009  0.1456601E+03  0.7561462E-02  0.1101398E+00
         22   -1    0    0    0    0  0.00000000000E+00  0.00000000000E+00  0.13553325849E+03  0.13553325849E+03  0.00000000000E+00 0.  1.
         22   -1    0    0    0    0 -0.00000000000E+00 -0.00000000000E+00 -0.54904084483E+03  0.54904084483E+03  0.00000000000E+00 0.  1.
        -24    2    1    2    0    0  0.95143205242E+01 -0.36137173968E+02 -0.40013537411E+03  0.41000728301E+03  0.81247996114E+02 0.  0.
         25    2    1    2    0    0  0.43017993315E+02  0.81914769578E+02 -0.48261828631E+02  0.16290018487E+03  0.12508672553E+03 0.  0.
         24    2    1    2    0    0 -0.52532313839E+02 -0.45777595610E+02  0.34889616399E+02  0.11166663544E+03  0.79980746934E+02 0.  0.
        -11    1    5    5    0    0 -0.63573732972E+02 -0.60194558679E+02  0.32325913559E+02  0.93327215248E+02  0.00000000000E+00 0.  1.
         12    1    5    5    0    0  0.11041419133E+02  0.14416963069E+02  0.25637028391E+01  0.18339420188E+02  0.00000000000E+00 0. -1.
         11    1    3    3    0    0  0.97815459736E+01 -0.24423779732E+02 -0.30888671571E+02  0.40574742013E+02  0.00000000000E+00 0. -1.
        -12    1    3    3    0    0 -0.26722544942E+00 -0.11713394236E+02 -0.36924670254E+03  0.36943254100E+03  0.00000000000E+00 0.  1.
          5    1    4    4  501    0 -0.41816683793E+02  0.38871043007E+02 -0.26213940168E+01  0.57305646620E+02  0.41800000000E+01 0. -1.
         -5    1    4    4    0  501  0.84834677108E+02  0.43043726570E+02 -0.45640434614E+02  0.10559453825E+03  0.41800000000E+01 0. -1.
</event>
<event>
11    1  0.8479398E-009  0.1593156E+03  0.7561462E-02  0.1087723E+00
         22   -1    0    0    0    0  0.00000000000E+00  0.00000000000E+00  0.41833602426E+03  0.41833602426E+03  0.00000000000E+00 0. -1.
         22   -1    0    0    0    0 -0.00000000000E+00 -0.00000000000E+00 -0.18210558831E+03  0.18210558831E+03  0.00000000000E+00 0.  1.
         24    2    1    2    0    0 -0.62937921263E+02  0.27125599817E+02 -0.85218186955E+02  0.13266179695E+03  0.75100152354E+02 0.  0.
         25    2    1    2    0    0  0.12201968886E+03 -0.89016183451E+02  0.10724487530E+03  0.22351435344E+03  0.12507804574E+03 0.  0.
        -24    2    1    2    0    0 -0.59081767600E+02  0.61890583634E+02  0.21420374760E+03  0.24426546218E+03  0.80382031081E+02 0.  0.
        -13    1    3    3    0    0 -0.63361889244E+02  0.48226454020E+02 -0.59555389051E+02  0.99435226359E+02  0.00000000000E+00 0.  1.
         14    1    3    3    0    0  0.42396798098E+00 -0.21100854203E+02 -0.25662797904E+02  0.33226570591E+02  0.00000000000E+00 0. -1.
         11    1    5    5    0    0 -0.63685392772E+02  0.70232543613E+02  0.13776549633E+03  0.16723567626E+03  0.00000000000E+00 0. -1.
        -12    1    5    5    0    0  0.46036251719E+01 -0.83419599787E+01  0.76438251276E+02  0.77029785922E+02  0.00000000000E+00 0.  1.
          5    1    4    4  501    0  0.49532078195E+02 -0.81961069721E+02  0.25248863029E+01  0.95889995156E+02  0.41800000000E+01 0.  1.
         -5    1    4    4    0  501  0.72487610668E+02 -0.70551137301E+01  0.10471998900E+03  0.12762435828E+03  0.41800000000E+01 0.  1.
</event>
<event>
11    1  0.8479398E-009  0.1285526E+03  0.7561462E-02  0.1121060E+00
         22   -1    0    0    0    0  0.00000000000E+00  0.00000000000E+00  0.22219615464E+03  0.22219615464E+03  0.00000000000E+00 0.  1.
         22   -1    0    0    0    0 -0.00000000000E+00 -0.00000000000E+00 -0.30959370628E+03  0.30959370628E+03  0.00000000000E+00 0.  1.
        -24    2    1    2    0    0 -0.26951277129E+02  0.24406754753E+01 -0.23426275412E+03  0.24911202499E+03  0.80283465251E+02 0.  0.
         25    2    1    2    0    0 -0.58984188461E+01  0.89427830766E+01  0.17619859030E+02  0.12677743107E+03  0.12508913975E+03 0.  0.
         24    2    1    2    0    0  0.32849695975E+02 -0.11383458552E+02  0.12924534345E+03  0.15590040485E+03  0.79949307542E+02 0.  0.
        -11    1    5    5    0    0  0.48211272745E+02  0.19866192553E+02  0.72055656513E+02  0.88943859045E+02  0.00000000000E+00 0.  1.
         12    1    5    5    0    0 -0.15361576770E+02 -0.31249651105E+02  0.57189686934E+02  0.66956545809E+02  0.00000000000E+00 0. -1.
         11    1    3    3    0    0  0.17691881462E+02  0.10842990841E+02 -0.16488179515E+03  0.16618236818E+03  0.00000000000E+00 0. -1.
        -12    1    3    3    0    0 -0.44643158591E+02 -0.84023153660E+01 -0.69380958968E+02  0.82929656817E+02  0.00000000000E+00 0.  1.
          5    1    4    4  501    0 -0.45754477738E+02 -0.31785636203E+02 -0.18884479799E+02  0.58973679546E+02  0.41800000000E+01 0.  1.
         -5    1    4    4    0  501  0.39856058892E+02  0.40728419279E+02  0.36504338829E+02  0.67803751524E+02  0.41800000000E+01 0.  1.
</event>
<event>
11    1  0.8479398E-009  0.1283995E+03  0.7561462E-02  0.1121251E+00
         22   -1    0    0    0    0  0.00000000000E+00  0.00000000000E+00  0.89086712743E+03  0.89086712743E+03  0.00000000000E+00 0. -1.
         22   -1    0    0    0    0 -0.00000000000E+00 -0.00000000000E+00 -0.15464023710E+03  0.15464023710E+03  0.00000000000E+00 0. -1.
        -24    2    1    2    0    0  0.19614002252E+02 -0.13789338322E+02 -0.99480597488E+02  0.12937558467E+03  0.79163108183E+02 0.  0.
         25    2    1    2    0    0 -0.44506230580E+02  0.33613848805E+00  0.78243527066E+02  0.15411915121E+03  0.12509894361E+03 0.  0.
         24    2    1    2    0    0  0.24892228328E+02  0.13453199834E+02  0.75746396075E+03  0.76201262864E+03  0.78172775066E+02 0.  0.
        -11    1    5    5    0    0  0.32079667999E+00  0.35518162213E+01 -0.48654473531E+00  0.35993103172E+01  0.00000000000E+00 0.  1.
         12    1    5    5    0    0  0.24571431648E+02  0.99013836127E+01  0.75795050548E+03  0.75841331833E+03  0.00000000000E+00 0. -1.
         11    1    3    3    0    0  0.36393330549E+02 -0.13386943954E+02 -0.10481986678E+03  0.11176264693E+03  0.00000000000E+00 0. -1.
        -12    1    3    3    0    0 -0.16779328297E+02 -0.40239436825E+00  0.53392692931E+01  0.17612937742E+02  0.00000000000E+00 0.  1.
          5    1    4    4  501    0  0.32213566950E+01 -0.29658931695E+02  0.91269425914E+02  0.96112485530E+02  0.41800000000E+01 0. -1.
         -5    1    4    4    0  501 -0.47727587275E+02  0.29995070183E+02 -0.13025898848E+02  0.58006665678E+02  0.41800000000E+01 0. -1.
</event>
<event>
11    1  0.1162273E-008  0.1532682E+03  0.7561462E-02  0.1093585E+00
         22   -1    0    0    0    0  0.00000000000E+00  0.00000000000E+00  0.25564531332E+03  0.25564531332E+03  0.00000000000E+00 0. -1.
         22   -1    0    0    0    0 -0.00000000000E+00 -0.00000000000E+00 -0.20031002066E+04  0.20031002066E+04  0.00000000000E+00 0. -1.
         24    2    1    2    0    0 -0.31678892941E+02 -0.32951771190E+02 -0.11360452094E+04  0.11397058542E+04  0.79002181602E+02 0.  0.
         25    2    1    2    0    0 -0.22740542043E+01  0.11442522668E+03 -0.84180761141E+03  0.85870976967E+03  0.12507641694E+03 0.  0.
        -24    2    1    2    0    0  0.33952947145E+02 -0.81473455493E+02  0.23039792756E+03  0.26032989608E+03  0.83052532770E+02 0.  0.
        -13    1    3    3    0    0 -0.43046267561E+02 -0.30474051570E+00 -0.31434953029E+03  0.31728331380E+03  0.00000000000E+00 0.  1.
         14    1    3    3    0    0  0.11367374620E+02 -0.32647030674E+02 -0.82169567916E+03  0.82242254040E+03  0.00000000000E+00 0. -1.
         13    1    5    5    0    0 -0.56842519992E+01 -0.80179543818E+02  0.17043536585E+03  0.18843907211E+03  0.00000000000E+00 0. -1.
        -14    1    5    5    0    0  0.39637199144E+02 -0.12939116751E+01  0.59962561711E+02  0.71890823965E+02  0.00000000000E+00 0.  1.
          5    1    4    4  501    0  0.32521010230E+02  0.90595450424E+01 -0.45526442792E+03  0.45653352910E+03  0.41800000000E+01 0.  1.
         -5    1    4    4    0  501 -0.34795064435E+02  0.10536568164E+03 -0.38654318349E+03  0.40217624057E+03  0.41800000000E+01 0.  1.
</event>
<event>
11    1  0.8479398E-009  0.1434289E+03  0.7561462E-02  0.1103789E+00
         22   -1    0    0    0    0  0.00000000000E+00  0.00000000000E+00  0.26369849585E+03  0.26369849585E+03  0.00000000000E+00 0.  1.
         22   -1    0    0    0    0 -0.00000000000E+00 -0.00000000000E+00 -0.40662649264E+03  0.40662649264E+03  0.00000000000E+00 0.  1.
         24    2    1    2    0    0 -0.52648687459E+02 -0.69975512867E+02 -0.23291699067E+03  0.26180548377E+03  0.81383844199E+02 0.  0.
         25    2    1    2    0    0 -0.12606251032E+02  0.46710593478E+02 -0.11538620606E+03  0.17692808560E+03  0.12509505913E+03 0.  0.
        -24    2    1    2    0    0  0.65254938491E+02  0.23264919389E+02  0.20537519994E+03  0.23159141912E+03  0.81585226522E+02 0.  0.
        -13    1    3    3    0    0 -0.53260317457E+02 -0.87229964697E+02 -0.19580749094E+03  0.22087621344E+03  0.00000000000E+00 0.  1.
         14    1    3    3    0    0  0.61162999782E+00  0.17254451830E+02 -0.37109499732E+02  0.40929270328E+02  0.00000000000E+00 0. -1.
         11    1    5    5    0    0  0.30858635933E+02  0.42736575960E+01  0.10621833557E+02  0.32914174895E+02  0.00000000000E+00 0. -1.
        -12    1    5    5    0    0  0.34396302557E+02  0.18991261793E+02  0.19475336638E+03  0.19867724422E+03  0.00000000000E+00 0.  1.
          5    1    4    4  501    0 -0.56048369292E+02  0.65748790769E+02 -0.75609286530E+02  0.11488498508E+03  0.41800000000E+01 0. -1.
         -5    1    4    4    0  501  0.43442118261E+02 -0.19038197291E+02 -0.39776919529E+02  0.62043100521E+02  0.41800000000E+01 0. -1.
</event>
<event>
11    1  0.8479398E-009  0.1872984E+03  0.7561462E-02  0.1063888E+00
         22   -1    0    0    0    0  0.00000000000E+00  0.00000000000E+00  0.10091459424E+03  0.10091459424E+03  0.00000000000E+00 0. -1.
         22   -1    0    0    0    0 -0.00000000000E+00 -0.00000000000E+00 -0.15767361144E+04  0.15767361144E+04  0.00000000000E+00 0. -1.
         24    2    1    2    0    0 -0.13903388178E+03  0.17911996872E+02 -0.13773873134E+04  0.13868272393E+04  0.80266559242E+02 0.  0.
         25    2    1    2    0    0  0.12732000069E+03 -0.33866436827E+02 -0.10395293238E+03  0.20931118389E+03  0.12509053294E+03 0.  0.
        -24    2    1    2    0    0  0.11713881092E+02  0.15954439955E+02  0.55187256328E+01  0.81512285480E+02  0.78879890891E+02 0.  0.
        -13    1    3    3    0    0 -0.10565152690E+03  0.45599006810E+02 -0.11095725597E+04  0.11155235452E+04  0.00000000000E+00 0.  1.
         14    1    3    3    0    0 -0.33382354885E+02 -0.27687009938E+02 -0.26781475368E+03  0.27130369409E+03  0.00000000000E+00 0. -1.
         11    1    5    5    0    0 -0.12590596753E+01  0.65896432000E+01  0.41550095251E+02  0.42088229283E+02  0.00000000000E+00 0. -1.
        -12    1    5    5    0    0  0.12972940767E+02  0.93647967547E+01 -0.36031369619E+02  0.39424056197E+02  0.00000000000E+00 0.  1.
          5    1    4    4  501    0  0.76153293435E+02  0.24713317720E+02 -0.10413224298E+03  0.13141943768E+03  0.41800000000E+01 0. -1.
         -5    1    4    4    0  501  0.51166707254E+02 -0.58579754547E+02  0.17931059777E+00  0.77891746202E+02  0.41800000000E+01 0. -1.
</event>
<event>
11    1  0.8479398E-009  0.1354782E+03  0.7561462E-02  0.1112715E+00
         22   -1    0    0    0    0  0.00000000000E+00  0.00000000000E+00  0.14486327736E+03  0.14486327736E+03  0.00000000000E+00 0.  1.
         22   -1    0    0    0    0 -0.00000000000E+00 -0.00000000000E+00 -0.13416125573E+04  0.13416125573E+04  0.00000000000E+00 0.  1.
        -24    2    1    2    0    0 -0.14258330859E+02  0.28655501023E+02 -0.12425192220E+04  0.12454854040E+04  0.79720993545E+02 0.  0.
         25    2    1    2    0    0  0.29985663827E+02  0.27595880555E+02 -0.80759956059E+01  0.13180686235E+03  0.12508858700E+03 0.  0.
         24    2    1    2    0    0 -0.15727332968E+02 -0.56251381577E+02  0.53845937670E+02  0.10918356830E+03  0.74900598476E+02 0.  0.
        -13    1    5    5    0    0 -0.25113743862E+02 -0.26585723365E+02  0.66260426075E+02  0.75683187573E+02  0.00000000000E+00 0.  1.
         14    1    5    5    0    0  0.93864108943E+01 -0.29665658212E+02 -0.12414488405E+02  0.33500380729E+02  0.00000000000E+00 0. -1.
         13    1    3    3    0    0  0.29202943487E+02 -0.39735583756E+01 -0.57635325562E+03  0.57710629553E+03  0.00000000000E+00 0. -1.
        -14    1    3    3    0    0 -0.43461274346E+02  0.32629059398E+02 -0.66616596636E+03  0.66837910845E+03  0.00000000000E+00 0.  1.
          5    1    4    4  501    0  0.31867719939E+02  0.16779432879E+01 -0.63087653413E+02  0.70822958714E+02  0.41800000000E+01 0. -1.
         -5    1    4    4    0  501 -0.18820561126E+01  0.25917937267E+02  0.55011657807E+02  0.60983903631E+02  0.41800000000E+01 0. -1.
</event>
<event>
11    1  0.8479398E-009  0.1393188E+03  0.7561462E-02  0.1108321E+00
         22   -1    0    0    0    0  0.00000000000E+00  0.00000000000E+00  0.43542018398E+03  0.43542018398E+03  0.00000000000E+00 0. -1.
         22   -1    0    0    0    0 -0.00000000000E+00 -0.00000000000E+00 -0.35960421449E+03  0.35960421449E+03  0.00000000000E+00 0.  1.
         24    2    1    2    0    0  0.41686505181E+02 -0.45712398145E+02 -0.30628058549E+03  0.32266292263E+03  0.80474695009E+02 0.  0.
         25    2    1    2    0    0 -0.37770946945E+02  0.38250960064E+02  0.76522398758E+02  0.15618525070E+03  0.12509346365E+03 0.  0.
        -24    2    1    2    0    0 -0.39155582360E+01  0.74614380812E+01  0.30557415622E+03  0.31617622513E+03  0.80751691853E+02 0.  0.
        -13    1    3    3    0    0  0.11999954695E+02 -0.35187717562E+02 -0.27755570650E+03  0.28003454178E+03  0.00000000000E+00 0.  1.
         14    1    3    3    0    0  0.29686550486E+02 -0.10524680584E+02 -0.28724878985E+02  0.42628380849E+02  0.00000000000E+00 0. -1.
         11    1    5    5    0    0 -0.63892820929E+01 -0.13628535079E+02  0.28859706622E+03  0.28898931905E+03  0.00000000000E+00 0. -1.
        -12    1    5    5    0    0  0.24737238569E+01  0.21089973161E+02  0.16977089998E+02  0.27186906084E+02  0.00000000000E+00 0.  1.
          5    1    4    4  501    0 -0.50846585598E+02  0.72482662813E+02  0.23682138177E+02  0.91746540774E+02  0.41800000000E+01 0. -1.
         -5    1    4    4    0  501  0.13075638653E+02 -0.34231702749E+02  0.52840260581E+02  0.64438709931E+02  0.41800000000E+01 0. -1.
</event>
<event>
11    1  0.8479398E-009  0.1277738E+03  0.7561462E-02  0.1122035E+00
         22   -1    0    0    0    0  0.00000000000E+00  0.00000000000E+00  0.40293579422E+03  0.40293579422E+03  0.00000000000E+00 0.  1.
         22   -1    0    0    0    0 -0.00000000000E+00 -0.00000000000E+00 -0.46287013120E+03  0.46287013120E+03  0.00000000000E+00 0.  1.
        -24    2    1    2    0    0  0.32104529928E+02  0.35645763334E+01 -0.27993237310E+03  0.29278104907E+03  0.79468246124E+02 0.  0.
         25    2    1    2    0    0 -0.44631254265E+01  0.57991023261E+01 -0.14986032127E+03  0.19534257881E+03  0.12508820139E+03 0.  0.
         24    2    1    2    0    0 -0.27641404502E+02 -0.93636786595E+01  0.36985835740E+03  0.37768229754E+03  0.70689374157E+02 0.  0.
        -11    1    5    5    0    0 -0.39280339057E+01 -0.32926064248E+01  0.33526647076E+03  0.33530564731E+03  0.00000000000E+00 0.  1.
         12    1    5    5    0    0 -0.23713370596E+02 -0.60710722348E+01  0.34591886642E+02  0.42376650228E+02  0.00000000000E+00 0. -1.
         11    1    3    3    0    0  0.32103255902E+02 -0.11530598154E+02 -0.40835731865E+02  0.53208370867E+02  0.00000000000E+00 0. -1.
        -12    1    3    3    0    0  0.12740261960E-02  0.15095174488E+02 -0.23909664123E+03  0.23957267821E+03  0.00000000000E+00 0.  1.
          5    1    4    4  501    0  0.20858148886E+02 -0.39072747172E+02 -0.13412099493E+03  0.14130695534E+03  0.41800000000E+01 0.  1.
         -5    1    4    4    0  501 -0.25321274312E+02  0.44871849498E+02 -0.15739326347E+02  0.54035623472E+02  0.41800000000E+01 0.  1.
</event>
<event>
11    1  0.8479398E-009  0.3080201E+03  0.7561462E-02  0.9968529E-01
         22   -1    0    0    0    0  0.00000000000E+00  0.00000000000E+00  0.77612968263E+03  0.77612968263E+03  0.00000000000E+00 0.  1.
         22   -1    0    0    0    0 -0.00000000000E+00 -0.00000000000E+00 -0.39040557339E+03  0.39040557339E+03  0.00000000000E+00 0.  1.
         24    2    1    2    0    0  0.29360306197E+03  0.75276734322E+02 -0.21328303975E+03  0.37893292100E+03  0.78937689625E+02 0.  0.
         25    2    1    2    0    0 -0.19470804522E+03 -0.13596298755E+03  0.12863463738E+03  0.29764270593E+03  0.12508858304E+03 0.  0.
        -24    2    1    2    0    0 -0.98895016758E+02  0.60686253226E+02  0.47037251162E+03  0.48995962908E+03  0.73123818107E+02 0.  0.
        -13    1    3    3    0    0  0.26115148796E+03  0.51956182975E+02 -0.15448258281E+03  0.30783829035E+03  0.00000000000E+00 0.  1.
         14    1    3    3    0    0  0.32451574012E+02  0.23320551347E+02 -0.58800456944E+02  0.71094630654E+02  0.00000000000E+00 0. -1.
         11    1    5    5    0    0 -0.38486343975E+02  0.52262838092E+02  0.14420362753E+03  0.15813693152E+03  0.00000000000E+00 0. -1.
        -12    1    5    5    0    0 -0.60408672784E+02  0.84234151340E+01  0.32616888408E+03  0.33182269756E+03  0.00000000000E+00 0.  1.
          5    1    4    4  501    0 -0.20540480431E+03 -0.10323745394E+03  0.12756566404E+03  0.26294405597E+03  0.41800000000E+01 0. -1.
         -5    1    4    4    0  501  0.10696759091E+02 -0.32725533609E+02  0.10689733363E+01  0.34698649960E+02  0.41800000000E+01 0. -1.
</event>
<event>
11    1  0.8479398E-009  0.1621787E+03  0.7561462E-02  0.1085046E+00
         22   -1    0    0    0    0  0.00000000000E+00  0.00000000000E+00  0.22625983570E+03  0.22625983570E+03  0.00000000000E+00 0.  1.
         22   -1    0    0    0    0 -0.00000000000E+00 -0.00000000000E+00 -0.10575900434E+04  0.10575900434E+04  0.00000000000E+00 0. -1.
         24    2    1    2    0    0 -0.19981583142E+01 -0.41318847056E+02 -0.95616608906E+03  0.96034137302E+03  0.79314078862E+02 0.  0.
         25    2    1    2    0    0 -0.10528416694E+02 -0.82497070995E+02  0.68624747582E+02  0.16515040651E+03  0.12509471015E+03 0.  0.
        -24    2    1    2    0    0  0.12526575008E+02  0.12381591805E+03  0.56211133785E+02  0.15835809957E+03  0.80189148238E+02 0.  0.
        -11    1    3    3    0    0 -0.31299846395E+02  0.78009879801E+01 -0.34657652050E+03  0.34807444658E+03  0.00000000000E+00 0.  1.
         12    1    3    3    0    0  0.29301688081E+02 -0.49119835037E+02 -0.60958956856E+03  0.61226692644E+03  0.00000000000E+00 0. -1.
         13    1    5    5    0    0  0.41093170878E+02  0.33295897231E+02  0.15852682147E+02  0.55213884092E+02  0.00000000000E+00 0. -1.
        -14    1    5    5    0    0 -0.28566595870E+02  0.90520020820E+02  0.40358451638E+02  0.10314421548E+03  0.00000000000E+00 0.  1.
          5    1    4    4  501    0  0.18744936763E+02 -0.10720415719E+03  0.64043606685E+02  0.12634539932E+03  0.41800000000E+01 0.  1.
         -5    1    4    4    0  501 -0.29273353457E+02  0.24707086193E+02  0.45811408973E+01  0.38805007186E+02  0.41800000000E+01 0.  1.
</event>
<event>
11    1  0.8479398E-009  0.1273551E+03  0.7561462E-02  0.1122562E+00
         22   -1    0    0    0    0  0.00000000000E+00  0.00000000000E+00  0.80104555370E+03  0.80104555370E+03  0.00000000000E+00 0. -1.
         22   -1    0    0    0    0 -0.00000000000E+00 -0.00000000000E+00 -0.27976846803E+03  0.27976846803E+03  0.00000000000E+00 0. -1.
         24    2    1    2    0    0  0.21653287460E+02 -0.97703861099E+01 -0.25416844606E+03  0.26823299905E+03  0.82359076632E+02 0.  0.
         25    2    1    2    0    0 -0.27652687272E+02  0.11638326721E+02  0.25299688651E+03  0.28382206109E+03  0.12508963192E+03 0.  0.
        -24    2    1    2    0    0  0.59993998118E+01 -0.18679406113E+01  0.52244864522E+03  0.52875896159E+03  0.81203266992E+02 0.  0.
        -11    1    3    3    0    0 -0.24485533489E+02  0.14658529925E+02 -0.13728991309E+03  0.14022458446E+03  0.00000000000E+00 0.  1.
         12    1    3    3    0    0  0.46138820949E+02 -0.24428916035E+02 -0.11687853297E+03  0.12800841459E+03  0.00000000000E+00 0. -1.
         11    1    5    5    0    0  0.20294279773E-01 -0.21712982317E+02  0.48850827019E+03  0.48899057665E+03  0.00000000000E+00 0. -1.
        -12    1    5    5    0    0  0.59791055320E+01  0.19845041706E+02  0.33940375029E+02  0.39768384936E+02  0.00000000000E+00 0.  1.
          5    1    4    4  501    0 -0.85661732346E+01 -0.31767860986E+01 -0.13149499289E+02  0.16548505231E+02  0.41800000000E+01 0.  1.
         -5    1    4    4    0  501 -0.19086514037E+02  0.14815112820E+02  0.26614638580E+03  0.26727355586E+03  0.41800000000E+01 0.  1.
</event>
<event>
11    1  0.8479398E-009  0.1986990E+03  0.7561462E-02  0.1055447E+00
         22   -1    0    0    0    0  0.00000000000E+00  0.00000000000E+00  0.76455164231E+02  0.76455164231E+02  0.00000000000E+00 0.  1.
         22   -1    0    0    0    0 -0.00000000000E+00 -0.00000000000E+00 -0.91849495483E+03  0.91849495483E+03  0.00000000000E+00 0. -1.
         24    2    1    2    0    0 -0.10968203037E+03 -0.28905452884E+02 -0.24512722208E+03  0.28125317619E+03  0.78423983068E+02 0.  0.
         25    2    1    2    0    0  0.45676699123E+02 -0.13588994200E+03 -0.36732955446E+03  0.41368226077E+03  0.12509825785E+03 0.  0.
        -24    2    1    2    0    0  0.64005331251E+02  0.16479539488E+03 -0.22958301406E+03  0.30001468210E+03  0.77757601100E+02 0.  0.
        -13    1    3    3    0    0 -0.34476829510E+02 -0.21674885550E+01 -0.14970434000E+02  0.37649218768E+02  0.00000000000E+00 0.  1.
         14    1    3    3    0    0 -0.75205200863E+02 -0.26737964330E+02 -0.23015678808E+03  0.24360395742E+03  0.00000000000E+00 0. -1.
         11    1    5    5    0    0  0.41954481211E+02  0.10709037391E+03 -0.85705945415E+02  0.14343652170E+03  0.00000000000E+00 0. -1.
        -12    1    5    5    0    0  0.22050850039E+02  0.57705020972E+02 -0.14387706865E+03  0.15657816040E+03  0.00000000000E+00 0.  1.
          5    1    4    4  501    0  0.68090394039E+02 -0.21198073587E+02 -0.11190016449E+03  0.13275834925E+03  0.41800000000E+01 0. -1.
         -5    1    4    4    0  501 -0.22413694916E+02 -0.11469186841E+03 -0.25542938997E+03  0.28092391152E+03  0.41800000000E+01 0. -1.
</event>
<event>
11    1  0.8479398E-009  0.1371824E+03  0.7561462E-02  0.1110746E+00
         22   -1    0    0    0    0  0.00000000000E+00  0.00000000000E+00  0.39558371559E+03  0.39558371559E+03  0.00000000000E+00 0.  1.
         22   -1    0    0    0    0 -0.00000000000E+00 -0.00000000000E+00 -0.10226804358E+04  0.10226804358E+04  0.00000000000E+00 0. -1.
         24    2    1    2    0    0 -0.52506608993E+02 -0.24128149739E+02 -0.93283798221E+03  0.93807918077E+03  0.80416022957E+02 0.  0.
         25    2    1    2    0    0  0.19022366755E+02  0.24607413000E+02 -0.30121282190E+02  0.13237152367E+03  0.12509018118E+03 0.  0.
        -24    2    1    2    0    0  0.33484242239E+02 -0.47926326103E+00  0.33586254417E+03  0.34781344697E+03  0.83959044453E+02 0.  0.
        -11    1    3    3    0    0  0.15969022798E+02 -0.18790852994E+02 -0.13069609171E+03  0.13300215876E+03  0.00000000000E+00 0.  1.
         12    1    3    3    0    0 -0.68475631791E+02 -0.53372967455E+01 -0.80214189049E+03  0.80507702201E+03  0.00000000000E+00 0. -1.
         13    1    5    5    0    0 -0.23475633364E+02 -0.16686340983E+02  0.75655221171E+02  0.80952157647E+02  0.00000000000E+00 0. -1.
        -14    1    5    5    0    0  0.56959875603E+02  0.16207077722E+02  0.26020732300E+03  0.26686128932E+03  0.00000000000E+00 0.  1.
          5    1    4    4  501    0  0.54225755415E+01 -0.50113078229E+02 -0.24223908940E+02  0.56080255879E+02  0.41800000000E+01 0.  1.
         -5    1    4    4    0  501  0.13599791213E+02  0.74720491229E+02 -0.58973732500E+01  0.76291267795E+02  0.41800000000E+01 0.  1.
</event>
<event>
11    1  0.8479398E-009  0.2291835E+03  0.7561462E-02  0.1035612E+00
         22   -1    0    0    0    0  0.00000000000E+00  0.00000000000E+00  0.22672635370E+04  0.22672635370E+04  0.00000000000E+00 0.  1.
         22   -1    0    0    0    0 -0.00000000000E+00 -0.00000000000E+00 -0.48395727253E+03  0.48395727253E+03  0.00000000000E+00 0.  1.
         24    2    1    2    0    0  0.59460239950E+02  0.19319195406E+03 -0.39159393033E+03  0.44674138407E+03  0.73303524566E+02 0.  0.
         25    2    1    2    0    0 -0.23546585375E+02 -0.13969357502E+03  0.76871338852E+02  0.20402376162E+03  0.12509099082E+03 0.  0.
        -24    2    1    2    0    0 -0.35913654575E+02 -0.53498379048E+02  0.20980288560E+04  0.21004556639E+04  0.77698444028E+02 0.  0.
        -13    1    3    3    0    0  0.13832665143E+02  0.61634669113E+02 -0.20105791056E+03  0.21074738068E+03  0.00000000000E+00 0.  1.
         14    1    3    3    0    0  0.45627574808E+02  0.13155728495E+03 -0.19053601977E+03  0.23599400339E+03  0.00000000000E+00 0. -1.
         11    1    5    5    0    0  0.89212755571E+01 -0.61582202745E+01  0.41468434375E+02  0.42861916477E+02  0.00000000000E+00 0. -1.
        -12    1    5    5    0    0 -0.44834930132E+02 -0.47340158774E+02  0.20565604216E+04  0.20575937474E+04  0.00000000000E+00 0.  1.
          5    1    4    4  501    0 -0.11682643810E+02 -0.11985533337E+03  0.11017319388E+03  0.16327091031E+03  0.41800000000E+01 0.  1.
         -5    1    4    4    0  501 -0.11863941565E+02 -0.19838241649E+02 -0.33301855032E+02  0.40752851308E+02  0.41800000000E+01 0.  1.
</event>
<event>
11    1  0.8479398E-009  0.2497212E+03  0.7561462E-02  0.1024048E+00
         22   -1    0    0    0    0  0.00000000000E+00  0.00000000000E+00  0.38216172285E+04  0.38216172285E+04  0.00000000000E+00 0.  1.
         22   -1    0    0    0    0 -0.00000000000E+00 -0.00000000000E+00 -0.21718831890E+04  0.21718831890E+04  0.00000000000E+00 0.  1.
         24    2    1    2    0    0 -0.19161195605E+02 -0.31091272240E+02 -0.16190211218E+04  0.16211978385E+04  0.75625523809E+02 0.  0.
         25    2    1    2    0    0 -0.15610469670E+03  0.15753466585E+03 -0.51870689644E+03  0.57783213234E+03  0.12508909418E+03 0.  0.
        -24    2    1    2    0    0  0.17526589230E+03 -0.12644339361E+03  0.37874620578E+04  0.37944704467E+04  0.80193930348E+02 0.  0.
        -11    1    3    3    0    0 -0.34810104424E+02  0.70803661895E+01 -0.10867169728E+04  0.10872974082E+04  0.00000000000E+00 0.  1.
         12    1    3    3    0    0  0.15648908819E+02 -0.38171638429E+02 -0.53230414906E+03  0.53390043026E+03  0.00000000000E+00 0. -1.
         13    1    5    5    0    0  0.18710015049E+02 -0.48906475326E+02  0.62665981185E+03  0.62884372286E+03  0.00000000000E+00 0. -1.
        -14    1    5    5    0    0  0.15655587725E+03 -0.77536918280E+02  0.31608022460E+04  0.31656267238E+04  0.00000000000E+00 0.  1.
          5    1    4    4  501    0 -0.15393617436E+03  0.87102429541E+02 -0.30301172717E+03  0.35087997694E+03  0.41800000000E+01 0.  1.
         -5    1    4    4    0  501 -0.21685223319E+01  0.70432236304E+02 -0.21569516926E+03  0.22695215541E+03  0.41800000000E+01 0.  1.
</event>
<event>
11    1  0.8479398E-009  0.1273062E+03  0.7561462E-02  0.1122624E+00
         22   -1    0    0    0    0  0.00000000000E+00  0.00000000000E+00  0.17331576106E+03  0.17331576106E+03  0.00000000000E+00 0.  1.
         22   -1    0    0    0    0 -0.00000000000E+00 -0.00000000000E+00 -0.83168634263E+03  0.83168634263E+03  0.00000000000E+00 0. -1.
        -24    2    1    2    0    0 -0.20399474936E+02 -0.98902348037E+01 -0.67662834421E+03  0.68179563793E+03  0.80656186321E+02 0.  0.
         25    2    1    2    0    0  0.31463935222E+02  0.15670885893E+02 -0.11016319797E+03  0.17034871481E+03  0.12508876276E+03 0.  0.
         24    2    1    2    0    0 -0.11064460286E+02 -0.57806510892E+01  0.12842096060E+03  0.15285775094E+03  0.81961641589E+02 0.  0.
        -11    1    5    5    0    0 -0.26329280977E+02 -0.16450698582E+02  0.13047752198E+03  0.13412024553E+03  0.00000000000E+00 0.  1.
         12    1    5    5    0    0  0.15264820690E+02  0.10670047493E+02 -0.20565613744E+01  0.18737505407E+02  0.00000000000E+00 0. -1.
         13    1    3    3    0    0 -0.18527504195E+02  0.80758540885E+01 -0.64542260373E+03  0.64573897609E+03  0.00000000000E+00 0. -1.
        -14    1    3    3    0    0 -0.18719707409E+01 -0.17966088892E+02 -0.31205740481E+02  0.36056661846E+02  0.00000000000E+00 0.  1.
          5    1    4    4  501    0 -0.13352776308E+01  0.18475693058E+02  0.24874011082E+02  0.31294137272E+02  0.41800000000E+01 0. -1.
         -5    1    4    4    0  501  0.32799212853E+02 -0.28048071646E+01 -0.13503720905E+03  0.13905457754E+03  0.41800000000E+01 0. -1.
</event>
<event>
11    1  0.8479398E-009  0.2327736E+03  0.7561462E-02  0.1033498E+00
         22   -1    0    0    0    0  0.00000000000E+00  0.00000000000E+00  0.37820323363E+03  0.37820323363E+03  0.00000000000E+00 0. -1.
         22   -1    0    0    0    0 -0.00000000000E+00 -0.00000000000E+00 -0.87316765256E+03  0.87316765256E+03  0.00000000000E+00 0.  1.
         24    2    1    2    0    0  0.18183163582E+03 -0.34655747249E+02 -0.62990717276E+03  0.66148161120E+03  0.80691455898E+02 0.  0.
         25    2    1    2    0    0 -0.31575413055E+03 -0.43176987498E+02 -0.39525477513E+02  0.34463681316E+03  0.12508935369E+03 0.  0.
        -24    2    1    2    0    0  0.13392249473E+03  0.77832734747E+02  0.17446823133E+03  0.24525246183E+03  0.75607123329E+02 0.  0.
        -11    1    3    3    0    0  0.13476248990E+03 -0.20315580646E+02 -0.55764784495E+03  0.57405990147E+03  0.00000000000E+00 0.  1.
         12    1    3    3    0    0  0.47069145918E+02 -0.14340166603E+02 -0.72259327812E+02  0.87421709726E+02  0.00000000000E+00 0. -1.
         13    1    5    5    0    0  0.65855933234E+02  0.63536162610E+02  0.14093916902E+03  0.16804076072E+03  0.00000000000E+00 0. -1.
        -14    1    5    5    0    0  0.68066561491E+02  0.14296572137E+02  0.33529062316E+02  0.77211701107E+02  0.00000000000E+00 0.  1.
          5    1    4    4  501    0 -0.10788767766E+03 -0.70000014528E+02 -0.40841950904E+02  0.13500107547E+03  0.41800000000E+01 0. -1.
         -5    1    4    4    0  501 -0.20786645288E+03  0.26823027029E+02  0.13164733910E+01  0.20963573769E+03  0.41800000000E+01 0. -1.
</event>
<event>
11    1  0.1276313E-008  0.2402665E+03  0.7561462E-02  0.1029216E+00
         22   -1    0    0    0    0  0.00000000000E+00  0.00000000000E+00  0.14410026269E+04  0.14410026269E+04  0.00000000000E+00 0.  1.
         22   -1    0    0    0    0 -0.00000000000E+00 -0.00000000000E+00 -0.18503478044E+04  0.18503478044E+04  0.00000000000E+00 0. -1.
         24    2    1    2    0    0 -0.29198056071E+02 -0.72156162020E+02 -0.10052650612E+04  0.10114855886E+04  0.80537038603E+02 0.  0.
         25    2    1    2    0    0 -0.16250275411E+03  0.14520825407E+03 -0.81503705829E+03  0.85289262583E+03  0.12509133730E+03 0.  0.
        -24    2    1    2    0    0  0.19170081018E+03 -0.73052092049E+02  0.14109569420E+04  0.14269722169E+04  0.58003508539E+02 0.  0.
        -13    1    3    3    0    0 -0.52231410746E+02 -0.27755902782E+02 -0.42980790751E+03  0.43385867257E+03  0.00000000000E+00 0.  1.
         14    1    3    3    0    0  0.23033354676E+02 -0.44400259238E+02 -0.57545715365E+03  0.57762691604E+03  0.00000000000E+00 0. -1.
         11    1    5    5    0    0 -0.30377441224E+01 -0.33377768513E+01  0.71162186194E+02  0.71305156809E+02  0.00000000000E+00 0. -1.
        -12    1    5    5    0    0  0.19473855430E+03 -0.69714315197E+02  0.13397947558E+04  0.13556670601E+04  0.00000000000E+00 0.  1.
          5    1    4    4  501    0 -0.15074969803E+03  0.77780816326E+02 -0.43896003168E+03  0.47061524482E+03  0.41800000000E+01 0.  1.
         -5    1    4    4    0  501 -0.11753056074E+02  0.67427437743E+02 -0.37607702661E+03  0.38227738101E+03  0.41800000000E+01 0.  1.
</event>
<event>
11    1  0.8479398E-009  0.1633592E+03  0.7561462E-02  0.1083960E+00
         22   -1    0    0    0    0  0.00000000000E+00  0.00000000000E+00  0.89647867061E+03  0.89647867061E+03  0.00000000000E+00 0. -1.
         22   -1    0    0    0    0 -0.00000000000E+00 -0.00000000000E+00 -0.26515027290E+03  0.26515027290E+03  0.00000000000E+00 0. -1.
         24    2    1    2    0    0  0.94209672846E+01 -0.71868331245E+01 -0.13845368953E+03  0.15881539637E+03  0.76892787602E+02 0.  0.
         25    2    1    2    0    0 -0.11080592718E+03  0.32802918423E+02 -0.46079195983E+02  0.17642326058E+03  0.12509152495E+03 0.  0.
        -24    2    1    2    0    0  0.10138495990E+03 -0.25616085299E+02  0.81586128323E+03  0.82639028657E+03  0.79725644245E+02 0.  0.
        -11    1    3    3    0    0 -0.28784869330E+02 -0.17219942508E+02 -0.91508588756E+02  0.97462387301E+02  0.00000000000E+00 0.  1.
         12    1    3    3    0    0  0.38205836615E+02  0.10033109383E+02 -0.46945100775E+02  0.61353009071E+02  0.00000000000E+00 0. -1.
         11    1    5    5    0    0  0.10673713973E+03 -0.93966707001E+01  0.77059724323E+03  0.77801107042E+03  0.00000000000E+00 0. -1.
        -12    1    5    5    0    0 -0.53521798282E+01 -0.16219414599E+02  0.45264039996E+02  0.48379216154E+02  0.00000000000E+00 0.  1.
          5    1    4    4  501    0  0.18293165665E+02 -0.41471984649E+01 -0.37092442725E+02  0.41775122651E+02  0.41800000000E+01 0. -1.
         -5    1    4    4    0  501 -0.12909909285E+03  0.36950116888E+02 -0.89867532580E+01  0.13464813793E+03  0.41800000000E+01 0. -1.
</event>
<event>
11    1  0.8479398E-009  0.1409214E+03  0.7561462E-02  0.1106534E+00
         22   -1    0    0    0    0  0.00000000000E+00  0.00000000000E+00  0.25889802144E+03  0.25889802144E+03  0.00000000000E+00 0. -1.
         22   -1    0    0    0    0 -0.00000000000E+00 -0.00000000000E+00 -0.24527257743E+03  0.24527257743E+03  0.00000000000E+00 0.  1.
        -24    2    1    2    0    0  0.30896750448E+02  0.30335724254E+02 -0.14223725530E+03  0.16955928092E+03  0.81511027440E+02 0.  0.
         25    2    1    2    0    0 -0.82178379616E+02 -0.56660807174E+02  0.13054376284E+02  0.16056119927E+03  0.12508296776E+03 0.  0.
         24    2    1    2    0    0  0.51281629168E+02  0.26325082919E+02  0.14280832303E+03  0.17405011868E+03  0.81095075100E+02 0.  0.
        -11    1    5    5    0    0 -0.11303693416E+02 -0.14531771972E+02  0.58759054699E+02  0.61575745149E+02  0.00000000000E+00 0.  1.
         12    1    5    5    0    0  0.62585322584E+02  0.40856854892E+02  0.84049268334E+02  0.11247437354E+03  0.00000000000E+00 0. -1.
         11    1    3    3    0    0 -0.26071634802E+02  0.92795419473E+00 -0.26106245117E+02  0.36907008472E+02  0.00000000000E+00 0. -1.
        -12    1    3    3    0    0  0.56968385249E+02  0.29407770059E+02 -0.11613101019E+03  0.13265227245E+03  0.00000000000E+00 0.  1.
          5    1    4    4  501    0  0.82091242535E+01  0.28371931508E+02 -0.14809998060E+02  0.33304123784E+02  0.41800000000E+01 0. -1.
         -5    1    4    4    0  501 -0.90387503869E+02 -0.85032738681E+02  0.27864374345E+02  0.12725707549E+03  0.41800000000E+01 0. -1.
</event>
<event>
11    1  0.8479398E-009  0.2502131E+03  0.7561462E-02  0.1023786E+00
         22   -1    0    0    0    0  0.00000000000E+00  0.00000000000E+00  0.13503545316E+04  0.13503545316E+04  0.00000000000E+00 0. -1.
         22   -1    0    0    0    0 -0.00000000000E+00 -0.00000000000E+00 -0.29637676558E+03  0.29637676558E+03  0.00000000000E+00 0. -1.
         24    2    1    2    0    0 -0.18522541254E+03 -0.10721125556E+03 -0.20970802408E+03  0.31028048540E+03  0.80584226060E+02 0.  0.
         25    2    1    2    0    0  0.18193736332E+03  0.18864864024E+03  0.64512595369E+03  0.70747781926E+03  0.12509138655E+03 0.  0.
        -24    2    1    2    0    0  0.32880492245E+01 -0.81437384677E+02  0.61855983643E+03  0.62897299254E+03  0.79673679507E+02 0.  0.
        -13    1    3    3    0    0 -0.23125015605E+02 -0.37974613605E+02 -0.13373896172E+02  0.46429502732E+02  0.00000000000E+00 0.  1.
         14    1    3    3    0    0 -0.16210039694E+03 -0.69236641956E+02 -0.19633412790E+03  0.26385098267E+03  0.00000000000E+00 0. -1.
         13    1    5    5    0    0 -0.33590487122E+02 -0.17583922251E+02  0.15406788828E+03  0.15866451823E+03  0.00000000000E+00 0. -1.
        -14    1    5    5    0    0  0.36878536346E+02 -0.63853462426E+02  0.46449194815E+03  0.47030847431E+03  0.00000000000E+00 0.  1.
          5    1    4    4  501    0  0.55178891182E+02  0.10889404523E+03  0.17029748321E+03  0.20957415944E+03  0.41800000000E+01 0. -1.
         -5    1    4    4    0  501  0.12675847214E+03  0.79754595009E+02  0.47482847048E+03  0.49790365982E+03  0.41800000000E+01 0. -1.
</event>
<event>
11    1  0.8479398E-009  0.1753666E+03  0.7561462E-02  0.1073454E+00
         22   -1    0    0    0    0  0.00000000000E+00  0.00000000000E+00  0.40010689338E+03  0.40010689338E+03  0.00000000000E+00 0.  1.
         22   -1    0    0    0    0 -0.00000000000E+00 -0.00000000000E+00 -0.54015183615E+03  0.54015183615E+03  0.00000000000E+00 0. -1.
        -24    2    1    2    0    0 -0.17360229504E+02 -0.25885427499E+02 -0.83977131064E+02  0.12043434027E+03  0.80503657359E+02 0.  0.
         25    2    1    2    0    0  0.61412535818E+02 -0.89504460639E+02 -0.40694924285E+03  0.43936002403E+03  0.12508795476E+03 0.  0.
         24    2    1    2    0    0 -0.44052306314E+02  0.11538988814E+03  0.35088143115E+03  0.38046436524E+03  0.79874417134E+02 0.  0.
        -13    1    5    5    0    0  0.28811973087E+01  0.96069492393E+02  0.23940504877E+03  0.25797756888E+03  0.00000000000E+00 0.  1.
         14    1    5    5    0    0 -0.46933503623E+02  0.19320395746E+02  0.11147638238E+03  0.12248679636E+03  0.00000000000E+00 0. -1.
         13    1    3    3    0    0  0.14530701309E+02  0.28946240551E+01 -0.75128122873E+02  0.76575158997E+02  0.00000000000E+00 0. -1.
        -14    1    3    3    0    0 -0.31890930813E+02 -0.28780051555E+02 -0.88490081909E+01  0.43859181269E+02  0.00000000000E+00 0.  1.
          5    1    4    4  501    0  0.51125802278E+02 -0.10872942258E+03 -0.21666012152E+03  0.24778017607E+03  0.41800000000E+01 0. -1.
         -5    1    4    4    0  501  0.10286733540E+02  0.19224961941E+02 -0.19028912133E+03  0.19157984796E+03  0.41800000000E+01 0. -1.
</event>
<event>
11    1  0.8479398E-009  0.1443742E+03  0.7561462E-02  0.1102770E+00
         22   -1    0    0    0    0  0.00000000000E+00  0.00000000000E+00  0.26754024056E+03  0.26754024056E+03  0.00000000000E+00 0. -1.
         22   -1    0    0    0    0 -0.00000000000E+00 -0.00000000000E+00 -0.15873476472E+04  0.15873476472E+04  0.00000000000E+00 0. -1.
        -24    2    1    2    0    0  0.20409587714E+02 -0.21605928004E+02 -0.14261205885E+04  0.14287674910E+04  0.81689920363E+02 0.  0.
         25    2    1    2    0    0  0.47903613608E+02  0.47259358031E+02 -0.11298705979E+03  0.18149623183E+03  0.12508638363E+03 0.  0.
         24    2    1    2    0    0 -0.68313201322E+02 -0.25653430027E+02  0.21930024157E+03  0.24462416499E+03  0.80147328092E+02 0.  0.
        -11    1    5    5    0    0 -0.56714620962E+01  0.24113070145E+02  0.28686720932E+02  0.37901630465E+02  0.00000000000E+00 0.  1.
         12    1    5    5    0    0 -0.62641739226E+02 -0.49766500172E+02  0.19061352064E+03  0.20672253453E+03  0.00000000000E+00 0. -1.
         11    1    3    3    0    0 -0.25676420200E+02 -0.24736339934E+02 -0.39273627308E+03  0.39435129677E+03  0.00000000000E+00 0. -1.
        -12    1    3    3    0    0  0.46086007914E+02  0.31304119296E+01 -0.10333843154E+04  0.10344161942E+04  0.00000000000E+00 0.  1.
          5    1    4    4  501    0  0.74755841850E+02 -0.94431318718E+01 -0.81850289087E+02  0.11133081718E+03  0.41800000000E+01 0.  1.
         -5    1    4    4    0  501 -0.26852228242E+02  0.56702489903E+02 -0.31136770706E+02  0.70165414648E+02  0.41800000000E+01 0.  1.
</event>
<event>
11    1  0.8479398E-009  0.1338769E+03  0.7561462E-02  0.1114595E+00
         22   -1    0    0    0    0  0.00000000000E+00  0.00000000000E+00  0.63934173685E+02  0.63934173685E+02  0.00000000000E+00 0.  1.
         22   -1    0    0    0    0 -0.00000000000E+00 -0.00000000000E+00 -0.30882239159E+04  0.30882239159E+04  0.00000000000E+00 0.  1.
         24    2    1    2    0    0 -0.13444242752E+02 -0.24140584706E+02 -0.28073431233E+04  0.28085276057E+04  0.76735809339E+02 0.  0.
         25    2    1    2    0    0  0.17078164168E+02  0.66347950562E+02 -0.19860798691E+03  0.24451222919E+03  0.12508950205E+03 0.  0.
        -24    2    1    2    0    0 -0.36339214164E+01 -0.42207365857E+02 -0.18338631996E+02  0.99118254704E+02  0.87712347333E+02 0.  0.
        -11    1    3    3    0    0 -0.20259160369E+02 -0.65346117916E+01 -0.26457166551E+04  0.26458022892E+04  0.00000000000E+00 0.  1.
         12    1    3    3    0    0  0.68149176172E+01 -0.17605972914E+02 -0.16162646823E+03  0.16272531646E+03  0.00000000000E+00 0. -1.
         11    1    5    5    0    0  0.88558290915E+00  0.13868008784E+02 -0.37257858922E+02  0.39764984298E+02  0.00000000000E+00 0. -1.
        -12    1    5    5    0    0 -0.45195043256E+01 -0.56075374641E+02  0.18919226927E+02  0.59353270406E+02  0.00000000000E+00 0.  1.
          5    1    4    4  501    0 -0.50584481806E+02  0.16366097256E+02 -0.11008720254E+03  0.12232458257E+03  0.41800000000E+01 0. -1.
         -5    1    4    4    0  501  0.67662645974E+02  0.49981853307E+02 -0.88520784370E+02  0.12218764662E+03  0.41800000000E+01 0. -1.
</event>
<event>
11    1  0.8479398E-009  0.1295259E+03  0.7561462E-02  0.1119853E+00
         22   -1    0    0    0    0  0.00000000000E+00  0.00000000000E+00  0.50304691506E+03  0.50304691506E+03  0.00000000000E+00 0.  1.
         22   -1    0    0    0    0 -0.00000000000E+00 -0.00000000000E+00 -0.32832557716E+03  0.32832557716E+03  0.00000000000E+00 0.  1.
        -24    2    1    2    0    0 -0.33664157936E+02  0.16148710395E+02 -0.24084678366E+03  0.25835009354E+03  0.85694464552E+02 0.  0.
         25    2    1    2    0    0  0.89645922158E+01 -0.71509118959E+01 -0.22046194889E+02  0.12753222160E+03  0.12508770276E+03 0.  0.
         24    2    1    2    0    0  0.24699565721E+02 -0.89977984995E+01  0.43761431645E+03  0.44549017708E+03  0.79146566511E+02 0.  0.
        -11    1    5    5    0    0 -0.16927469110E+02 -0.14014032042E+02  0.31766104079E+03  0.31842027125E+03  0.00000000000E+00 0.  1.
         12    1    5    5    0    0  0.41627034830E+02  0.50162335421E+01  0.11995327565E+03  0.12706990583E+03  0.00000000000E+00 0. -1.
         11    1    3    3    0    0  0.24321920847E+02  0.24605492406E+02 -0.99217147007E+02  0.10507629776E+03  0.00000000000E+00 0. -1.
        -12    1    3    3    0    0 -0.57986078783E+02 -0.84567820101E+01 -0.14162963665E+03  0.15327379578E+03  0.00000000000E+00 0.  1.
          5    1    4    4  501    0  0.48702634699E+02 -0.47218522883E+02 -0.37698579975E+01  0.68067758588E+02  0.41800000000E+01 0. -1.
         -5    1    4    4    0  501 -0.39738042484E+02  0.40067610987E+02 -0.18276336891E+02  0.59464463008E+02  0.41800000000E+01 0. -1.
</event>
<event>
11    1  0.8479398E-009  0.1774676E+03  0.7561462E-02  0.1071710E+00
         22   -1    0    0    0    0  0.00000000000E+00  0.00000000000E+00  0.40427917607E+03  0.40427917607E+03  0.00000000000E+00 0. -1.
         22   -1    0    0    0    0 -0.00000000000E+00 -0.00000000000E+00 -0.17923168637E+04  0.17923168637E+04  0.00000000000E+00 0.  1.
         24    2    1    2    0    0  0.31800917770E+02 -0.32492782723E+02 -0.17182569144E+04  0.17207180903E+04  0.79980266771E+02 0.  0.
         25    2    1    2    0    0 -0.10140678603E+03  0.11918155866E+03  0.15491318187E+03  0.25324590130E+03  0.12509121644E+03 0.  0.
        -24    2    1    2    0    0  0.69605868260E+02 -0.86688775934E+02  0.17530604484E+03  0.22263204824E+03  0.80454327269E+02 0.  0.
        -13    1    3    3    0    0 -0.43954790338E+01 -0.50357780195E+02 -0.82215890300E+03  0.82371141066E+03  0.00000000000E+00 0.  1.
         14    1    3    3    0    0  0.36196396804E+02  0.17864997472E+02 -0.89609801136E+03  0.89700667960E+03  0.00000000000E+00 0. -1.
         11    1    5    5    0    0  0.48088243043E+02 -0.98506462472E+02  0.12241318054E+03  0.16431977677E+03  0.00000000000E+00 0. -1.
        -12    1    5    5    0    0  0.21517625217E+02  0.11817686538E+02  0.52892864296E+02  0.58312271466E+02  0.00000000000E+00 0.  1.
          5    1    4    4  501    0 -0.33704164479E+02  0.10864482697E+03  0.42448168003E+02  0.12148657744E+03  0.41800000000E+01 0. -1.
         -5    1    4    4    0  501 -0.67702621551E+02  0.10536731685E+02  0.11246501387E+03  0.13175932386E+03  0.41800000000E+01 0. -1.
</event>
<event>
11    1  0.8479398E-009  0.1329001E+03  0.7561462E-02  0.1115756E+00
         22   -1    0    0    0    0  0.00000000000E+00  0.00000000000E+00  0.12718057264E+03  0.12718057264E+03  0.00000000000E+00 0. -1.
         22   -1    0    0    0    0 -0.00000000000E+00 -0.00000000000E+00 -0.44519441810E+03  0.44519441810E+03  0.00000000000E+00 0.  1.
         24    2    1    2    0    0 -0.28819248420E+01 -0.26176043999E+02 -0.25472642924E+03  0.26820741140E+03  0.79725598202E+02 0.  0.
         25    2    1    2    0    0 -0.41133985804E+02  0.12289447550E+02 -0.13266698364E+03  0.18732558674E+03  0.12508921452E+03 0.  0.
        -24    2    1    2    0    0  0.44015910646E+02  0.13886596448E+02  0.69379567415E+02  0.11684199261E+03  0.81904144649E+02 0.  0.
        -11    1    3    3    0    0 -0.14209545133E+02  0.23245918677E+01 -0.22511828616E+03  0.22557827392E+03  0.00000000000E+00 0.  1.
         12    1    3    3    0    0  0.11327620291E+02 -0.28500635866E+02 -0.29608143082E+02  0.42629137488E+02  0.00000000000E+00 0. -1.
         13    1    5    5    0    0 -0.10517297345E+02  0.24832580663E+01  0.59235672694E+02  0.60213329368E+02  0.00000000000E+00 0. -1.
        -14    1    5    5    0    0  0.54533207991E+02  0.11403338382E+02  0.10143894721E+02  0.56628663239E+02  0.00000000000E+00 0.  1.
          5    1    4    4  501    0 -0.80927161773E+02 -0.14156905621E+01 -0.52148885567E+02  0.96375247643E+02  0.41800000000E+01 0.  1.
         -5    1    4    4    0  501  0.39793175969E+02  0.13705138112E+02 -0.80518098070E+02  0.90950339093E+02  0.41800000000E+01 0.  1.
</event>
<event>
11    1  0.8479398E-009  0.1403228E+03  0.7561462E-02  0.1107199E+00
         22   -1    0    0    0    0  0.00000000000E+00  0.00000000000E+00  0.18880056523E+03  0.18880056523E+03  0.00000000000E+00 0.  1.
         22   -1    0    0    0    0 -0.00000000000E+00 -0.00000000000E+00 -0.55034647747E+03  0.55034647747E+03  0.00000000000E+00 0.  1.
        -24    2    1    2    0    0 -0.18863444649E+02  0.69815101933E+01 -0.36648952712E+03  0.37563572678E+03  0.79894021777E+02 0.  0.
         25    2    1    2    0    0  0.73695178358E+02 -0.35116779531E+02 -0.12724687482E+03  0.19622304506E+03  0.12509016246E+03 0.  0.
         24    2    1    2    0    0 -0.54831733709E+02  0.28135269338E+02  0.13219048970E+03  0.16728827085E+03  0.81932457517E+02 0.  0.
        -11    1    5    5    0    0 -0.25185689294E+02  0.40120704776E+02  0.21408998457E+02  0.51983988996E+02  0.00000000000E+00 0.  1.
         12    1    5    5    0    0 -0.29646044415E+02 -0.11985435438E+02  0.11078149124E+03  0.11530428186E+03  0.00000000000E+00 0. -1.
         13    1    3    3    0    0 -0.17994047770E+02 -0.17471184214E+02 -0.34012939980E+02  0.42260006141E+02  0.00000000000E+00 0. -1.
        -14    1    3    3    0    0 -0.86939687938E+00  0.24452694407E+02 -0.33247658714E+03  0.33337572064E+03  0.00000000000E+00 0.  1.
          5    1    4    4  501    0  0.94025035649E+02 -0.69733911372E+01 -0.13055893312E+03  0.16109761926E+03  0.41800000000E+01 0. -1.
         -5    1    4    4    0  501 -0.20329857291E+02 -0.28143388394E+02  0.33120583003E+01  0.35125425805E+02  0.41800000000E+01 0. -1.
</event>
<event>
11    1  0.8479398E-009  0.1370512E+03  0.7561462E-02  0.1110897E+00
         22   -1    0    0    0    0  0.00000000000E+00  0.00000000000E+00  0.81158294929E+02  0.81158294929E+02  0.00000000000E+00 0.  1.
         22   -1    0    0    0    0 -0.00000000000E+00 -0.00000000000E+00 -0.26031130132E+04  0.26031130132E+04  0.00000000000E+00 0.  1.
         24    2    1    2    0    0 -0.38449518095E+02 -0.35156263718E+02 -0.19530572643E+04  0.19554731867E+04  0.82026689228E+02 0.  0.
         25    2    1    2    0    0  0.52216692674E+02  0.70510152273E+02 -0.61076939489E+03  0.62959063116E+03  0.12508734770E+03 0.  0.
        -24    2    1    2    0    0 -0.13767174579E+02 -0.35353888555E+02  0.41871940922E+02  0.99207490310E+02  0.81544062722E+02 0.  0.
        -11    1    3    3    0    0 -0.44913847035E+02 -0.14463901543E+01 -0.16257816524E+04  0.16264025723E+04  0.00000000000E+00 0.  1.
         12    1    3    3    0    0  0.64643289395E+01 -0.33709873564E+02 -0.32727561191E+03  0.32907061442E+03  0.00000000000E+00 0. -1.
         11    1    5    5    0    0  0.13149289823E+02  0.21056335187E+01 -0.18771101626E+02  0.23015033600E+02  0.00000000000E+00 0. -1.
        -12    1    5    5    0    0 -0.26916464402E+02 -0.37459522074E+02  0.60643042548E+02  0.76192456709E+02  0.00000000000E+00 0.  1.
          5    1    4    4  501    0  0.53533994965E+02  0.34324778182E+02 -0.10726859536E+03  0.12477220429E+03  0.41800000000E+01 0. -1.
         -5    1    4    4    0  501 -0.13173022907E+01  0.36185374091E+02 -0.50350079953E+03  0.50481842687E+03  0.41800000000E+01 0. -1.
</event>
<event>
11    1  0.8479398E-009  0.2488882E+03  0.7561462E-02  0.1024493E+00
         22   -1    0    0    0    0  0.00000000000E+00  0.00000000000E+00  0.27039821564E+03  0.27039821564E+03  0.00000000000E+00 0. -1.
         22   -1    0    0    0    0 -0.00000000000E+00 -0.00000000000E+00 -0.61988831739E+03  0.61988831739E+03  0.00000000000E+00 0.  1.
         24    2    1    2    0    0  0.54917283468E+02  0.83895081907E+01 -0.30250065321E+03  0.31809082011E+03  0.81171625410E+02 0.  0.
         25    2    1    2    0    0 -0.23204849486E+03  0.96240652649E+02 -0.16142950653E+03  0.32375235104E+03  0.12508929624E+03 0.  0.
        -24    2    1    2    0    0  0.17713121139E+03 -0.10463016084E+03  0.11444005800E+03  0.24844336188E+03  0.79401766870E+02 0.  0.
        -13    1    3    3    0    0  0.59739899807E+02  0.17380305670E+01 -0.30393101408E+03  0.30975141275E+03  0.00000000000E+00 0.  1.
         14    1    3    3    0    0 -0.48226163398E+01  0.66514776237E+01  0.14303608661E+01  0.83394073618E+01  0.00000000000E+00 0. -1.
         13    1    5    5    0    0  0.17603501698E+03 -0.84303536685E+02  0.85559785602E+02  0.21311004297E+03  0.00000000000E+00 0. -1.
        -14    1    5    5    0    0  0.10961944095E+01 -0.20326624155E+02  0.28880272399E+02  0.35333318916E+02  0.00000000000E+00 0.  1.
          5    1    4    4  501    0 -0.22924822848E+03  0.11618110067E+03 -0.16076555596E+03  0.30317624379E+03  0.41800000000E+01 0.  1.
         -5    1    4    4    0  501 -0.28002663757E+01 -0.19940448020E+02 -0.66395057320E+00  0.20576107245E+02  0.41800000000E+01 0.  1.
</event>
<event>
11    1  0.8479398E-009  0.1609900E+03  0.7561462E-02  0.1086150E+00
         22   -1    0    0    0    0  0.00000000000E+00  0.00000000000E+00  0.50762249572E+03  0.50762249572E+03  0.00000000000E+00 0.  1.
         22   -1    0    0    0    0 -0.00000000000E+00 -0.00000000000E+00 -0.90006219201E+03  0.90006219201E+03  0.00000000000E+00 0. -1.
         24    2    1    2    0    0  0.63147735571E+01 -0.98936861159E+02 -0.45301910688E+03  0.47076654625E+03  0.81033641207E+02 0.  0.
         25    2    1    2    0    0 -0.10123460744E+03  0.85441446738E+02 -0.41070031094E+03  0.44929309893E+03  0.12506341101E+03 0.  0.
        -24    2    1    2    0    0  0.94919833880E+02  0.13495414421E+02  0.47127972152E+03  0.48762504255E+03  0.80509037574E+02 0.  0.
        -11    1    3    3    0    0  0.17804612352E+02 -0.21604559319E+00 -0.16750297053E+03  0.16844671570E+03  0.00000000000E+00 0.  1.
         12    1    3    3    0    0 -0.11489838795E+02 -0.98720815565E+02 -0.28551613635E+03  0.30231983054E+03  0.00000000000E+00 0. -1.
         11    1    5    5    0    0  0.18471542951E+01  0.25992727827E+02  0.54672207693E+02  0.60564710623E+02  0.00000000000E+00 0. -1.
        -12    1    5    5    0    0  0.93072679585E+02 -0.12497313406E+02  0.41660751383E+03  0.42706033193E+03  0.00000000000E+00 0.  1.
          5    1    4    4  501    0  0.22192777850E+02  0.46935449391E+02 -0.13681792350E+03  0.14639696851E+03  0.41800000000E+01 0. -1.
         -5    1    4    4    0  501 -0.12342738529E+03  0.38505997347E+02 -0.27388238744E+03  0.30289613042E+03  0.41800000000E+01 0. -1.
</event>
<event>
11    1  0.8479398E-009  0.1435061E+03  0.7561462E-02  0.1103705E+00
         22   -1    0    0    0    0  0.00000000000E+00  0.00000000000E+00  0.35838046088E+03  0.35838046088E+03  0.00000000000E+00 0.  1.
         22   -1    0    0    0    0 -0.00000000000E+00 -0.00000000000E+00 -0.96680203429E+03  0.96680203429E+03  0.00000000000E+00 0. -1.
        -24    2    1    2    0    0 -0.75334768193E+00  0.25527400863E+02 -0.90875247691E+03  0.91266478425E+03  0.80459482988E+02 0.  0.
         25    2    1    2    0    0  0.69242728398E+02 -0.45955251226E+01  0.72956109808E+02  0.16057240962E+03  0.12508089577E+03 0.  0.
         24    2    1    2    0    0 -0.68489380716E+02 -0.20931875740E+02  0.22737479369E+03  0.25194530129E+03  0.81536490861E+02 0.  0.
        -11    1    5    5    0    0 -0.86785716020E+02 -0.19734812233E+02  0.20100219079E+03  0.21982516694E+03  0.00000000000E+00 0.  1.
         12    1    5    5    0    0  0.18296335304E+02 -0.11970635069E+01  0.26372602907E+02  0.32120134350E+02  0.00000000000E+00 0. -1.
         11    1    3    3    0    0  0.22261126940E+02  0.19312997955E+02 -0.82655571268E+03  0.82708094878E+03  0.00000000000E+00 0. -1.
        -12    1    3    3    0    0 -0.23014474622E+02  0.62144029072E+01 -0.82196764224E+02  0.85583835474E+02  0.00000000000E+00 0.  1.
          5    1    4    4  501    0  0.39934879189E+02 -0.48327589055E+02 -0.85934343461E+01  0.63416637829E+02  0.41800000000E+01 0.  1.
         -5    1    4    4    0  501  0.29307849209E+02  0.43732063932E+02  0.81549544154E+02  0.97155771794E+02  0.41800000000E+01 0.  1.
</event>
<event>
11    1  0.8479398E-009  0.1527910E+03  0.7561462E-02  0.1094061E+00
         22   -1    0    0    0    0  0.00000000000E+00  0.00000000000E+00  0.13620794010E+04  0.13620794010E+04  0.00000000000E+00 0. -1.
         22   -1    0    0    0    0 -0.00000000000E+00 -0.00000000000E+00 -0.32878701678E+03  0.32878701678E+03  0.00000000000E+00 0.  1.
         24    2    1    2    0    0 -0.12610387730E+02 -0.88723595599E+02 -0.29532031195E+03  0.31838982295E+03  0.78275758771E+02 0.  0.
         25    2    1    2    0    0  0.34878111602E+02  0.44521697343E+02  0.21658143318E+03  0.25642487690E+03  0.12509011187E+03 0.  0.
        -24    2    1    2    0    0 -0.22267723871E+02  0.44201898256E+02  0.11120312629E+04  0.11160517179E+04  0.80673712859E+02 0.  0.
        -11    1    3    3    0    0 -0.15002838682E+02 -0.53854635131E+02 -0.26870401028E+03  0.27445810615E+03  0.00000000000E+00 0.  1.
         12    1    3    3    0    0  0.23924509517E+01 -0.34868960468E+02 -0.26616301669E+02  0.43931716791E+02  0.00000000000E+00 0. -1.
         11    1    5    5    0    0 -0.46036811130E+02  0.85219625190E+01  0.75602219557E+03  0.75747050901E+03  0.00000000000E+00 0. -1.
        -12    1    5    5    0    0  0.23769087259E+02  0.35679935737E+02  0.35600906736E+03  0.35858120889E+03  0.00000000000E+00 0.  1.
          5    1    4    4  501    0 -0.28429012392E+02  0.62415583626E+02  0.13551129364E+03  0.15193648979E+03  0.41800000000E+01 0. -1.
         -5    1    4    4    0  501  0.63307123993E+02 -0.17893886284E+02  0.81070139539E+02  0.10448838710E+03  0.41800000000E+01 0. -1.
</event>
<event>
11    1  0.8479398E-009  0.2440391E+03  0.7561462E-02  0.1027123E+00
         22   -1    0    0    0    0  0.00000000000E+00  0.00000000000E+00  0.15655687581E+03  0.15655687581E+03  0.00000000000E+00 0. -1.
         22   -1    0    0    0    0 -0.00000000000E+00 -0.00000000000E+00 -0.93186960584E+03  0.93186960584E+03  0.00000000000E+00 0.  1.
         24    2    1    2    0    0  0.31662238178E+01 -0.59074933980E+02 -0.49112328371E+03  0.50084918505E+03  0.78408887036E+02 0.  0.
         25    2    1    2    0    0 -0.73233414398E+02  0.23968024520E+03 -0.25119461061E+03  0.37623925219E+03  0.12508992592E+03 0.  0.
        -24    2    1    2    0    0  0.70067190580E+02 -0.18060531122E+03 -0.32994835717E+02  0.21133804441E+03  0.77765160544E+02 0.  0.
        -11    1    3    3    0    0  0.39689095501E+02 -0.19006638148E+02 -0.21852449733E+03  0.22291126605E+03  0.00000000000E+00 0.  1.
         12    1    3    3    0    0 -0.36522871683E+02 -0.40068295832E+02 -0.27259878637E+03  0.27793791900E+03  0.00000000000E+00 0. -1.
         11    1    5    5    0    0  0.40775237212E+02 -0.10471469688E+03  0.20154867656E+02  0.11416657305E+03  0.00000000000E+00 0. -1.
        -12    1    5    5    0    0  0.29291953368E+02 -0.75890614341E+02 -0.53149703374E+02  0.97171471358E+02  0.00000000000E+00 0.  1.
          5    1    4    4  501    0 -0.60994508552E+02  0.25373665345E+03 -0.23450156657E+03  0.35087188046E+03  0.41800000000E+01 0. -1.
         -5    1    4    4    0  501 -0.12238905846E+02 -0.14056408246E+02 -0.16693044042E+02  0.25367371729E+02  0.41800000000E+01 0. -1.
</event>
<event>
11    1  0.8479398E-009  0.1696074E+03  0.7561462E-02  0.1078374E+00
         22   -1    0    0    0    0  0.00000000000E+00  0.00000000000E+00  0.30846520015E+03  0.30846520015E+03  0.00000000000E+00 0.  1.
         22   -1    0    0    0    0 -0.00000000000E+00 -0.00000000000E+00 -0.68197567255E+03  0.68197567255E+03  0.00000000000E+00 0.  1.
         24    2    1    2    0    0  0.36567544063E+02  0.21833505077E+02 -0.53586319457E+03  0.54443381326E+03  0.86283987535E+02 0.  0.
         25    2    1    2    0    0 -0.13909139005E+03 -0.56039585865E+02 -0.40274580205E+02  0.19938972201E+03  0.12508944585E+03 0.  0.
        -24    2    1    2    0    0  0.10252384599E+03  0.34206080788E+02  0.20262730237E+03  0.24661733743E+03  0.89894896939E+02 0.  0.
        -11    1    3    3    0    0  0.35989932960E+02  0.33302465111E+02 -0.13883454467E+03  0.14723912609E+03  0.00000000000E+00 0.  1.
         12    1    3    3    0    0  0.57761110281E+00 -0.11468960034E+02 -0.39702864990E+03  0.39719468717E+03  0.00000000000E+00 0. -1.
         11    1    5    5    0    0  0.78333501691E+02 -0.15495888106E+02  0.84858139382E+02  0.11652108760E+03  0.00000000000E+00 0. -1.
        -12    1    5    5    0    0  0.24190344294E+02  0.49701968894E+02  0.11776916299E+03  0.13009624983E+03  0.00000000000E+00 0.  1.
          5    1    4    4  501    0 -0.95190956320E+01 -0.94723071854E+01  0.38303381071E+02  0.40803911412E+02  0.41800000000E+01 0. -1.
         -5    1    4    4    0  501 -0.12957229442E+03 -0.46567278680E+02 -0.78577961275E+02  0.15858581060E+03  0.41800000000E+01 0. -1.
</event>
<event>
11    1  0.8479398E-009  0.1405558E+03  0.7561462E-02  0.1106939E+00
         22   -1    0    0    0    0  0.00000000000E+00  0.00000000000E+00  0.10540750435E+04  0.10540750435E+04  0.00000000000E+00 0.  1.
         22   -1    0    0    0    0 -0.00000000000E+00 -0.00000000000E+00 -0.34916486697E+03  0.34916486697E+03  0.00000000000E+00 0. -1.
         24    2    1    2    0    0  0.60310223322E+02  0.21881984179E+02 -0.31123601714E+03  0.32926660106E+03  0.86211901376E+02 0.  0.
         25    2    1    2    0    0 -0.70331942938E+02  0.10828476143E+02  0.16821504789E+03  0.22137634462E+03  0.12508935018E+03 0.  0.
        -24    2    1    2    0    0  0.10021719617E+02 -0.32710460321E+02  0.84793114580E+03  0.85259696480E+03  0.82243220303E+02 0.  0.
        -13    1    3    3    0    0 -0.12679249510E+02 -0.15583789274E+02 -0.28512233502E+02  0.34879296374E+02  0.00000000000E+00 0.  1.
         14    1    3    3    0    0  0.72989472832E+02  0.37465773453E+02 -0.28272378364E+03  0.29438730469E+03  0.00000000000E+00 0. -1.
         11    1    5    5    0    0  0.16306400069E+01 -0.91373657226E+01  0.78866399294E+01  0.12179882124E+02  0.00000000000E+00 0. -1.
        -12    1    5    5    0    0  0.83910796099E+01 -0.23573094599E+02  0.84004450587E+03  0.84041708267E+03  0.00000000000E+00 0.  1.
          5    1    4    4  501    0 -0.90897123785E+02  0.36480303751E+02  0.78037453374E+02  0.12530130168E+03  0.41800000000E+01 0. -1.
         -5    1    4    4    0  501  0.20565180847E+02 -0.25651827609E+02  0.90177594514E+02  0.96075042936E+02  0.41800000000E+01 0. -1.
</event>
<event>
11    1  0.8479398E-009  0.1264795E+03  0.7561462E-02  0.1123672E+00
         22   -1    0    0    0    0  0.00000000000E+00  0.00000000000E+00  0.65201189157E+03  0.65201189157E+03  0.00000000000E+00 0.  1.
         22   -1    0    0    0    0 -0.00000000000E+00 -0.00000000000E+00 -0.33219051670E+03  0.33219051670E+03  0.00000000000E+00 0.  1.
         24    2    1    2    0    0 -0.99605483246E+01 -0.15556005305E+02 -0.30934111649E+03  0.32015716655E+03  0.80420663518E+02 0.  0.
         25    2    1    2    0    0  0.11618914551E+02  0.28942040396E+02  0.34128679074E+03  0.36482647616E+03  0.12509613623E+03 0.  0.
        -24    2    1    2    0    0 -0.16583662267E+01 -0.13386035090E+02  0.28787570062E+03  0.29921876555E+03  0.80483007744E+02 0.  0.
        -13    1    3    3    0    0  0.36747737804E+01 -0.51835045762E+01 -0.30106269506E+03  0.30112973789E+03  0.00000000000E+00 0.  1.
         14    1    3    3    0    0 -0.13635322105E+02 -0.10372500729E+02 -0.82784214254E+01  0.19027428664E+02  0.00000000000E+00 0. -1.
         13    1    5    5    0    0 -0.37508955764E+02  0.80544756178E+01  0.10980150065E+03  0.11631064390E+03  0.00000000000E+00 0. -1.
        -14    1    5    5    0    0  0.35850589537E+02 -0.21440510708E+02  0.17807419997E+03  0.18290812165E+03  0.00000000000E+00 0.  1.
          5    1    4    4  501    0  0.49026137677E+02  0.55822401888E+02  0.14283511397E+03  0.16105603035E+03  0.41800000000E+01 0.  1.
         -5    1    4    4    0  501 -0.37407223126E+02 -0.26880361493E+02  0.19845167677E+03  0.20377044582E+03  0.41800000000E+01 0.  1.
</event>
<event>
11    1  0.8479398E-009  0.1336001E+03  0.7561462E-02  0.1114923E+00
         22   -1    0    0    0    0  0.00000000000E+00  0.00000000000E+00  0.33944371339E+03  0.33944371339E+03  0.00000000000E+00 0.  1.
         22   -1    0    0    0    0 -0.00000000000E+00 -0.00000000000E+00 -0.18976834112E+03  0.18976834112E+03  0.00000000000E+00 0. -1.
         24    2    1    2    0    0 -0.15860356289E+02 -0.54292715592E+01 -0.11764655691E+03  0.14159555753E+03  0.76990659612E+02 0.  0.
         25    2    1    2    0    0  0.17755990185E+02  0.51000895005E+02  0.48098737629E+02  0.14448905633E+03  0.12508889782E+03 0.  0.
        -24    2    1    2    0    0 -0.18956338964E+01 -0.45571623445E+02  0.21922319155E+03  0.24312744065E+03  0.94719472089E+02 0.  0.
        -13    1    3    3    0    0 -0.45106138200E+02 -0.53253894266E+01 -0.48128225909E+02  0.66175898974E+02  0.00000000000E+00 0.  1.
         14    1    3    3    0    0  0.29245781911E+02 -0.10388213262E+00 -0.69518331004E+02  0.75419658556E+02  0.00000000000E+00 0. -1.
         13    1    5    5    0    0  0.36918728906E+02 -0.15165243521E+02  0.37255692392E+02  0.54598202998E+02  0.00000000000E+00 0. -1.
        -14    1    5    5    0    0 -0.38814362802E+02 -0.30406379924E+02  0.18196749916E+03  0.18852923766E+03  0.00000000000E+00 0.  1.
          5    1    4    4  501    0 -0.45112374613E+02  0.50816741057E+02  0.52299463450E+01  0.68280980175E+02  0.41800000000E+01 0.  1.
         -5    1    4    4    0  501  0.62868364798E+02  0.18415394762E+00  0.42868791284E+02  0.76208076154E+02  0.41800000000E+01 0.  1.
</event>
<event>
11    1  0.2190516E-008  0.2218221E+03  0.7561462E-02  0.1040082E+00
         22   -1    0    0    0    0  0.00000000000E+00  0.00000000000E+00  0.10704675478E+04  0.10704675478E+04  0.00000000000E+00 0. -1.
         22   -1    0    0    0    0 -0.00000000000E+00 -0.00000000000E+00 -0.15752580327E+04  0.15752580327E+04  0.00000000000E+00 0. -1.
         24    2    1    2    0    0  0.51585123652E+02 -0.15795888875E+02 -0.10545457965E+04  0.10589441427E+04  0.79908231022E+02 0.  0.
         25    2    1    2    0    0  0.34125114746E+02  0.17791994311E+03 -0.48435858469E+03  0.53204387524E+03  0.12508963588E+03 0.  0.
        -24    2    1    2    0    0 -0.85710238399E+02 -0.16212405423E+03  0.10341138964E+04  0.10547375625E+04  0.97207618830E+02 0.  0.
        -11    1    3    3    0    0  0.35746293494E+01 -0.33075082599E+02 -0.69499847607E+03  0.69579423740E+03  0.00000000000E+00 0.  1.
         12    1    3    3    0    0  0.48010494303E+02  0.17279193725E+02 -0.35954732046E+03  0.36314990534E+03  0.00000000000E+00 0. -1.
         13    1    5    5    0    0 -0.91892498849E+02 -0.17147261214E+03  0.10023412421E+04  0.10210460586E+04  0.00000000000E+00 0. -1.
        -14    1    5    5    0    0  0.61822604503E+01  0.93485579097E+01  0.31772654239E+02  0.33691503924E+02  0.00000000000E+00 0.  1.
          5    1    4    4  501    0 -0.38317901471E+02  0.81335707690E+02 -0.13382389745E+03  0.16127636792E+03  0.41800000000E+01 0. -1.
         -5    1    4    4    0  501  0.72443016218E+02  0.96584235419E+02 -0.35053468724E+03  0.37076750732E+03  0.41800000000E+01 0. -1.
</event>
<event>
11    1  0.8479398E-009  0.1546356E+03  0.7561462E-02  0.1092234E+00
         22   -1    0    0    0    0  0.00000000000E+00  0.00000000000E+00  0.74897857354E+02  0.74897857354E+02  0.00000000000E+00 0. -1.
         22   -1    0    0    0    0 -0.00000000000E+00 -0.00000000000E+00 -0.18017422190E+04  0.18017422190E+04  0.00000000000E+00 0. -1.
        -24    2    1    2    0    0  0.50812585993E+02  0.76070753826E+02 -0.15539169296E+04  0.15587118151E+04  0.80969252791E+02 0.  0.
         25    2    1    2    0    0 -0.41562215049E+02 -0.73831036491E+02 -0.18195852878E+03  0.23650315412E+03  0.12508555490E+03 0.  0.
         24    2    1    2    0    0 -0.92503709447E+01 -0.22397173343E+01  0.90310967637E+01  0.81425107120E+02  0.80361070577E+02 0.  0.
        -13    1    5    5    0    0  0.30805807624E+02 -0.48205123650E+01 -0.15043242449E+02  0.34619853642E+02  0.00000000000E+00 0.  1.
         14    1    5    5    0    0 -0.40056178569E+02  0.25807950307E+01  0.24074339213E+02  0.46805253477E+02  0.00000000000E+00 0. -1.
         11    1    3    3    0    0  0.29525473781E+02  0.91280428781E+02 -0.12417134487E+04  0.12454140512E+04  0.00000000000E+00 0. -1.
        -12    1    3    3    0    0  0.21287112212E+02 -0.15209674955E+02 -0.31220348091E+03  0.31329776388E+03  0.00000000000E+00 0.  1.
          5    1    4    4  501    0  0.22870500387E+02  0.60683851101E+01  0.37074716947E+01  0.24312606446E+02  0.41800000000E+01 0.  1.
         -5    1    4    4    0  501 -0.64432715436E+02 -0.79899421602E+02 -0.18566600048E+03  0.21219054768E+03  0.41800000000E+01 0.  1.
</event>
<event>
11    1  0.8479398E-009  0.1766297E+03  0.7561462E-02  0.1072402E+00
         22   -1    0    0    0    0  0.00000000000E+00  0.00000000000E+00  0.13082384566E+04  0.13082384566E+04  0.00000000000E+00 0. -1.
         22   -1    0    0    0    0 -0.00000000000E+00 -0.00000000000E+00 -0.39482634497E+03  0.39482634497E+03  0.00000000000E+00 0.  1.
        -24    2    1    2    0    0 -0.99791410854E+02 -0.74579138315E+02 -0.33703211003E+03  0.36799064696E+03  0.79410953339E+02 0.  0.
         25    2    1    2    0    0  0.11381152924E+03  0.58379698168E+02  0.15574046947E+03  0.23719967924E+03  0.12508933069E+03 0.  0.
         24    2    1    2    0    0 -0.14020118386E+02  0.16199440147E+02  0.10947037522E+04  0.10978744754E+04  0.80579606743E+02 0.  0.
        -11    1    5    5    0    0 -0.12868567849E+02  0.61425059909E+01  0.30997022220E+02  0.34119580960E+02  0.00000000000E+00 0.  1.
         12    1    5    5    0    0 -0.11515505370E+01  0.10056934156E+02  0.10637067300E+04  0.10637548944E+04  0.00000000000E+00 0. -1.
         11    1    3    3    0    0 -0.55253103634E+02  0.23730512292E+01 -0.92206090458E+02  0.10751976540E+03  0.00000000000E+00 0. -1.
        -12    1    3    3    0    0 -0.44538307220E+02 -0.76952189544E+02 -0.24482601957E+03  0.26047088157E+03  0.00000000000E+00 0.  1.
          5    1    4    4  501    0  0.13298051593E+02 -0.37340357625E+02  0.39371585165E+02  0.56024410770E+02  0.41800000000E+01 0. -1.
         -5    1    4    4    0  501  0.10051347765E+03  0.95720055793E+02  0.11636888430E+03  0.18117526847E+03  0.41800000000E+01 0. -1.
</event>
<event>
11    1  0.8479398E-009  0.1476289E+03  0.7561462E-02  0.1099326E+00
         22   -1    0    0    0    0  0.00000000000E+00  0.00000000000E+00  0.76519785449E+03  0.76519785449E+03  0.00000000000E+00 0.  1.
         22   -1    0    0    0    0 -0.00000000000E+00 -0.00000000000E+00 -0.16937652968E+03  0.16937652968E+03  0.00000000000E+00 0.  1.
        -24    2    1    2    0    0  0.14653997219E+02 -0.79641165431E+02 -0.81611824328E+02  0.13969346458E+03  0.79349349784E+02 0.  0.
         25    2    1    2    0    0 -0.47494944855E+02  0.60286132831E+02  0.41252764564E+02  0.15244876004E+03  0.12509454926E+03 0.  0.
         24    2    1    2    0    0  0.32840947636E+02  0.19355032600E+02  0.63618038457E+03  0.64243215955E+03  0.80873065847E+02 0.  0.
        -13    1    5    5    0    0  0.14210723475E+02  0.15570239998E+02  0.60842657238E+03  0.60879164828E+03  0.00000000000E+00 0.  1.
         14    1    5    5    0    0  0.18630224161E+02  0.37847926021E+01  0.27753812191E+02  0.33640511270E+02  0.00000000000E+00 0. -1.
         11    1    3    3    0    0 -0.39123999024E+01 -0.14428120262E+02  0.15316963745E+02  0.21402964880E+02  0.00000000000E+00 0. -1.
        -12    1    3    3    0    0  0.18566397121E+02 -0.65213045169E+02 -0.96928788074E+02  0.11829049970E+03  0.00000000000E+00 0.  1.
          5    1    4    4  501    0 -0.12133338221E+02 -0.34793921504E+02 -0.10427754467E+02  0.38523308960E+02  0.41800000000E+01 0.  1.
         -5    1    4    4    0  501 -0.35361606635E+02  0.95080054335E+02  0.51680519031E+02  0.11392545108E+03  0.41800000000E+01 0.  1.
</event>
<event>
11    1  0.8479398E-009  0.1565623E+03  0.7561462E-02  0.1090356E+00
         22   -1    0    0    0    0  0.00000000000E+00  0.00000000000E+00  0.26935858326E+04  0.26935858326E+04  0.00000000000E+00 0.  1.
         22   -1    0    0    0    0 -0.00000000000E+00 -0.00000000000E+00 -0.21621495982E+03  0.21621495982E+03  0.00000000000E+00 0. -1.
         24    2    1    2    0    0  0.60091070035E+02 -0.89208795659E+02 -0.18335818609E+03  0.22674179349E+03  0.78882638069E+02 0.  0.
         25    2    1    2    0    0  0.45362751779E+02  0.58142062257E+02  0.58349990025E+03  0.60129675022E+03  0.12508944633E+03 0.  0.
        -24    2    1    2    0    0 -0.10545382181E+03  0.31066733403E+02  0.20772291586E+04  0.20817622487E+04  0.82264404859E+02 0.  0.
        -13    1    3    3    0    0  0.27460668370E+02 -0.18995162422E+02 -0.69716198702E+01  0.34110232869E+02  0.00000000000E+00 0.  1.
         14    1    3    3    0    0  0.32630401665E+02 -0.70213633237E+02 -0.17638656622E+03  0.19263156062E+03  0.00000000000E+00 0. -1.
         13    1    5    5    0    0 -0.41277939401E+01 -0.20833982914E+02  0.21174488332E+03  0.21280739916E+03  0.00000000000E+00 0. -1.
        -14    1    5    5    0    0 -0.10132602787E+03  0.51900716316E+02  0.18654842753E+04  0.18689548496E+04  0.00000000000E+00 0.  1.
          5    1    4    4  501    0 -0.12268054304E+02 -0.23646305627E+02  0.37493781497E+02  0.46183427516E+02  0.41800000000E+01 0.  1.
         -5    1    4    4    0  501  0.57630806083E+02  0.81788367883E+02  0.54600611875E+03  0.55511332271E+03  0.41800000000E+01 0.  1.
</event>
<event>
11    1  0.8479398E-009  0.1447548E+03  0.7561462E-02  0.1102362E+00
         22   -1    0    0    0    0  0.00000000000E+00  0.00000000000E+00  0.35883800424E+03  0.35883800424E+03  0.00000000000E+00 0.  1.
         22   -1    0    0    0    0 -0.00000000000E+00 -0.00000000000E+00 -0.39387106525E+03  0.39387106525E+03  0.00000000000E+00 0. -1.
        -24    2    1    2    0    0  0.10424836073E+02 -0.75443348109E+02 -0.29165255888E+03  0.31207367227E+03  0.80798427243E+02 0.  0.
         25    2    1    2    0    0  0.13092205270E+02  0.56677610055E+02 -0.30240587553E+02  0.14123096703E+03  0.12509170873E+03 0.  0.
         24    2    1    2    0    0 -0.23517041343E+02  0.18765738054E+02  0.28686008542E+03  0.29940443018E+03  0.80306288973E+02 0.  0.
        -13    1    5    5    0    0  0.13804232408E+02  0.38458217623E+02  0.17851836396E+03  0.18313491640E+03  0.00000000000E+00 0.  1.
         14    1    5    5    0    0 -0.37321273752E+02 -0.19692479569E+02  0.10834172146E+03  0.11626951378E+03  0.00000000000E+00 0. -1.
         13    1    3    3    0    0  0.16886960275E+01 -0.88486257121E+02 -0.19486268107E+03  0.21401900352E+03  0.00000000000E+00 0. -1.
        -14    1    3    3    0    0  0.87361400452E+01  0.13042909012E+02 -0.96789877810E+02  0.98054668756E+02  0.00000000000E+00 0.  1.
          5    1    4    4  501    0  0.24167449251E+02  0.61983737910E+02  0.34600645723E+02  0.75104769842E+02  0.41800000000E+01 0. -1.
         -5    1    4    4    0  501 -0.11075243981E+02 -0.53061278557E+01 -0.64841233276E+02  0.66126197190E+02  0.41800000000E+01 0. -1.
</event>
<event>
11    1  0.8479398E-009  0.1374409E+03  0.7561462E-02  0.1110450E+00
         22   -1    0    0    0    0  0.00000000000E+00  0.00000000000E+00  0.36744595473E+03  0.36744595473E+03  0.00000000000E+00 0.  1.
         22   -1    0    0    0    0 -0.00000000000E+00 -0.00000000000E+00 -0.11609337776E+04  0.11609337776E+04  0.00000000000E+00 0.  1.
        -24    2    1    2    0    0 -0.35261975815E+02  0.43073420722E+02 -0.99966527631E+03  0.10043204721E+04  0.78931739709E+02 0.  0.
         25    2    1    2    0    0  0.80915243218E+02 -0.33512623540E+02 -0.11400232549E+03  0.19056147984E+03  0.12508706912E+03 0.  0.
         24    2    1    2    0    0 -0.45653267404E+02 -0.95607971824E+01  0.32017977898E+03  0.33349778033E+03  0.80808718295E+02 0.  0.
        -11    1    5    5    0    0 -0.40127295887E+02 -0.19957403705E+02  0.31846106807E+03  0.32159905117E+03  0.00000000000E+00 0.  1.
         12    1    5    5    0    0 -0.55259715170E+01  0.10396606523E+02  0.17187109050E+01  0.11898729158E+02  0.00000000000E+00 0. -1.
         13    1    3    3    0    0  0.24184503490E+02  0.22153505095E+02 -0.40474283091E+03  0.40606948564E+03  0.00000000000E+00 0. -1.
        -14    1    3    3    0    0 -0.59446479304E+02  0.20919915627E+02 -0.59492244540E+03  0.59825098647E+03  0.00000000000E+00 0.  1.
          5    1    4    4  501    0  0.66238994488E+02 -0.36515096135E+02 -0.14062412123E+03  0.15972968575E+03  0.41800000000E+01 0.  1.
         -5    1    4    4    0  501  0.14676248730E+02  0.30024725955E+01  0.26621795744E+02  0.30831794095E+02  0.41800000000E+01 0.  1.
</event>
<event>
11    1  0.8479398E-009  0.1620684E+03  0.7561462E-02  0.1085148E+00
         22   -1    0    0    0    0  0.00000000000E+00  0.00000000000E+00  0.11429794920E+04  0.11429794920E+04  0.00000000000E+00 0.  1.
         22   -1    0    0    0    0 -0.00000000000E+00 -0.00000000000E+00 -0.66209609666E+03  0.66209609666E+03  0.00000000000E+00 0.  1.
        -24    2    1    2    0    0  0.21211684190E+02  0.10003472628E+03 -0.62081591449E+03  0.63428175904E+03  0.80274953474E+02 0.  0.
         25    2    1    2    0    0  0.35914727162E+02 -0.15310697196E+03  0.30850837601E+03  0.36817944802E+03  0.12508827038E+03 0.  0.
         24    2    1    2    0    0 -0.57126411352E+02  0.53072245686E+02  0.79319093385E+03  0.80261438163E+03  0.94646172285E+02 0.  0.
        -13    1    5    5    0    0 -0.52989450492E+02  0.78125425756E+02  0.68554903471E+03  0.69201802217E+03  0.00000000000E+00 0.  1.
         14    1    5    5    0    0 -0.41369608601E+01 -0.25053180070E+02  0.10764189913E+03  0.11059635946E+03  0.00000000000E+00 0. -1.
         13    1    3    3    0    0 -0.53843895685E+01 -0.50435412919E+01 -0.47982318198E+01  0.88006811319E+01  0.00000000000E+00 0. -1.
        -14    1    3    3    0    0  0.26596073759E+02  0.10507826757E+03 -0.61601768267E+03  0.62548107790E+03  0.00000000000E+00 0.  1.
          5    1    4    4  501    0  0.44427403635E+02 -0.10136984014E+03  0.29316328244E+03  0.31338765332E+03  0.41800000000E+01 0. -1.
         -5    1    4    4    0  501 -0.85126764737E+01 -0.51737131820E+02  0.15345093572E+02  0.54791794700E+02  0.41800000000E+01 0. -1.
</event>
<event>
11    1  0.8479398E-009  0.1598291E+03  0.7561462E-02  0.1087238E+00
         22   -1    0    0    0    0  0.00000000000E+00  0.00000000000E+00  0.14383665703E+04  0.14383665703E+04  0.00000000000E+00 0.  1.
         22   -1    0    0    0    0 -0.00000000000E+00 -0.00000000000E+00 -0.82167205202E+03  0.82167205202E+03  0.00000000000E+00 0. -1.
        -24    2    1    2    0    0 -0.69074600024E+02  0.38356239797E+02 -0.73186231245E+03  0.74046508905E+03  0.80147378129E+02 0.  0.
         25    2    1    2    0    0  0.13806184243E+03 -0.10569081040E+03  0.57736877628E+02  0.22184010422E+03  0.12509142683E+03 0.  0.
         24    2    1    2    0    0 -0.68987242409E+02  0.67334570602E+02  0.12908199531E+04  0.12977334290E+04  0.92750835638E+02 0.  0.
        -13    1    5    5    0    0 -0.39391328159E+02  0.89035835505E+01  0.93902205286E+03  0.93989008202E+03  0.00000000000E+00 0.  1.
         14    1    5    5    0    0 -0.29595914251E+02  0.58430987052E+02  0.35179790025E+03  0.35784334702E+03  0.00000000000E+00 0. -1.
         13    1    3    3    0    0 -0.57599792656E+02  0.10111941868E+02 -0.65750749085E+03  0.66010308892E+03  0.00000000000E+00 0. -1.
        -14    1    3    3    0    0 -0.11474807369E+02  0.28244297929E+02 -0.74354821605E+02  0.80362000134E+02  0.00000000000E+00 0.  1.
          5    1    4    4  501    0 -0.18795522522E+02 -0.29449070235E+02 -0.67896941208E+01  0.35834225969E+02  0.41800000000E+01 0. -1.
         -5    1    4    4    0  501  0.15685736496E+03 -0.76241740164E+02  0.64526571748E+02  0.18600587826E+03  0.41800000000E+01 0. -1.
</event>
<event>
11    1  0.8479398E-009  0.1370492E+03  0.7561462E-02  0.1110899E+00
         22   -1    0    0    0    0  0.00000000000E+00  0.00000000000E+00  0.67143683281E+02  0.67143683281E+02  0.00000000000E+00 0. -1.
         22   -1    0    0    0    0 -0.00000000000E+00 -0.00000000000E+00 -0.68462379072E+03  0.68462379072E+03  0.00000000000E+00 0.  1.
         24    2    1    2    0    0 -0.72610575448E+02 -0.14873137129E+02 -0.29998461440E+03  0.31930014301E+03  0.80425783031E+02 0.  0.
         25    2    1    2    0    0  0.24036937845E+02  0.28576226994E+02 -0.31134891830E+03  0.33761032239E+03  0.12509278847E+03 0.  0.
        -24    2    1    2    0    0  0.48573637603E+02 -0.13703089865E+02 -0.61465747349E+01  0.94857008593E+02  0.80080576649E+02 0.  0.
        -11    1    3    3    0    0 -0.28991750550E+02 -0.41626314464E+02 -0.20742753169E+03  0.21354028322E+03  0.00000000000E+00 0.  1.
         12    1    3    3    0    0 -0.43618824898E+02  0.26753177335E+02 -0.92557082710E+02  0.10575985979E+03  0.00000000000E+00 0. -1.
         11    1    5    5    0    0  0.15071204554E+02 -0.41537023677E+02  0.14701824737E+02  0.46568328220E+02  0.00000000000E+00 0. -1.
        -12    1    5    5    0    0  0.33502433049E+02  0.27833933811E+02 -0.20848399472E+02  0.48288680373E+02  0.00000000000E+00 0.  1.
          5    1    4    4  501    0 -0.14481231654E+02 -0.30377275079E+02 -0.23537110612E+02  0.41278964224E+02  0.41800000000E+01 0. -1.
         -5    1    4    4    0  501  0.38518169499E+02  0.58953502074E+02 -0.28781180769E+03  0.29633135817E+03  0.41800000000E+01 0. -1.
</event>
<event>
11    1  0.8479398E-009  0.1383625E+03  0.7561462E-02  0.1109401E+00
         22   -1    0    0    0    0  0.00000000000E+00  0.00000000000E+00  0.10073629685E+04  0.10073629685E+04  0.00000000000E+00 0.  1.
         22   -1    0    0    0    0 -0.00000000000E+00 -0.00000000000E+00 -0.39063631266E+03  0.39063631266E+03  0.00000000000E+00 0. -1.
        -24    2    1    2    0    0  0.14336328330E+02 -0.29492815565E+02 -0.35027573215E+03  0.36082385725E+03  0.80158661069E+02 0.  0.
         25    2    1    2    0    0 -0.72172749413E+02  0.30953265667E+02  0.13706387374E+03  0.20149587539E+03  0.12508825646E+03 0.  0.
         24    2    1    2    0    0  0.57836421083E+02 -0.14604501019E+01  0.82993851430E+03  0.83567954855E+03  0.78836449945E+02 0.  0.
        -13    1    5    5    0    0  0.72040452317E+02 -0.85360723961E+01  0.77789903201E+03  0.78127434062E+03  0.00000000000E+00 0.  1.
         14    1    5    5    0    0 -0.14204031234E+02  0.70756222942E+01  0.52039482282E+02  0.54405207934E+02  0.00000000000E+00 0. -1.
         13    1    3    3    0    0  0.28926266193E+02 -0.27270950314E+02 -0.34117910964E+03  0.34348743567E+03  0.00000000000E+00 0. -1.
        -14    1    3    3    0    0 -0.14589937863E+02 -0.22218652515E+01 -0.90966225104E+01  0.17336421578E+02  0.00000000000E+00 0.  1.
          5    1    4    4  501    0 -0.88904349827E+02 -0.22206570421E+02  0.81987571579E+02  0.12303068512E+03  0.41800000000E+01 0. -1.
         -5    1    4    4    0  501  0.16731600414E+02  0.53159836088E+02  0.55076302158E+02  0.78465190274E+02  0.41800000000E+01 0. -1.
</event>
<event>
11    1  0.8479398E-009  0.1969189E+03  0.7561462E-02  0.1056724E+00
         22   -1    0    0    0    0  0.00000000000E+00  0.00000000000E+00  0.63646587574E+03  0.63646587574E+03  0.00000000000E+00 0. -1.
         22   -1    0    0    0    0 -0.00000000000E+00 -0.00000000000E+00 -0.29448213009E+03  0.29448213009E+03  0.00000000000E+00 0.  1.
         24    2    1    2    0    0  0.56694418681E+02  0.10441645699E+03 -0.21085034226E+03  0.25525415166E+03  0.81115729100E+02 0.  0.
         25    2    1    2    0    0  0.12035999853E+03 -0.56393886189E+02  0.20793737120E+03  0.27667572479E+03  0.12507880197E+03 0.  0.
        -24    2    1    2    0    0 -0.17705441722E+03 -0.48022570798E+02  0.34489671671E+03  0.39901812938E+03  0.81285228753E+02 0.  0.
        -13    1    3    3    0    0 -0.73469227986E+01  0.63044737275E+02 -0.66022914124E+02  0.91584067185E+02  0.00000000000E+00 0.  1.
         14    1    3    3    0    0  0.64041341479E+02  0.41371719712E+02 -0.14482742814E+03  0.16367008447E+03  0.00000000000E+00 0. -1.
         11    1    5    5    0    0 -0.57249556270E+02 -0.40756155219E+02  0.19318055840E+03  0.20556581434E+03  0.00000000000E+00 0. -1.
        -12    1    5    5    0    0 -0.11980486094E+03 -0.72664155796E+01  0.15171615831E+03  0.19345231504E+03  0.00000000000E+00 0.  1.
          5    1    4    4  501    0  0.55590897472E+02 -0.66724292705E+02  0.38788025444E+02  0.95207470487E+02  0.41800000000E+01 0.  1.
         -5    1    4    4    0  501  0.64769101063E+02  0.10330406516E+02  0.16914934576E+03  0.18146825431E+03  0.41800000000E+01 0.  1.
</event>
<event>
11    1  0.8479398E-009  0.1658637E+03  0.7561462E-02  0.1081688E+00
         22   -1    0    0    0    0  0.00000000000E+00  0.00000000000E+00  0.16948176954E+04  0.16948176954E+04  0.00000000000E+00 0. -1.
         22   -1    0    0    0    0 -0.00000000000E+00 -0.00000000000E+00 -0.26635447397E+03  0.26635447397E+03  0.00000000000E+00 0. -1.
         24    2    1    2    0    0  0.93673331536E+02  0.65257172299E+02 -0.20888217085E+03  0.25114292658E+03  0.80048839435E+02 0.  0.
         25    2    1    2    0    0 -0.85013427813E+02  0.57265299925E+01  0.13061854958E+03  0.19991822029E+03  0.12508402479E+03 0.  0.
        -24    2    1    2    0    0 -0.86599037233E+01 -0.70983702291E+02  0.15067268427E+04  0.15101110225E+04  0.71385165066E+02 0.  0.
        -11    1    3    3    0    0  0.16786455945E+02  0.38440361405E+01  0.30416070462E+01  0.17487512415E+02  0.00000000000E+00 0.  1.
         12    1    3    3    0    0  0.76886875591E+02  0.61413136158E+02 -0.21192377790E+03  0.23365541417E+03  0.00000000000E+00 0. -1.
         11    1    5    5    0    0 -0.19228741498E+02 -0.37536634765E+02  0.12793004595E+04  0.12799954723E+04  0.00000000000E+00 0. -1.
        -12    1    5    5    0    0  0.10568837774E+02 -0.33447067526E+02  0.22742638322E+03  0.23011555019E+03  0.00000000000E+00 0.  1.
          5    1    4    4  501    0 -0.47969199166E+02 -0.47272399413E+02  0.11488950479E+03  0.13323961320E+03  0.41800000000E+01 0.  1.
         -5    1    4    4    0  501 -0.37044228647E+02  0.52998929405E+02  0.15729044792E+02  0.66678607096E+02  0.41800000000E+01 0.  1.
</event>
<event>
11    1  0.8479398E-009  0.1928231E+03  0.7561462E-02  0.1059718E+00
         22   -1    0    0    0    0  0.00000000000E+00  0.00000000000E+00  0.10569280406E+03  0.10569280406E+03  0.00000000000E+00 0.  1.
         22   -1    0    0    0    0 -0.00000000000E+00 -0.00000000000E+00 -0.74626576067E+03  0.74626576067E+03  0.00000000000E+00 0.  1.
         24    2    1    2    0    0  0.16310555959E+03  0.10302672407E+03 -0.35710781016E+03  0.41302997437E+03  0.76484261192E+02 0.  0.
         25    2    1    2    0    0 -0.79120894419E+02 -0.75678140515E+02 -0.27262326878E+03  0.31930999016E+03  0.12509247080E+03 0.  0.
        -24    2    1    2    0    0 -0.83984665168E+02 -0.27348583555E+02 -0.10841877670E+02  0.11961860020E+03  0.79935562783E+02 0.  0.
        -13    1    3    3    0    0  0.14931722733E+03  0.95423537802E+02 -0.35548130161E+03  0.39720050571E+03  0.00000000000E+00 0.  1.
         14    1    3    3    0    0  0.13788332258E+02  0.76031862685E+01 -0.16265085487E+01  0.15829468657E+02  0.00000000000E+00 0. -1.
         11    1    5    5    0    0 -0.90821117812E+02 -0.36686557287E+02 -0.25235464343E+02  0.10114943196E+03  0.00000000000E+00 0. -1.
        -12    1    5    5    0    0  0.68364526431E+01  0.93379737318E+01  0.14393586673E+02  0.18469168240E+02  0.00000000000E+00 0.  1.
          5    1    4    4  501    0  0.10087551493E+02 -0.15156574331E+01 -0.15018426077E+03  0.15058831461E+03  0.41800000000E+01 0.  1.
         -5    1    4    4    0  501 -0.89208445912E+02 -0.74162483082E+02 -0.12243900800E+03  0.16872167555E+03  0.41800000000E+01 0.  1.
</event>
<event>
11    1  0.8479398E-009  0.1321333E+03  0.7561462E-02  0.1116675E+00
         22   -1    0    0    0    0  0.00000000000E+00  0.00000000000E+00  0.14808533240E+04  0.14808533240E+04  0.00000000000E+00 0.  1.
         22   -1    0    0    0    0 -0.00000000000E+00 -0.00000000000E+00 -0.11181434590E+04  0.11181434590E+04  0.00000000000E+00 0.  1.
        -24    2    1    2    0    0 -0.11819424516E+02 -0.40727794129E+02 -0.11029771672E+04  0.11066623989E+04  0.79652882784E+02 0.  0.
         25    2    1    2    0    0 -0.90477157181E+01  0.82998870846E+02  0.49139165403E+03  0.51389336762E+03  0.12509980780E+03 0.  0.
         24    2    1    2    0    0  0.20867140234E+02 -0.42271076717E+02  0.97429537818E+03  0.97844101653E+03  0.76635875509E+02 0.  0.
        -13    1    5    5    0    0  0.34925066189E+02 -0.25667705601E+02  0.89955909976E+03  0.90060266784E+03  0.00000000000E+00 0.  1.
         14    1    5    5    0    0 -0.14057925955E+02 -0.16603371116E+02  0.74736278416E+02  0.77838348686E+02  0.00000000000E+00 0. -1.
         11    1    3    3    0    0 -0.26732937695E-01  0.24111272103E+02 -0.26212974416E+03  0.26323631385E+03  0.00000000000E+00 0. -1.
        -12    1    3    3    0    0 -0.11792691578E+02 -0.64839066232E+02 -0.84084742307E+03  0.84342608507E+03  0.00000000000E+00 0.  1.
          5    1    4    4  501    0 -0.59978978244E+02  0.46903848412E+02  0.16787467437E+03  0.18438228636E+03  0.41800000000E+01 0. -1.
         -5    1    4    4    0  501  0.50931262526E+02  0.36095022434E+02  0.32351697966E+03  0.32951108126E+03  0.41800000000E+01 0. -1.
</event>
<event>
11    1  0.8479398E-009  0.1411884E+03  0.7561462E-02  0.1106239E+00
         22   -1    0    0    0    0  0.00000000000E+00  0.00000000000E+00  0.16561079405E+04  0.16561079405E+04  0.00000000000E+00 0.  1.
         22   -1    0    0    0    0 -0.00000000000E+00 -0.00000000000E+00 -0.15096776955E+03  0.15096776955E+03  0.00000000000E+00 0. -1.
        -24    2    1    2    0    0  0.57714050651E+01  0.80780212062E+02 -0.11607125528E+03  0.16341043650E+03  0.81680368982E+02 0.  0.
         25    2    1    2    0    0 -0.30102039961E+02  0.14388017330E+01  0.49939367161E+03  0.51570429763E+03  0.12509468573E+03 0.  0.
         24    2    1    2    0    0  0.24330634896E+02 -0.82219013795E+02  0.11218177546E+04  0.11279609759E+04  0.80429736789E+02 0.  0.
        -13    1    5    5    0    0  0.35653571498E+02 -0.89355391381E+02  0.78438158594E+03  0.79025947352E+03  0.00000000000E+00 0.  1.
         14    1    5    5    0    0 -0.11322936602E+02  0.71363775856E+01  0.33743616868E+03  0.33770150239E+03  0.00000000000E+00 0. -1.
         13    1    3    3    0    0  0.35388732633E+02  0.58047944643E+02 -0.10385311941E+03  0.12412653498E+03  0.00000000000E+00 0. -1.
        -14    1    3    3    0    0 -0.29617327568E+02  0.22732267420E+02 -0.12218135866E+02  0.39283901517E+02  0.00000000000E+00 0.  1.
          5    1    4    4  501    0  0.21373126906E+02  0.20437420012E+02  0.40750922113E+03  0.40860217375E+03  0.41800000000E+01 0.  1.
         -5    1    4    4    0  501 -0.51475166867E+02 -0.18998618279E+02  0.91884450478E+02  0.10710212388E+03  0.41800000000E+01 0.  1.
</event>
<event>
11    1  0.8479398E-009  0.1617230E+03  0.7561462E-02  0.1085468E+00
         22   -1    0    0    0    0  0.00000000000E+00  0.00000000000E+00  0.16990801512E+03  0.16990801512E+03  0.00000000000E+00 0.  1.
         22   -1    0    0    0    0 -0.00000000000E+00 -0.00000000000E+00 -0.59204102293E+03  0.59204102293E+03  0.00000000000E+00 0. -1.
         24    2    1    2    0    0  0.71113692438E+02 -0.28280605325E+02 -0.27531427382E+03  0.29675551858E+03  0.80055846436E+02 0.  0.
         25    2    1    2    0    0 -0.16381787041E+03  0.45787633608E+02 -0.23194931840E+03  0.31365587476E+03  0.12508684748E+03 0.  0.
        -24    2    1    2    0    0  0.92704177971E+02 -0.17507028283E+02  0.85130584406E+02  0.15153764470E+03  0.82558347296E+02 0.  0.
        -13    1    3    3    0    0 -0.26556058516E+01 -0.49424910213E+01  0.40207943784E+01  0.69026985570E+01  0.00000000000E+00 0.  1.
         14    1    3    3    0    0  0.73769298289E+02 -0.23338114304E+02 -0.27933506820E+03  0.28985282003E+03  0.00000000000E+00 0. -1.
         13    1    5    5    0    0  0.69572516415E+02  0.24801557778E+02  0.34176200792E+02  0.81384673060E+02  0.00000000000E+00 0. -1.
        -14    1    5    5    0    0  0.23131661557E+02 -0.42308586062E+02  0.50954383614E+02  0.70152971644E+02  0.00000000000E+00 0.  1.
          5    1    4    4  501    0 -0.13363689468E+03  0.29261345656E+02 -0.81563525988E+02  0.15932710736E+03  0.41800000000E+01 0.  1.
         -5    1    4    4    0  501 -0.30180975732E+02  0.16526287952E+02 -0.15038579241E+03  0.15432876740E+03  0.41800000000E+01 0.  1.
</event>
<event>
11    1  0.8479398E-009  0.1665526E+03  0.7561462E-02  0.1081071E+00
         22   -1    0    0    0    0  0.00000000000E+00  0.00000000000E+00  0.44956829746E+03  0.44956829746E+03  0.00000000000E+00 0.  1.
         22   -1    0    0    0    0 -0.00000000000E+00 -0.00000000000E+00 -0.46984060741E+03  0.46984060741E+03  0.00000000000E+00 0.  1.
        -24    2    1    2    0    0  0.22225719024E+02  0.22833751357E+02 -0.35294920378E+03  0.36369395098E+03  0.81760545159E+02 0.  0.
         25    2    1    2    0    0 -0.12960080207E+03 -0.15644670833E+02 -0.16481805255E+02  0.18154990658E+03  0.12509034756E+03 0.  0.
         24    2    1    2    0    0  0.10737508305E+03 -0.71890805233E+01  0.34915869907E+03  0.37416504731E+03  0.80663462280E+02 0.  0.
        -13    1    5    5    0    0  0.86522250886E+02  0.38702072465E+00  0.33881069455E+03  0.34968405229E+03  0.00000000000E+00 0.  1.
         14    1    5    5    0    0  0.20852832162E+02 -0.75761012480E+01  0.10348004522E+02  0.24480995015E+02  0.00000000000E+00 0. -1.
         11    1    3    3    0    0  0.10688793495E+02  0.53714312239E+02 -0.22385265475E+03  0.23045496020E+03  0.00000000000E+00 0. -1.
        -12    1    3    3    0    0  0.11536925529E+02 -0.30880560882E+02 -0.12909654903E+03  0.13323899078E+03  0.00000000000E+00 0.  1.
          5    1    4    4  501    0 -0.10247995324E+02  0.10775552899E+02  0.42890949551E+02  0.45587716567E+02  0.41800000000E+01 0. -1.
         -5    1    4    4    0  501 -0.11935280675E+03 -0.26420223732E+02 -0.59372754806E+02  0.13596219002E+03  0.41800000000E+01 0. -1.
</event>
<event>
11    1  0.8479398E-009  0.1370400E+03  0.7561462E-02  0.1110909E+00
         22   -1    0    0    0    0  0.00000000000E+00  0.00000000000E+00  0.79659602849E+03  0.79659602849E+03  0.00000000000E+00 0. -1.
         22   -1    0    0    0    0 -0.00000000000E+00 -0.00000000000E+00 -0.19151597604E+03  0.19151597604E+03  0.00000000000E+00 0.  1.
        -24    2    1    2    0    0  0.27371182667E+02  0.49971835627E+02 -0.11137424414E+03  0.14979221253E+03  0.82383971008E+02 0.  0.
         25    2    1    2    0    0 -0.66248874160E+02 -0.17718429639E+02  0.30502439086E+02  0.14588047421E+03  0.12509139814E+03 0.  0.
         24    2    1    2    0    0  0.38877691493E+02 -0.32253405988E+02  0.68595185750E+03  0.69243931780E+03  0.79940608739E+02 0.  0.
        -13    1    5    5    0    0  0.37064279404E+00  0.25227908089E+02  0.16679464937E+03  0.16869214499E+03  0.00000000000E+00 0.  1.
         14    1    5    5    0    0  0.38507048699E+02 -0.57481314077E+02  0.51915720814E+03  0.52374717281E+03  0.00000000000E+00 0. -1.
         11    1    3    3    0    0 -0.40631347257E+00  0.22034677778E+02  0.84918830326E+01  0.23617878670E+02  0.00000000000E+00 0. -1.
        -12    1    3    3    0    0  0.27777496140E+02  0.27937157849E+02 -0.11986612718E+03  0.12617433386E+03  0.00000000000E+00 0.  1.
          5    1    4    4  501    0  0.17277323559E+02  0.44008359115E+01 -0.33563233123E+02  0.38233967670E+02  0.41800000000E+01 0. -1.
         -5    1    4    4    0  501 -0.83526197720E+02 -0.22119265550E+02  0.64065672209E+02  0.10764650654E+03  0.41800000000E+01 0. -1.
</event>
<event>
11    1  0.8479398E-009  0.1442539E+03  0.7561462E-02  0.1102899E+00
         22   -1    0    0    0    0  0.00000000000E+00  0.00000000000E+00  0.73324711054E+03  0.73324711054E+03  0.00000000000E+00 0. -1.
         22   -1    0    0    0    0 -0.00000000000E+00 -0.00000000000E+00 -0.42321253741E+03  0.42321253741E+03  0.00000000000E+00 0.  1.
        -24    2    1    2    0    0 -0.34529836976E+02  0.66078338276E+01 -0.38135403366E+03  0.39095646553E+03  0.78613521989E+02 0.  0.
         25    2    1    2    0    0  0.74141122272E+02  0.50745649889E+02  0.15449634638E+03  0.21814674128E+03  0.12508738022E+03 0.  0.
         24    2    1    2    0    0 -0.39611285296E+02 -0.57353483717E+02  0.53689226040E+03  0.54735644115E+03  0.80543766781E+02 0.  0.
        -11    1    5    5    0    0 -0.35979977447E+01 -0.68114337495E+02  0.31466071739E+03  0.32196874946E+03  0.00000000000E+00 0.  1.
         12    1    5    5    0    0 -0.36013287551E+02  0.10760853778E+02  0.22223154302E+03  0.22538769169E+03  0.00000000000E+00 0. -1.
         13    1    3    3    0    0 -0.50288208128E+02 -0.73742116603E+01 -0.14470410393E+03  0.15337066397E+03  0.00000000000E+00 0. -1.
        -14    1    3    3    0    0  0.15758371152E+02  0.13982045488E+02 -0.23664992973E+03  0.23758580156E+03  0.00000000000E+00 0.  1.
          5    1    4    4  501    0  0.10480542044E+03  0.56817513439E+02  0.10222509456E+03  0.15709821242E+03  0.41800000000E+01 0. -1.
         -5    1    4    4    0  501 -0.30664298166E+02 -0.60718635496E+01  0.52271251820E+02  0.61048528859E+02  0.41800000000E+01 0. -1.
</event>
<event>
11    1  0.8479398E-009  0.1273576E+03  0.7561462E-02  0.1122559E+00
         22   -1    0    0    0    0  0.00000000000E+00  0.00000000000E+00  0.19965880051E+04  0.19965880051E+04  0.00000000000E+00 0. -1.
         22   -1    0    0    0    0 -0.00000000000E+00 -0.00000000000E+00 -0.68585635768E+02  0.68585635768E+02  0.00000000000E+00 0. -1.
         24    2    1    2    0    0  0.70316945805E+01  0.59664409882E+01 -0.26419504025E+02  0.86165296342E+02  0.81494938212E+02 0.  0.
         25    2    1    2    0    0 -0.42151497229E+01  0.18378802026E+02  0.34454528419E+03  0.36703389161E+03  0.12508747691E+03 0.  0.
        -24    2    1    2    0    0 -0.28165448576E+01 -0.24345243014E+02  0.16098765892E+04  0.16119744529E+04  0.78475351105E+02 0.  0.
        -13    1    3    3    0    0  0.35474957861E+02 -0.57564891255E+01 -0.38904693569E+02  0.52963997054E+02  0.00000000000E+00 0.  1.
         14    1    3    3    0    0 -0.28443263280E+02  0.11722930114E+02  0.12485189544E+02  0.33201299288E+02  0.00000000000E+00 0. -1.
         11    1    5    5    0    0  0.13603954104E+02  0.21063692933E+02  0.25313938543E+03  0.25437825218E+03  0.00000000000E+00 0. -1.
        -12    1    5    5    0    0 -0.16420498962E+02 -0.45408935946E+02  0.13567372038E+04  0.13575962008E+04  0.00000000000E+00 0.  1.
          5    1    4    4  501    0 -0.14139974246E+01  0.61310817503E+02  0.90907165864E+02  0.10973878502E+03  0.41800000000E+01 0. -1.
         -5    1    4    4    0  501 -0.28011522982E+01 -0.42932015478E+02  0.25363811833E+03  0.25729510659E+03  0.41800000000E+01 0. -1.
</event>
<event>
11    1  0.8479398E-009  0.1648160E+03  0.7561462E-02  0.1082633E+00
         22   -1    0    0    0    0  0.00000000000E+00  0.00000000000E+00  0.54156013882E+03  0.54156013882E+03  0.00000000000E+00 0. -1.
         22   -1    0    0    0    0 -0.00000000000E+00 -0.00000000000E+00 -0.34310734955E+03  0.34310734955E+03  0.00000000000E+00 0. -1.
        -24    2    1    2    0    0  0.83812902458E+02 -0.77230200402E+02 -0.28824300317E+03  0.32060954076E+03  0.81959394079E+02 0.  0.
         25    2    1    2    0    0 -0.32622230175E+02  0.32302634519E+02  0.11983776316E+03  0.17920792325E+03  0.12508685053E+03 0.  0.
         24    2    1    2    0    0 -0.51190672283E+02  0.44927565883E+02  0.36685802928E+03  0.38485002437E+03  0.94264290717E+02 0.  0.
        -11    1    5    5    0    0 -0.34979647147E+02 -0.21619091837E+02  0.80258001978E+02  0.90179308757E+02  0.00000000000E+00 0.  1.
         12    1    5    5    0    0 -0.16211025136E+02  0.66546657720E+02  0.28660002730E+03  0.29467071561E+03  0.00000000000E+00 0. -1.
         13    1    3    3    0    0  0.93252581526E+02 -0.58711517846E+02 -0.27422779676E+03  0.29554013400E+03  0.00000000000E+00 0. -1.
        -14    1    3    3    0    0 -0.94396790683E+01 -0.18518682556E+02 -0.14015206406E+02  0.25069406757E+02  0.00000000000E+00 0.  1.
          5    1    4    4  501    0  0.17407710677E+02 -0.62496565989E+01  0.11408285541E+03  0.11564798700E+03  0.41800000000E+01 0.  1.
         -5    1    4    4    0  501 -0.50029940852E+02  0.38552291118E+02  0.57549077501E+01  0.63559936244E+02  0.41800000000E+01 0.  1.
</event>
<event>
11    1  0.8479398E-009  0.1614590E+03  0.7561462E-02  0.1085713E+00
         22   -1    0    0    0    0  0.00000000000E+00  0.00000000000E+00  0.77377677093E+03  0.77377677093E+03  0.00000000000E+00 0.  1.
         22   -1    0    0    0    0 -0.00000000000E+00 -0.00000000000E+00 -0.23024146763E+03  0.23024146763E+03  0.00000000000E+00 0.  1.
        -24    2    1    2    0    0 -0.47856977808E+02 -0.87233498172E+02 -0.15230702038E+03  0.19214646946E+03  0.61829311344E+02 0.  0.
         25    2    1    2    0    0  0.96422344164E+02  0.84068811928E+02  0.92761373279E+02  0.20153524861E+03  0.12508777105E+03 0.  0.
         24    2    1    2    0    0 -0.48565366356E+02  0.31646862438E+01  0.60308095040E+03  0.61033652048E+03  0.80221103544E+02 0.  0.
        -13    1    5    5    0    0 -0.57499810493E+02 -0.24231610184E+02  0.47327202875E+03  0.47736758618E+03  0.00000000000E+00 0.  1.
         14    1    5    5    0    0  0.89344441375E+01  0.27396296428E+02  0.12980892164E+03  0.13296893430E+03  0.00000000000E+00 0. -1.
         11    1    3    3    0    0 -0.48612888671E+02 -0.59998102889E+02 -0.65807596028E+02  0.10145750337E+03  0.00000000000E+00 0. -1.
        -12    1    3    3    0    0  0.75591086252E+00 -0.27235395283E+02 -0.86499424353E+02  0.90688966092E+02  0.00000000000E+00 0.  1.
          5    1    4    4  501    0 -0.11654375963E+01  0.23341379154E+02 -0.26683809882E+02  0.35716611478E+02  0.41800000000E+01 0. -1.
         -5    1    4    4    0  501  0.97587781760E+02  0.60727432774E+02  0.11944518316E+03  0.16581863713E+03  0.41800000000E+01 0. -1.
</event>
<event>
11    1  0.8479398E-009  0.2867138E+03  0.7561462E-02  0.1005976E+00
         22   -1    0    0    0    0  0.00000000000E+00  0.00000000000E+00  0.16161295760E+04  0.16161295760E+04  0.00000000000E+00 0. -1.
         22   -1    0    0    0    0 -0.00000000000E+00 -0.00000000000E+00 -0.46328573742E+03  0.46328573742E+03  0.00000000000E+00 0.  1.
        -24    2    1    2    0    0  0.21922496623E+02 -0.26444330968E+03 -0.39460298383E+03  0.48242588589E+03  0.81316422944E+02 0.  0.
         25    2    1    2    0    0  0.99465082743E+01  0.16963079846E+03  0.51391045773E+03  0.55554052136E+03  0.12509105279E+03 0.  0.
         24    2    1    2    0    0 -0.31869004897E+02  0.94812511213E+02  0.10335363647E+04  0.10414489062E+04  0.80083464514E+02 0.  0.
        -13    1    5    5    0    0 -0.17087303051E+02 -0.10943650476E+02  0.12153627152E+03  0.12321852420E+03  0.00000000000E+00 0.  1.
         14    1    5    5    0    0 -0.14781701846E+02  0.10575616169E+03  0.91200009317E+03  0.91823038198E+03  0.00000000000E+00 0. -1.
         13    1    3    3    0    0  0.41038145046E+02 -0.63038174230E+02 -0.10753845873E+03  0.13123437380E+03  0.00000000000E+00 0. -1.
        -14    1    3    3    0    0 -0.19115648423E+02 -0.20140513545E+03 -0.28706452510E+03  0.35119151210E+03  0.00000000000E+00 0.  1.
          5    1    4    4  501    0  0.59958189889E+02  0.13791570037E+03  0.34066783544E+03  0.37240807114E+03  0.41800000000E+01 0. -1.
         -5    1    4    4    0  501 -0.50011681615E+02  0.31715098094E+02  0.17324262229E+03  0.18313245022E+03  0.41800000000E+01 0. -1.
</event>
<event>
11    1  0.8479398E-009  0.1366445E+03  0.7561462E-02  0.1111364E+00
         22   -1    0    0    0    0  0.00000000000E+00  0.00000000000E+00  0.45936503593E+02  0.45936503593E+02  0.00000000000E+00 0.  1.
         22   -1    0    0    0    0 -0.00000000000E+00 -0.00000000000E+00 -0.22105942678E+04  0.22105942678E+04  0.00000000000E+00 0.  1.
         24    2    1    2    0    0 -0.11053722531E+02  0.26293594767E+02 -0.18994334806E+04  0.19013542832E+04  0.80542071300E+02 0.  0.
         25    2    1    2    0    0 -0.41926945380E+02  0.11711219939E+02 -0.15011211821E+03  0.20018720068E+03  0.12508495458E+03 0.  0.
        -24    2    1    2    0    0  0.52980667911E+02 -0.38004814706E+02 -0.11511216539E+03  0.15498928747E+03  0.80743739670E+02 0.  0.
        -13    1    3    3    0    0 -0.38074660568E+01 -0.61627566820E+01 -0.16100419637E+04  0.16100582602E+04  0.00000000000E+00 0.  1.
         14    1    3    3    0    0 -0.72462564737E+01  0.32456351449E+02 -0.28939151690E+03  0.29129602303E+03  0.00000000000E+00 0. -1.
         11    1    5    5    0    0  0.36512682640E+02  0.37088070654E+01 -0.10179243402E+03  0.10820642710E+03  0.00000000000E+00 0. -1.
        -12    1    5    5    0    0  0.16467985270E+02 -0.41713621771E+02 -0.13319731375E+02  0.46782860366E+02  0.00000000000E+00 0.  1.
          5    1    4    4  501    0 -0.38844084075E+02 -0.52307108388E+01  0.87197462484E+01  0.40369909315E+02  0.41800000000E+01 0.  1.
         -5    1    4    4    0  501 -0.30828613051E+01  0.16941930777E+02 -0.15883186446E+03  0.15981729137E+03  0.41800000000E+01 0.  1.
</event>
<event>
11    1  0.8479398E-009  0.2182225E+03  0.7561462E-02  0.1042337E+00
         22   -1    0    0    0    0  0.00000000000E+00  0.00000000000E+00  0.10617657062E+04  0.10617657062E+04  0.00000000000E+00 0. -1.
         22   -1    0    0    0    0 -0.00000000000E+00 -0.00000000000E+00 -0.94457021011E+02  0.94457021011E+02  0.00000000000E+00 0.  1.
         24    2    1    2    0    0  0.81703617015E+02 -0.14493126270E+03  0.15714866012E+03  0.24238798784E+03  0.79847876174E+02 0.  0.
         25    2    1    2    0    0 -0.86694617638E+02  0.17629674533E+03  0.23247812337E+03  0.32907477568E+03  0.12509049125E+03 0.  0.
        -24    2    1    2    0    0  0.49910006227E+01 -0.31365482626E+02  0.57768190172E+03  0.58475996371E+03  0.84965475366E+02 0.  0.
        -11    1    3    3    0    0  0.14901379707E+02 -0.90685690621E+02  0.48897516142E+02  0.10410049320E+03  0.00000000000E+00 0.  1.
         12    1    3    3    0    0  0.66802237308E+02 -0.54245572079E+02  0.10825114398E+03  0.13828749463E+03  0.00000000000E+00 0. -1.
         13    1    5    5    0    0 -0.23727450783E+00 -0.53547302965E+02  0.51983612477E+03  0.52258680291E+03  0.00000000000E+00 0. -1.
        -14    1    5    5    0    0  0.52282751306E+01  0.22181820339E+02  0.57845776940E+02  0.62173160803E+02  0.00000000000E+00 0.  1.
          5    1    4    4  501    0 -0.88347088172E+02  0.62466858015E+02  0.16284826482E+03  0.19556161713E+03  0.41800000000E+01 0. -1.
         -5    1    4    4    0  501  0.16524705345E+01  0.11382988731E+03  0.69629858553E+02  0.13351315855E+03  0.41800000000E+01 0. -1.
</event>
<event>
11    1  0.8479398E-009  0.1330740E+03  0.7561462E-02  0.1115549E+00
         22   -1    0    0    0    0  0.00000000000E+00  0.00000000000E+00  0.18212219833E+03  0.18212219833E+03  0.00000000000E+00 0. -1.
         22   -1    0    0    0    0 -0.00000000000E+00 -0.00000000000E+00 -0.61500211309E+03  0.61500211309E+03  0.00000000000E+00 0.  1.
        -24    2    1    2    0    0 -0.35095978498E+02 -0.28706085159E+02 -0.38470669682E+03  0.39536699223E+03  0.79120471030E+02 0.  0.
         25    2    1    2    0    0  0.33471813831E+02  0.31151252701E+02 -0.19403011896E+03  0.23534147120E+03  0.12508860116E+03 0.  0.
         24    2    1    2    0    0  0.16241646669E+01 -0.24451675422E+01  0.14585690102E+03  0.16641584798E+03  0.80071106713E+02 0.  0.
        -11    1    5    5    0    0  0.84511389949E+01  0.23589489955E+02  0.85200993348E+01  0.26466542640E+02  0.00000000000E+00 0.  1.
         12    1    5    5    0    0 -0.68269743280E+01 -0.26034657497E+02  0.13733680169E+03  0.13994930534E+03  0.00000000000E+00 0. -1.
         11    1    3    3    0    0  0.21162346926E+02 -0.72484045727E+01 -0.43776132069E+02  0.49160289210E+02  0.00000000000E+00 0. -1.
        -12    1    3    3    0    0 -0.56258325424E+02 -0.21457680586E+02 -0.34093056475E+03  0.34620670302E+03  0.00000000000E+00 0.  1.
          5    1    4    4  501    0  0.55962011464E+02 -0.26846434026E+02 -0.55255374847E+02  0.83205207748E+02  0.41800000000E+01 0. -1.
         -5    1    4    4    0  501 -0.22490197633E+02  0.57997686726E+02 -0.13877474411E+03  0.15213626345E+03  0.41800000000E+01 0. -1.
</event>
<event>
11    1  0.8479398E-009  0.2081935E+03  0.7561462E-02  0.1048876E+00
         22   -1    0    0    0    0  0.00000000000E+00  0.00000000000E+00  0.70093919069E+03  0.70093919069E+03  0.00000000000E+00 0. -1.
         22   -1    0    0    0    0 -0.00000000000E+00 -0.00000000000E+00 -0.18328458518E+03  0.18328458518E+03  0.00000000000E+00 0.  1.
        -24    2    1    2    0    0 -0.29229645961E+02 -0.28202383051E+02 -0.35106549177E+02  0.94965976708E+02  0.78334668725E+02 0.  0.
         25    2    1    2    0    0  0.75780268864E+02  0.18322670849E+03  0.30213984620E+02  0.23637881722E+03  0.12508950599E+03 0.  0.
         24    2    1    2    0    0 -0.46550622903E+02 -0.15502432544E+03  0.52254717007E+03  0.55287898195E+03  0.80125662325E+02 0.  0.
        -11    1    5    5    0    0  0.10289387565E+02 -0.10011659734E+03  0.26447901462E+03  0.28298118971E+03  0.00000000000E+00 0.  1.
         12    1    5    5    0    0 -0.56840010468E+02 -0.54907728105E+02  0.25806815545E+03  0.26989779223E+03  0.00000000000E+00 0. -1.
         11    1    3    3    0    0  0.14202255710E+02  0.15093205852E+01  0.16113218246E+02  0.21531788549E+02  0.00000000000E+00 0. -1.
        -12    1    3    3    0    0 -0.43431901671E+02 -0.29711703636E+02 -0.51219767424E+02  0.73434188159E+02  0.00000000000E+00 0.  1.
          5    1    4    4  501    0 -0.23064897723E+02  0.81367328707E+02  0.40788903533E+02  0.93988503230E+02  0.41800000000E+01 0.  1.
         -5    1    4    4    0  501  0.98845166587E+02  0.10185937978E+03 -0.10574918914E+02  0.14239031399E+03  0.41800000000E+01 0.  1.
</event>
<event>
11    1  0.8479398E-009  0.2504245E+03  0.7561462E-02  0.1023673E+00
         22   -1    0    0    0    0  0.00000000000E+00  0.00000000000E+00  0.25351153500E+03  0.25351153500E+03  0.00000000000E+00 0.  1.
         22   -1    0    0    0    0 -0.00000000000E+00 -0.00000000000E+00 -0.64331780298E+03  0.64331780298E+03  0.00000000000E+00 0.  1.
         24    2    1    2    0    0  0.12161728488E+02  0.15793538918E+03 -0.13698235891E+03  0.22489157530E+03  0.81979016797E+02 0.  0.
         25    2    1    2    0    0 -0.15540748916E+02 -0.30271406697E+03 -0.35103358807E+03  0.48036384151E+03  0.12509004380E+03 0.  0.
        -24    2    1    2    0    0  0.33790204284E+01  0.14477867780E+03  0.98209678996E+02  0.19157392118E+03  0.77994505597E+02 0.  0.
        -11    1    3    3    0    0 -0.88220798445E+01  0.14617368433E+03 -0.13743691533E+03  0.20083197151E+03  0.00000000000E+00 0.  1.
         12    1    3    3    0    0  0.20983808332E+02  0.11761704842E+02  0.45455642667E+00  0.24059603789E+02  0.00000000000E+00 0. -1.
         11    1    5    5    0    0 -0.16562936234E+02  0.57693122188E+02  0.16812911609E+01  0.60047097719E+02  0.00000000000E+00 0. -1.
        -12    1    5    5    0    0  0.19941956662E+02  0.87085555607E+02  0.96528387835E+02  0.13152682346E+03  0.00000000000E+00 0.  1.
          5    1    4    4  501    0  0.51602872423E+02 -0.18723184019E+03 -0.20907262304E+03  0.28539000075E+03  0.41800000000E+01 0. -1.
         -5    1    4    4    0  501 -0.67143621339E+02 -0.11548222678E+03 -0.14196096503E+03  0.19497384076E+03  0.41800000000E+01 0. -1.
</event>
<event>
11    1  0.8479398E-009  0.1521644E+03  0.7561462E-02  0.1094688E+00
         22   -1    0    0    0    0  0.00000000000E+00  0.00000000000E+00  0.55500194055E+03  0.55500194055E+03  0.00000000000E+00 0.  1.
         22   -1    0    0    0    0 -0.00000000000E+00 -0.00000000000E+00 -0.55751991803E+03  0.55751991803E+03  0.00000000000E+00 0.  1.
        -24    2    1    2    0    0  0.19284806905E+02  0.83083773036E+02 -0.47595427500E+03  0.49049392149E+03  0.82322524350E+02 0.  0.
         25    2    1    2    0    0 -0.43049811719E+02 -0.97037781320E+02  0.25636081622E+02  0.16605463490E+03  0.12508923134E+03 0.  0.
         24    2    1    2    0    0  0.23765004814E+02  0.13954008284E+02  0.44780021590E+03  0.45597330219E+03  0.81407181164E+02 0.  0.
        -11    1    5    5    0    0  0.18445176825E+01  0.46392394877E+02  0.26372240764E+03  0.26777820083E+03  0.00000000000E+00 0.  1.
         12    1    5    5    0    0  0.21920487132E+02 -0.32438386592E+02  0.18407780826E+03  0.18819510136E+03  0.00000000000E+00 0. -1.
         13    1    3    3    0    0 -0.15060827450E+02  0.36435270716E+02 -0.69262484769E+02  0.79697235034E+02  0.00000000000E+00 0. -1.
        -14    1    3    3    0    0  0.34345634354E+02  0.46648502320E+02 -0.40669179023E+03  0.41079668646E+03  0.00000000000E+00 0.  1.
          5    1    4    4  501    0 -0.83273943769E+02 -0.36581448884E+02  0.19046465270E+02  0.93021461785E+02  0.41800000000E+01 0. -1.
         -5    1    4    4    0  501  0.40224132051E+02 -0.60456332436E+02  0.65896163519E+01  0.73033173110E+02  0.41800000000E+01 0. -1.
</event>
<event>
11    1  0.8479398E-009  0.2501884E+03  0.7561462E-02  0.1023799E+00
         22   -1    0    0    0    0  0.00000000000E+00  0.00000000000E+00  0.63188935474E+03  0.63188935474E+03  0.00000000000E+00 0. -1.
         22   -1    0    0    0    0 -0.00000000000E+00 -0.00000000000E+00 -0.11632385894E+04  0.11632385894E+04  0.00000000000E+00 0. -1.
        -24    2    1    2    0    0 -0.23170516908E+02  0.68613436646E+02 -0.95531405544E+03  0.96128281575E+03  0.78708517889E+02 0.  0.
         25    2    1    2    0    0 -0.18021700400E+02  0.15301335877E+03 -0.12521434810E+03  0.23465161982E+03  0.12507949499E+03 0.  0.
         24    2    1    2    0    0  0.41192217308E+02 -0.22162679542E+03  0.54917916885E+03  0.59919350861E+03  0.81362559211E+02 0.  0.
        -11    1    5    5    0    0  0.46486437943E+02 -0.12122330192E+03  0.22489282387E+03  0.25967837813E+03  0.00000000000E+00 0.  1.
         12    1    5    5    0    0 -0.52942206351E+01 -0.10040349349E+03  0.32428634499E+03  0.33951513048E+03  0.00000000000E+00 0. -1.
         11    1    3    3    0    0 -0.46022660319E+02  0.70318614248E+02 -0.75180271094E+03  0.75648536598E+03  0.00000000000E+00 0. -1.
        -12    1    3    3    0    0  0.22852143411E+02 -0.17051776015E+01 -0.20351134450E+03  0.20479744977E+03  0.00000000000E+00 0.  1.
          5    1    4    4  501    0 -0.85976701040E+01  0.16225268139E+03 -0.68683590025E+02  0.17645044768E+03  0.41800000000E+01 0.  1.
         -5    1    4    4    0  501 -0.94240302960E+01 -0.92393226156E+01 -0.56530758080E+02  0.58201172140E+02  0.41800000000E+01 0.  1.
</event>
<event>
11    1  0.8479398E-009  0.1595213E+03  0.7561462E-02  0.1087528E+00
         22   -1    0    0    0    0  0.00000000000E+00  0.00000000000E+00  0.27468244070E+04  0.27468244070E+04  0.00000000000E+00 0.  1.
         22   -1    0    0    0    0 -0.00000000000E+00 -0.00000000000E+00 -0.13311783773E+03  0.13311783773E+03  0.00000000000E+00 0. -1.
         24    2    1    2    0    0 -0.18383183069E+02 -0.97883442509E+02 -0.94674361530E+02  0.16036527027E+03  0.82672095906E+02 0.  0.
         25    2    1    2    0    0  0.41318374230E+02  0.69134287231E+02  0.13283526044E+04  0.13366561431E+04  0.12506896373E+03 0.  0.
        -24    2    1    2    0    0 -0.22935191161E+02  0.28749155278E+02  0.13800283264E+04  0.13829208313E+04  0.81481943282E+02 0.  0.
        -13    1    3    3    0    0 -0.23997619196E+02 -0.76332386183E+01  0.51193942984E+01  0.25697475691E+02  0.00000000000E+00 0.  1.
         14    1    3    3    0    0  0.56144361272E+01 -0.90250203891E+02 -0.99793755828E+02  0.13466779458E+03  0.00000000000E+00 0. -1.
         11    1    5    5    0    0  0.95409998104E+01  0.14239109038E+02  0.59656505823E+02  0.62069973341E+02  0.00000000000E+00 0. -1.
        -12    1    5    5    0    0 -0.32476190972E+02  0.14510046241E+02  0.13203718206E+04  0.13208508580E+04  0.00000000000E+00 0.  1.
          5    1    4    4  501    0 -0.14975424560E+02 -0.79605919836E+01  0.76918360468E+03  0.76938191067E+03  0.41800000000E+01 0. -1.
         -5    1    4    4    0  501  0.56293798791E+02  0.77094879214E+02  0.55916899968E+03  0.56727423244E+03  0.41800000000E+01 0. -1.
</event>
<event>
11    1  0.8479398E-009  0.1953704E+03  0.7561462E-02  0.1057847E+00
         22   -1    0    0    0    0  0.00000000000E+00  0.00000000000E+00  0.26883561635E+03  0.26883561635E+03  0.00000000000E+00 0.  1.
         22   -1    0    0    0    0 -0.00000000000E+00 -0.00000000000E+00 -0.38512883809E+04  0.38512883809E+04  0.00000000000E+00 0. -1.
         24    2    1    2    0    0  0.26296341487E+02  0.47256002499E+02 -0.26458259205E+04  0.26475813652E+04  0.79797598049E+02 0.  0.
         25    2    1    2    0    0 -0.22408210034E+02 -0.19618271341E+03 -0.11646041995E+04  0.11878298483E+04  0.12508805700E+03 0.  0.
        -24    2    1    2    0    0 -0.38881314523E+01  0.14892671091E+03  0.22797735542E+03  0.28471278378E+03  0.83026573317E+02 0.  0.
        -11    1    3    3    0    0 -0.21462073910E+02  0.11077546978E+02 -0.29334506006E+03  0.29433765802E+03  0.00000000000E+00 0.  1.
         12    1    3    3    0    0  0.47758415397E+02  0.36178455521E+02 -0.23524808604E+04  0.23532437072E+04  0.00000000000E+00 0. -1.
         13    1    5    5    0    0  0.14063202234E+02  0.60987256131E+02  0.34583693201E+02  0.71506998978E+02  0.00000000000E+00 0. -1.
        -14    1    5    5    0    0 -0.17951333686E+02  0.87939454775E+02  0.19339366222E+03  0.21320578480E+03  0.00000000000E+00 0.  1.
          5    1    4    4  501    0  0.41691405980E+02 -0.13078415048E+03 -0.81050343888E+03  0.82205593738E+03  0.41800000000E+01 0.  1.
         -5    1    4    4    0  501 -0.64099616015E+02 -0.65398562923E+02 -0.35410076062E+03  0.36577391087E+03  0.41800000000E+01 0.  1.
</event>
<event>
11    1  0.8479398E-009  0.1870785E+03  0.7561462E-02  0.1064057E+00
         22   -1    0    0    0    0  0.00000000000E+00  0.00000000000E+00  0.26916929525E+03  0.26916929525E+03  0.00000000000E+00 0.  1.
         22   -1    0    0    0    0 -0.00000000000E+00 -0.00000000000E+00 -0.63196030824E+03  0.63196030824E+03  0.00000000000E+00 0.  1.
         24    2    1    2    0    0  0.91155915805E+02 -0.10488854232E+03 -0.54131138900E+03  0.56494271606E+03  0.82651347687E+02 0.  0.
         25    2    1    2    0    0 -0.97819625305E+02  0.10141633191E+03  0.66967254082E+02  0.19996495773E+03  0.12508964676E+03 0.  0.
        -24    2    1    2    0    0  0.66637094998E+01  0.34722104059E+01  0.11155312193E+03  0.13622192970E+03  0.77819366800E+02 0.  0.
        -11    1    3    3    0    0  0.97694194098E+02 -0.11413290833E+03 -0.50875651048E+03  0.53047494124E+03  0.00000000000E+00 0.  1.
         12    1    3    3    0    0 -0.65382782925E+01  0.92443660108E+01 -0.32554878517E+02  0.34467774823E+02  0.00000000000E+00 0. -1.
         11    1    5    5    0    0  0.27364774664E+02  0.21760120647E+02  0.19327301746E+02  0.39948445974E+02  0.00000000000E+00 0. -1.
        -12    1    5    5    0    0 -0.20701065164E+02 -0.18287910241E+02  0.92225820182E+02  0.96273483723E+02  0.00000000000E+00 0.  1.
          5    1    4    4  501    0  0.42489138512E+01  0.79922195010E+02  0.92377999578E+01  0.80674778414E+02  0.41800000000E+01 0. -1.
         -5    1    4    4    0  501 -0.10206853916E+03  0.21494136901E+02  0.57729454124E+02  0.11929017931E+03  0.41800000000E+01 0. -1.
</event>
<event>
11    1  0.8479398E-009  0.3032191E+03  0.7561462E-02  0.9988380E-01
         22   -1    0    0    0    0  0.00000000000E+00  0.00000000000E+00  0.20472536278E+04  0.20472536278E+04  0.00000000000E+00 0. -1.
         22   -1    0    0    0    0 -0.00000000000E+00 -0.00000000000E+00 -0.30099211530E+03  0.30099211530E+03  0.00000000000E+00 0. -1.
         24    2    1    2    0    0 -0.22082395105E+03  0.16782419008E+03 -0.18272898365E+03  0.34287137206E+03  0.85104172519E+02 0.  0.
         25    2    1    2    0    0  0.25595823980E+03 -0.10283548219E+03  0.60233484789E+03  0.67419930798E+03  0.12509069102E+03 0.  0.
        -24    2    1    2    0    0 -0.35134288741E+02 -0.64988707892E+02  0.13266556483E+04  0.13311750631E+04  0.80956093179E+02 0.  0.
        -11    1    3    3    0    0 -0.35363378863E+02  0.71590712434E+02 -0.65593788670E+02  0.10333607203E+03  0.00000000000E+00 0.  1.
         12    1    3    3    0    0 -0.18546057219E+03  0.96233477648E+02 -0.11713519498E+03  0.23953530003E+03  0.00000000000E+00 0. -1.
         13    1    5    5    0    0 -0.44908607200E+02 -0.70855952698E+02  0.12914056799E+04  0.12941274973E+04  0.00000000000E+00 0. -1.
        -14    1    5    5    0    0  0.97743184589E+01  0.58672448064E+01  0.35249968354E+02  0.37047565802E+02  0.00000000000E+00 0.  1.
          5    1    4    4  501    0  0.10991900980E+03 -0.16263108523E+02  0.37045717977E+03  0.38678504606E+03  0.41800000000E+01 0.  1.
         -5    1    4    4    0  501  0.14603923000E+03 -0.86572373668E+02  0.23187766812E+03  0.28741426192E+03  0.41800000000E+01 0.  1.
</event>
<event>
11    1  0.8479398E-009  0.1529289E+03  0.7561462E-02  0.1093923E+00
         22   -1    0    0    0    0  0.00000000000E+00  0.00000000000E+00  0.11370417627E+03  0.11370417627E+03  0.00000000000E+00 0.  1.
         22   -1    0    0    0    0 -0.00000000000E+00 -0.00000000000E+00 -0.10927149509E+04  0.10927149509E+04  0.00000000000E+00 0.  1.
         24    2    1    2    0    0  0.59163930909E+01 -0.85794706638E+00 -0.79422918164E+03  0.79824865473E+03  0.79782090912E+02 0.  0.
         25    2    1    2    0    0 -0.56664793230E+02  0.72043030207E+02 -0.23386959981E+03  0.28061424493E+03  0.12509303637E+03 0.  0.
        -24    2    1    2    0    0  0.50748400139E+02 -0.71185083141E+02  0.49088006853E+02  0.12755622748E+03  0.78855834115E+02 0.  0.
        -11    1    3    3    0    0 -0.15368717273E+01 -0.38516545225E+02 -0.50736294064E+03  0.50882515638E+03  0.00000000000E+00 0.  1.
         12    1    3    3    0    0  0.74532648182E+01  0.37658598159E+02 -0.28686624100E+03  0.28942349835E+03  0.00000000000E+00 0. -1.
         13    1    5    5    0    0  0.30698451611E+02  0.16374876959E+01 -0.92660750719E+01  0.32108199023E+02  0.00000000000E+00 0. -1.
        -14    1    5    5    0    0  0.20049948528E+02 -0.72822570837E+02  0.58354081925E+02  0.95448028458E+02  0.00000000000E+00 0.  1.
          5    1    4    4  501    0 -0.20038409009E+02 -0.27060917299E+02 -0.14125709015E+02  0.36753763560E+02  0.41800000000E+01 0. -1.
         -5    1    4    4    0  501 -0.36626384220E+02  0.99103947506E+02 -0.21974389080E+03  0.24386048137E+03  0.41800000000E+01 0. -1.
</event>
<event>
11    1  0.8479398E-009  0.1548725E+03  0.7561462E-02  0.1092002E+00
         22   -1    0    0    0    0  0.00000000000E+00  0.00000000000E+00  0.44502403273E+03  0.44502403273E+03  0.00000000000E+00 0. -1.
         22   -1    0    0    0    0 -0.00000000000E+00 -0.00000000000E+00 -0.37319060087E+03  0.37319060087E+03  0.00000000000E+00 0. -1.
         24    2    1    2    0    0  0.91139819534E+02  0.75958399714E+01 -0.29575708769E+03  0.31998356069E+03  0.80950977137E+02 0.  0.
         25    2    1    2    0    0 -0.79629351580E+02 -0.88441468806E+02  0.83683068368E+02  0.19186884845E+03  0.12509225410E+03 0.  0.
        -24    2    1    2    0    0 -0.11510467954E+02  0.80845628834E+02  0.28390745118E+03  0.30636222446E+03  0.81153343520E+02 0.  0.
        -11    1    3    3    0    0 -0.14751461655E+02  0.30987840274E+00 -0.23268287047E+02  0.27552038540E+02  0.00000000000E+00 0.  1.
         12    1    3    3    0    0  0.10589128119E+03  0.72859615687E+01 -0.27248880065E+03  0.29243152215E+03  0.00000000000E+00 0. -1.
         13    1    5    5    0    0 -0.13603387477E+02  0.89140895669E+02  0.17268145399E+03  0.19480768975E+03  0.00000000000E+00 0. -1.
        -14    1    5    5    0    0  0.20929195232E+01 -0.82952668349E+01  0.11122599719E+03  0.11155453471E+03  0.00000000000E+00 0.  1.
          5    1    4    4  501    0 -0.10470498519E+03 -0.42249752724E+02  0.30610753822E+02  0.11705838791E+03  0.41800000000E+01 0.  1.
         -5    1    4    4    0  501  0.25075633612E+02 -0.46191716082E+02  0.53072314545E+02  0.74810460544E+02  0.41800000000E+01 0.  1.
</event>
<event>
11    1  0.8479398E-009  0.1837127E+03  0.7561462E-02  0.1066679E+00
         22   -1    0    0    0    0  0.00000000000E+00  0.00000000000E+00  0.24793190937E+03  0.24793190937E+03  0.00000000000E+00 0. -1.
         22   -1    0    0    0    0 -0.00000000000E+00 -0.00000000000E+00 -0.29801082924E+04  0.29801082924E+04  0.00000000000E+00 0.  1.
         24    2    1    2    0    0 -0.13614338854E+03  0.39619280935E+02 -0.27374588052E+04  0.27422771755E+04  0.79364269410E+02 0.  0.
         25    2    1    2    0    0  0.55429312627E+02 -0.43962043377E+02 -0.20286088638E+03  0.24860691660E+03  0.12509112598E+03 0.  0.
        -24    2    1    2    0    0  0.80714075915E+02  0.43427624419E+01  0.20814330855E+03  0.23715610971E+03  0.79910961958E+02 0.  0.
        -11    1    3    3    0    0 -0.13980806859E+03  0.52236417328E+02 -0.24876080417E+04  0.24920812002E+04  0.00000000000E+00 0.  1.
         12    1    3    3    0    0  0.36646800529E+01 -0.12617136393E+02 -0.24985076353E+03  0.25019597528E+03  0.00000000000E+00 0. -1.
         13    1    5    5    0    0  0.78860698775E+02 -0.25930258867E+02  0.16004592264E+03  0.18029444110E+03  0.00000000000E+00 0. -1.
        -14    1    5    5    0    0  0.18533771403E+01  0.30273021309E+02  0.48097385909E+02  0.56861668612E+02  0.00000000000E+00 0.  1.
          5    1    4    4  501    0  0.75210316393E+02 -0.71312509703E+02 -0.11758501219E+03  0.15679851155E+03  0.41800000000E+01 0.  1.
         -5    1    4    4    0  501 -0.19781003767E+02  0.27350466326E+02 -0.85275874192E+02  0.91808405048E+02  0.41800000000E+01 0.  1.
</event>
<event>
11    1  0.8479398E-009  0.1474463E+03  0.7561462E-02  0.1099517E+00
         22   -1    0    0    0    0  0.00000000000E+00  0.00000000000E+00  0.68917926358E+03  0.68917926358E+03  0.00000000000E+00 0.  1.
         22   -1    0    0    0    0 -0.00000000000E+00 -0.00000000000E+00 -0.31348329782E+03  0.31348329782E+03  0.00000000000E+00 0. -1.
        -24    2    1    2    0    0 -0.55444870587E+02 -0.20027359628E+02 -0.26314837418E+03  0.28116256288E+03  0.79561869793E+02 0.  0.
         25    2    1    2    0    0  0.73144611150E+02 -0.56562036117E+02  0.13661791281E+03  0.20703254420E+03  0.12509445307E+03 0.  0.
         24    2    1    2    0    0 -0.17699740563E+02  0.76589395745E+02  0.50222642714E+03  0.51446745432E+03  0.79159087144E+02 0.  0.
        -11    1    5    5    0    0 -0.41138082036E+02  0.14801217341E+02  0.15704098525E+03  0.16301315553E+03  0.00000000000E+00 0.  1.
         12    1    5    5    0    0  0.23438341473E+02  0.61788178404E+02  0.34518544189E+03  0.35145429879E+03  0.00000000000E+00 0. -1.
         11    1    3    3    0    0  0.51101040737E+00 -0.39626543296E+02 -0.99198134575E+02  0.10682131795E+03  0.00000000000E+00 0. -1.
        -12    1    3    3    0    0 -0.55955880994E+02  0.19599183668E+02 -0.16395023961E+03  0.17434124494E+03  0.00000000000E+00 0.  1.
          5    1    4    4  501    0 -0.33407712674E+02 -0.53354623914E+01  0.49558757812E+02  0.60150522033E+02  0.41800000000E+01 0.  1.
         -5    1    4    4    0  501  0.10655232382E+03 -0.51226573725E+02  0.87059154994E+02  0.14688202217E+03  0.41800000000E+01 0.  1.
</event>
<event>
11    1  0.8479398E-009  0.1925644E+03  0.7561462E-02  0.1059910E+00
         22   -1    0    0    0    0  0.00000000000E+00  0.00000000000E+00  0.27625025019E+04  0.27625025019E+04  0.00000000000E+00 0. -1.
         22   -1    0    0    0    0 -0.00000000000E+00 -0.00000000000E+00 -0.74267711930E+02  0.74267711930E+02  0.00000000000E+00 0.  1.
        -24    2    1    2    0    0 -0.44915959265E+02 -0.12260867359E+03  0.48152817645E+02  0.16079464083E+03  0.80535038573E+02 0.  0.
         25    2    1    2    0    0 -0.10951543878E+03  0.11879440419E+03  0.73127327845E+03  0.75928478841E+03  0.12508813025E+03 0.  0.
         24    2    1    2    0    0  0.15443139805E+03  0.38142693957E+01  0.19088086939E+04  0.19166907846E+04  0.79305287150E+02 0.  0.
        -11    1    5    5    0    0  0.98691781721E+02  0.30871555666E+02  0.88742220962E+03  0.89342671712E+03  0.00000000000E+00 0.  1.
         12    1    5    5    0    0  0.55739616324E+02 -0.27057286270E+02  0.10213864842E+04  0.10232640675E+04  0.00000000000E+00 0. -1.
         13    1    3    3    0    0 -0.33177369508E+02 -0.10532695115E+03  0.69857042632E+02  0.13066947192E+03  0.00000000000E+00 0. -1.
        -14    1    3    3    0    0 -0.11738589756E+02 -0.17281722437E+02 -0.21704224987E+02  0.30125168915E+02  0.00000000000E+00 0.  1.
          5    1    4    4  501    0 -0.39049368809E+02  0.38072530156E+02  0.51489873788E+03  0.51779586077E+03  0.41800000000E+01 0.  1.
         -5    1    4    4    0  501 -0.70466069972E+02  0.80721874036E+02  0.21637454057E+03  0.24148892764E+03  0.41800000000E+01 0.  1.
</event>
<event>
11    1  0.8479398E-009  0.1441147E+03  0.7561462E-02  0.1103049E+00
         22   -1    0    0    0    0  0.00000000000E+00  0.00000000000E+00  0.38202952887E+03  0.38202952887E+03  0.00000000000E+00 0.  1.
         22   -1    0    0    0    0 -0.00000000000E+00 -0.00000000000E+00 -0.12498065934E+04  0.12498065934E+04  0.00000000000E+00 0.  1.
        -24    2    1    2    0    0  0.52348266446E+02 -0.47994971749E+02 -0.11485911256E+04  0.11544716799E+04  0.92192340203E+02 0.  0.
         25    2    1    2    0    0 -0.64605056931E+02  0.52053861722E+02 -0.32563558478E+02  0.15359397583E+03  0.12508919286E+03 0.  0.
         24    2    1    2    0    0  0.12256790485E+02 -0.40588899736E+01  0.31337761957E+03  0.32377046650E+03  0.80343506472E+02 0.  0.
        -11    1    5    5    0    0  0.81077403410E+01 -0.13146729594E+02  0.31339988599E+03  0.31378027422E+03  0.00000000000E+00 0.  1.
         12    1    5    5    0    0  0.41490501439E+01  0.90878396200E+01 -0.22266419182E-01  0.99901922829E+01  0.00000000000E+00 0. -1.
         13    1    3    3    0    0  0.25215223960E+02 -0.23134491861E+02 -0.10935396218E+03  0.11458316315E+03  0.00000000000E+00 0. -1.
        -14    1    3    3    0    0  0.27133042486E+02 -0.24860479888E+02 -0.10392371634E+04  0.10398885167E+04  0.00000000000E+00 0.  1.
          5    1    4    4  501    0  0.12040407855E+02 -0.32484027689E+02 -0.15330203436E+02  0.38113921519E+02  0.41800000000E+01 0. -1.
         -5    1    4    4    0  501 -0.76645464786E+02  0.84537889411E+02 -0.17233355042E+02  0.11548005431E+03  0.41800000000E+01 0. -1.
</event>
<event>
11    1  0.8479398E-009  0.1345669E+03  0.7561462E-02  0.1113782E+00
         22   -1    0    0    0    0  0.00000000000E+00  0.00000000000E+00  0.36979887348E+03  0.36979887348E+03  0.00000000000E+00 0.  1.
         22   -1    0    0    0    0 -0.00000000000E+00 -0.00000000000E+00 -0.35181911127E+03  0.35181911127E+03  0.00000000000E+00 0. -1.
        -24    2    1    2    0    0  0.52160005177E+02  0.12595635710E+02 -0.26592102451E+03  0.28508483895E+03  0.87635939782E+02 0.  0.
         25    2    1    2    0    0 -0.23807103073E+02 -0.83953801517E+01 -0.12462300985E+02  0.12821883962E+03  0.12508997291E+03 0.  0.
         24    2    1    2    0    0 -0.28352902104E+02 -0.42002555587E+01  0.29636308771E+03  0.30831430618E+03  0.80031883883E+02 0.  0.
        -11    1    5    5    0    0 -0.49056761979E+02 -0.56214650149E+01  0.27138307453E+03  0.27583861207E+03  0.00000000000E+00 0.  1.
         12    1    5    5    0    0  0.20703859876E+02  0.14212094562E+01  0.24980013171E+02  0.32475694113E+02  0.00000000000E+00 0. -1.
         11    1    3    3    0    0  0.70787057627E+02  0.29748684776E+02 -0.18523833125E+03  0.20052189690E+03  0.00000000000E+00 0. -1.
        -12    1    3    3    0    0 -0.18627052450E+02 -0.17153049066E+02 -0.80682693258E+02  0.84562942041E+02  0.00000000000E+00 0.  1.
          5    1    4    4  501    0  0.24750740270E+01 -0.26523178846E+02  0.50642408906E+02  0.57373608805E+02  0.41800000000E+01 0.  1.
         -5    1    4    4    0  501 -0.26282177100E+02  0.18127798694E+02 -0.63104709890E+02  0.70845230813E+02  0.41800000000E+01 0.  1.
</event>
<event>
11    1  0.8479398E-009  0.1463815E+03  0.7561462E-02  0.1100635E+00
         22   -1    0    0    0    0  0.00000000000E+00  0.00000000000E+00  0.23294355964E+03  0.23294355964E+03  0.00000000000E+00 0. -1.
         22   -1    0    0    0    0 -0.00000000000E+00 -0.00000000000E+00 -0.18993546736E+04  0.18993546736E+04  0.00000000000E+00 0.  1.
        -24    2    1    2    0    0  0.37725592637E+02 -0.77045409053E+01 -0.17543781880E+04  0.17565970797E+04  0.79422249051E+02 0.  0.
         25    2    1    2    0    0  0.40076247189E+02  0.25556497385E+02 -0.93264848042E+02  0.16311180191E+03  0.12509151807E+03 0.  0.
         24    2    1    2    0    0 -0.77801839826E+02 -0.17851956480E+02  0.18123192199E+03  0.21258935172E+03  0.77313674637E+02 0.  0.
        -13    1    5    5    0    0 -0.73308097570E+01  0.12926052887E+02 -0.90151187655E+00  0.14887455746E+02  0.00000000000E+00 0.  1.
         14    1    5    5    0    0 -0.70471030069E+02 -0.30778009367E+02  0.18213343387E+03  0.19770189597E+03  0.00000000000E+00 0. -1.
         11    1    3    3    0    0  0.18346654836E+02 -0.24478480804E+02 -0.23258850640E+03  0.23459157930E+03  0.00000000000E+00 0. -1.
        -12    1    3    3    0    0  0.19378937802E+02  0.16773939899E+02 -0.15217896815E+04  0.15220055004E+04  0.00000000000E+00 0.  1.
          5    1    4    4  501    0  0.65330543862E+02 -0.23644738400E+02 -0.80086237381E+02  0.10610575589E+03  0.41800000000E+01 0. -1.
         -5    1    4    4    0  501 -0.25254296673E+02  0.49201235785E+02 -0.13178610661E+02  0.57006046014E+02  0.41800000000E+01 0. -1.
</event>
<event>
11    1  0.8479398E-009  0.1656867E+03  0.7561462E-02  0.1081847E+00
         22   -1    0    0    0    0  0.00000000000E+00  0.00000000000E+00  0.45492389050E+03  0.45492389050E+03  0.00000000000E+00 0.  1.
         22   -1    0    0    0    0 -0.00000000000E+00 -0.00000000000E+00 -0.27197421120E+04  0.27197421120E+04  0.00000000000E+00 0. -1.
         24    2    1    2    0    0  0.53368920247E+01  0.93973400072E+01 -0.26346170440E+04  0.26358550559E+04  0.80050700381E+02 0.  0.
         25    2    1    2    0    0  0.15362813999E+02  0.99037266922E+02  0.21586844440E+02  0.16173526670E+03  0.12509159984E+03 0.  0.
        -24    2    1    2    0    0 -0.20699706024E+02 -0.10843460693E+03  0.34821197809E+03  0.37707567989E+03  0.93530448898E+02 0.  0.
        -11    1    3    3    0    0 -0.10446762807E+02 -0.33483480501E+02 -0.11627298501E+04  0.11632587772E+04  0.00000000000E+00 0.  1.
         12    1    3    3    0    0  0.15783654831E+02  0.42880820508E+02 -0.14718871939E+04  0.14725962787E+04  0.00000000000E+00 0. -1.
         11    1    5    5    0    0 -0.61971444938E+01 -0.68156711789E+00 -0.46921613440E+01  0.78029168707E+01  0.00000000000E+00 0. -1.
        -12    1    5    5    0    0 -0.14502561530E+02 -0.10775303981E+03  0.35290413944E+03  0.36927276302E+03  0.00000000000E+00 0.  1.
          5    1    4    4  501    0 -0.23814197915E+02  0.10589704145E+03 -0.12300737263E+02  0.10931642121E+03  0.41800000000E+01 0.  1.
         -5    1    4    4    0  501  0.39177011914E+02 -0.68597745256E+01  0.33887581702E+02  0.52418845492E+02  0.41800000000E+01 0.  1.
</event>
<event>
11    1  0.8479398E-009  0.1385445E+03  0.7561462E-02  0.1109195E+00
         22   -1    0    0    0    0  0.00000000000E+00  0.00000000000E+00  0.10548673066E+04  0.10548673066E+04  0.00000000000E+00 0. -1.
         22   -1    0    0    0    0 -0.00000000000E+00 -0.00000000000E+00 -0.21245442188E+04  0.21245442188E+04  0.00000000000E+00 0. -1.
        -24    2    1    2    0    0  0.56251525506E+02 -0.20102317095E+02 -0.20844090749E+04  0.20868129447E+04  0.80366270968E+02 0.  0.
         25    2    1    2    0    0 -0.30759045147E+02  0.34963882510E+02  0.83832616269E+02  0.15762308159E+03  0.12509411002E+03 0.  0.
         24    2    1    2    0    0 -0.25492480360E+02 -0.14861565415E+02  0.93089954647E+03  0.93497549908E+03  0.82063911576E+02 0.  0.
        -11    1    5    5    0    0 -0.22760637289E+02 -0.24994885852E+02  0.14062228301E+03  0.14462854976E+03  0.00000000000E+00 0.  1.
         12    1    5    5    0    0 -0.27318430702E+01  0.10133320437E+02  0.79027726346E+03  0.79034694932E+03  0.00000000000E+00 0. -1.
         13    1    3    3    0    0  0.42207816581E+02  0.17847611377E+02 -0.16188896725E+04  0.16195381467E+04  0.00000000000E+00 0. -1.
        -14    1    3    3    0    0  0.14043708926E+02 -0.37949928472E+02 -0.46551940243E+03  0.46727479802E+03  0.00000000000E+00 0.  1.
          5    1    4    4  501    0 -0.40195189532E+02 -0.40002062054E+02  0.26779326420E+02  0.62852390198E+02  0.41800000000E+01 0.  1.
         -5    1    4    4    0  501  0.94361443848E+01  0.74965944564E+02  0.57053289849E+02  0.94770691397E+02  0.41800000000E+01 0.  1.
</event>
<event>
11    1  0.8479398E-009  0.1981523E+03  0.7561462E-02  0.1055838E+00
         22   -1    0    0    0    0  0.00000000000E+00  0.00000000000E+00  0.17991073789E+04  0.17991073789E+04  0.00000000000E+00 0.  1.
         22   -1    0    0    0    0 -0.00000000000E+00 -0.00000000000E+00 -0.27010890601E+03  0.27010890601E+03  0.00000000000E+00 0.  1.
        -24    2    1    2    0    0  0.12139194297E+03  0.73273537842E+02 -0.11148489952E+03  0.19706440681E+03  0.79375578388E+02 0.  0.
         25    2    1    2    0    0 -0.11468276696E+03 -0.16205061583E+03  0.74835013002E+01  0.23476947649E+03  0.12509262636E+03 0.  0.
         24    2    1    2    0    0 -0.67091760080E+01  0.88777077991E+02  0.16329998711E+04  0.16373824016E+04  0.80038537278E+02 0.  0.
        -11    1    5    5    0    0 -0.53314428323E+01  0.10016554730E+03  0.11856563252E+04  0.11898917945E+04  0.00000000000E+00 0.  1.
         12    1    5    5    0    0 -0.13777331757E+01 -0.11388469304E+02  0.44734354584E+03  0.44749060704E+03  0.00000000000E+00 0. -1.
         13    1    3    3    0    0  0.95887319464E+01  0.30477472855E+02  0.21278114366E+01  0.32021051099E+02  0.00000000000E+00 0. -1.
        -14    1    3    3    0    0  0.11180321102E+03  0.42796064987E+02 -0.11361271095E+03  0.16504335571E+03  0.00000000000E+00 0.  1.
          5    1    4    4  501    0 -0.91172450148E+01 -0.11475750691E+03 -0.17043240186E+02  0.11644893295E+03  0.41800000000E+01 0.  1.
         -5    1    4    4    0  501 -0.10556552195E+03 -0.47293108919E+02  0.24526741486E+02  0.11832054354E+03  0.41800000000E+01 0.  1.
</event>
<event>
11    1  0.8479398E-009  0.1287231E+03  0.7561462E-02  0.1120848E+00
         22   -1    0    0    0    0  0.00000000000E+00  0.00000000000E+00  0.96489909118E+02  0.96489909118E+02  0.00000000000E+00 0. -1.
         22   -1    0    0    0    0 -0.00000000000E+00 -0.00000000000E+00 -0.19188706282E+04  0.19188706282E+04  0.00000000000E+00 0. -1.
         24    2    1    2    0    0  0.74989612676E+01  0.31047186819E+02 -0.15020214524E+04  0.15044252417E+04  0.78782626365E+02 0.  0.
         25    2    1    2    0    0 -0.25642862364E+02 -0.10149706145E+02 -0.38577738173E+03  0.40648811927E+03  0.12509128637E+03 0.  0.
        -24    2    1    2    0    0  0.18143901096E+02 -0.20897480674E+02  0.65418114957E+02  0.10444717642E+03  0.76575303149E+02 0.  0.
        -11    1    3    3    0    0  0.25104634085E+02  0.51583039525E+02 -0.10998856645E+04  0.11013807369E+04  0.00000000000E+00 0.  1.
         12    1    3    3    0    0 -0.17605672817E+02 -0.20535852706E+02 -0.40213578784E+03  0.40304450477E+03  0.00000000000E+00 0. -1.
         11    1    5    5    0    0 -0.17099819796E+02 -0.23404293767E+02  0.62620824313E+02  0.69003858164E+02  0.00000000000E+00 0. -1.
        -12    1    5    5    0    0  0.35243720892E+02  0.25068130925E+01  0.27972906442E+01  0.35443318258E+02  0.00000000000E+00 0.  1.
          5    1    4    4  501    0  0.17412123680E+02  0.44677020306E+02 -0.24084617151E+03  0.24560856851E+03  0.41800000000E+01 0.  1.
         -5    1    4    4    0  501 -0.43054986044E+02 -0.54826726450E+02 -0.14493121022E+03  0.16087955076E+03  0.41800000000E+01 0.  1.
</event>
<event>
11    1  0.8479398E-009  0.1324057E+03  0.7561462E-02  0.1116348E+00
         22   -1    0    0    0    0  0.00000000000E+00  0.00000000000E+00  0.60184142656E+03  0.60184142656E+03  0.00000000000E+00 0.  1.
         22   -1    0    0    0    0 -0.00000000000E+00 -0.00000000000E+00 -0.68033151687E+03  0.68033151687E+03  0.00000000000E+00 0.  1.
        -24    2    1    2    0    0  0.31836698131E+01 -0.43059450974E+02 -0.63329076745E+03  0.63978608897E+03  0.80029940819E+02 0.  0.
         25    2    1    2    0    0  0.89673457516E+01  0.53247925457E+02  0.74019265376E+02  0.15504633263E+03  0.12507901007E+03 0.  0.
         24    2    1    2    0    0 -0.12151015565E+02 -0.10188474483E+02  0.48078141177E+03  0.48734052182E+03  0.78093316745E+02 0.  0.
        -11    1    5    5    0    0  0.75934427550E+01  0.10299301917E+02  0.42036037960E+03  0.42055509120E+03  0.00000000000E+00 0.  1.
         12    1    5    5    0    0 -0.19744458320E+02 -0.20487776400E+02  0.60421032161E+02  0.66785430624E+02  0.00000000000E+00 0. -1.
         11    1    3    3    0    0  0.14679358878E+02  0.57037853925E+01 -0.43429800283E+03  0.43458344654E+03  0.00000000000E+00 0. -1.
        -12    1    3    3    0    0 -0.11495689065E+02 -0.48763236367E+02 -0.19899276462E+03  0.20520264243E+03  0.00000000000E+00 0.  1.
          5    1    4    4  501    0 -0.34874085627E+01  0.25001870777E+02 -0.34041009959E+02  0.42585423795E+02  0.41800000000E+01 0. -1.
         -5    1    4    4    0  501  0.12454754314E+02  0.28246054680E+02  0.10806027533E+03  0.11246090883E+03  0.41800000000E+01 0. -1.
</event>
<event>
11    1  0.8479398E-009  0.1482719E+03  0.7561462E-02  0.1098658E+00
         22   -1    0    0    0    0  0.00000000000E+00  0.00000000000E+00  0.74071250129E+03  0.74071250129E+03  0.00000000000E+00 0. -1.
         22   -1    0    0    0    0 -0.00000000000E+00 -0.00000000000E+00 -0.12514445728E+04  0.12514445728E+04  0.00000000000E+00 0.  1.
        -24    2    1    2    0    0 -0.52518730169E+02  0.34512037186E+02 -0.11978091597E+04  0.12020587413E+04  0.79051481928E+02 0.  0.
         25    2    1    2    0    0  0.81628439753E+02  0.40764361678E+02  0.83306551156E+02  0.17581970558E+03  0.12509057537E+03 0.  0.
         24    2    1    2    0    0 -0.29109709584E+02 -0.75276398864E+02  0.60377053701E+03  0.61427862720E+03  0.79280887099E+02 0.  0.
        -11    1    5    5    0    0 -0.10191884929E+01 -0.19343503810E+02  0.22676137975E+02  0.29823097061E+02  0.00000000000E+00 0.  1.
         12    1    5    5    0    0 -0.28090521091E+02 -0.55932895054E+02  0.58109439904E+03  0.58445553014E+03  0.00000000000E+00 0. -1.
         11    1    3    3    0    0  0.20520720213E+02  0.26050633022E+01 -0.19799547078E+03  0.19907308397E+03  0.00000000000E+00 0. -1.
        -12    1    3    3    0    0 -0.73039450383E+02  0.31906973884E+02 -0.99981368887E+03  0.10029856573E+04  0.00000000000E+00 0.  1.
          5    1    4    4  501    0  0.37578724511E+02 -0.32605976449E+02  0.74507393789E+02  0.89689098364E+02  0.41800000000E+01 0. -1.
         -5    1    4    4    0  501  0.44049715242E+02  0.73370338127E+02  0.87991573665E+01  0.86130607220E+02  0.41800000000E+01 0. -1.
</event>
<event>
11    1  0.8479398E-009  0.1746726E+03  0.7561462E-02  0.1074035E+00
         22   -1    0    0    0    0  0.00000000000E+00  0.00000000000E+00  0.12674946062E+04  0.12674946062E+04  0.00000000000E+00 0. -1.
         22   -1    0    0    0    0 -0.00000000000E+00 -0.00000000000E+00 -0.10441643166E+04  0.10441643166E+04  0.00000000000E+00 0. -1.
         24    2    1    2    0    0  0.57541452091E+02 -0.17670446534E+02 -0.98775040012E+03  0.99278251901E+03  0.79643039435E+02 0.  0.
         25    2    1    2    0    0 -0.12552291170E+03  0.11347174967E+03  0.17730873463E+03  0.27516783559E+03  0.12508841286E+03 0.  0.
        -24    2    1    2    0    0  0.67981459605E+02 -0.95801303133E+02  0.10337719550E+04  0.10437085682E+04  0.82726971418E+02 0.  0.
        -11    1    3    3    0    0  0.11428538234E+02  0.30691075518E+02 -0.35933616451E+03  0.36082548792E+03  0.00000000000E+00 0.  1.
         12    1    3    3    0    0  0.46112913856E+02 -0.48361522051E+02 -0.62841423561E+03  0.63195703110E+03  0.00000000000E+00 0. -1.
         11    1    5    5    0    0  0.52625871294E+02 -0.75854276696E+02  0.97996619897E+03  0.98430539202E+03  0.00000000000E+00 0. -1.
        -12    1    5    5    0    0  0.15355588312E+02 -0.19947026437E+02  0.53805756052E+02  0.59403176182E+02  0.00000000000E+00 0.  1.
          5    1    4    4  501    0 -0.10321988668E+03  0.13028492587E+03  0.10279305071E+03  0.19547989817E+03  0.41800000000E+01 0.  1.
         -5    1    4    4    0  501 -0.22303025017E+02 -0.16813176205E+02  0.74515683925E+02  0.79687937417E+02  0.41800000000E+01 0.  1.
</event>
<event>
11    1  0.8479398E-009  0.1758292E+03  0.7561462E-02  0.1073067E+00
         22   -1    0    0    0    0  0.00000000000E+00  0.00000000000E+00  0.15839863935E+04  0.15839863935E+04  0.00000000000E+00 0. -1.
         22   -1    0    0    0    0 -0.00000000000E+00 -0.00000000000E+00 -0.10422937849E+04  0.10422937849E+04  0.00000000000E+00 0.  1.
        -24    2    1    2    0    0 -0.23772325663E+02  0.15722598531E+02 -0.87613618067E+03  0.88010851063E+03  0.78511526806E+02 0.  0.
         25    2    1    2    0    0  0.13290621150E+03 -0.72247402067E+02 -0.10066005464E+03  0.22062816938E+03  0.12514229646E+03 0.  0.
         24    2    1    2    0    0 -0.10913388584E+03  0.56524803535E+02  0.15184888439E+04  0.15255434983E+04  0.79808130743E+02 0.  0.
        -11    1    5    5    0    0 -0.64380683972E+02  0.57089576066E+02  0.62023762673E+03  0.62617793460E+03  0.00000000000E+00 0.  1.
         12    1    5    5    0    0 -0.44753201869E+02 -0.56477253031E+00  0.89825121716E+03  0.89936556370E+03  0.00000000000E+00 0. -1.
         11    1    3    3    0    0 -0.41292767899E+02 -0.13566916111E+02 -0.32171074597E+03  0.32463357492E+03  0.00000000000E+00 0. -1.
        -12    1    3    3    0    0  0.17520442236E+02  0.29289514642E+02 -0.55442543469E+03  0.55547493571E+03  0.00000000000E+00 0.  1.
          5    1    4    4  501    0  0.41048551401E+02  0.35210184939E+02 -0.36120282636E+02  0.65168151065E+02  0.41800000000E+01 0. -1.
         -5    1    4    4    0  501  0.91857660103E+02 -0.10745758701E+03 -0.64539772005E+02  0.15546001832E+03  0.41800000000E+01 0. -1.
</event>
<event>
11    1  0.8479398E-009  0.2682024E+03  0.7561462E-02  0.1014626E+00
         22   -1    0    0    0    0  0.00000000000E+00  0.00000000000E+00  0.10829342879E+04  0.10829342879E+04  0.00000000000E+00 0. -1.
         22   -1    0    0    0    0 -0.00000000000E+00 -0.00000000000E+00 -0.64178803981E+03  0.64178803981E+03  0.00000000000E+00 0. -1.
         24    2    1    2    0    0  0.21443843393E+03  0.86412466667E+02 -0.48554313542E+03  0.54784509984E+03  0.10455219139E+03 0.  0.
         25    2    1    2    0    0 -0.24502098040E+03 -0.12201439106E+03  0.62153471106E+02  0.30731276275E+03  0.12512109221E+03 0.  0.
        -24    2    1    2    0    0  0.30582546468E+02  0.35601924395E+02  0.86453591239E+03  0.86956446510E+03  0.80729337806E+02 0.  0.
        -11    1    3    3    0    0  0.17125717372E+02 -0.15156664920E+01 -0.87332427454E+00  0.17214823139E+02  0.00000000000E+00 0.  1.
         12    1    3    3    0    0  0.19731271656E+03  0.87928133159E+02 -0.48466981114E+03  0.53063027670E+03  0.00000000000E+00 0. -1.
         13    1    5    5    0    0  0.34133258660E+02  0.23527466812E+02  0.84681414290E+03  0.84782829256E+03  0.00000000000E+00 0. -1.
        -14    1    5    5    0    0 -0.35507121922E+01  0.12074457584E+02  0.17721769488E+02  0.21736172543E+02  0.00000000000E+00 0.  1.
          5    1    4    4  501    0 -0.18390487606E+00 -0.25397640955E+02 -0.18831388915E+02  0.31893065007E+02  0.41800000000E+01 0. -1.
         -5    1    4    4    0  501 -0.24483707553E+03 -0.96616750107E+02  0.80984860021E+02  0.27541969775E+03  0.41800000000E+01 0. -1.
</event>
<event>
11    1  0.8479398E-009  0.1388350E+03  0.7561462E-02  0.1108866E+00
         22   -1    0    0    0    0  0.00000000000E+00  0.00000000000E+00  0.49263933578E+03  0.49263933578E+03  0.00000000000E+00 0.  1.
         22   -1    0    0    0    0 -0.00000000000E+00 -0.00000000000E+00 -0.19053605976E+04  0.19053605976E+04  0.00000000000E+00 0. -1.
         24    2    1    2    0    0  0.15762923460E+02 -0.58115842911E+02 -0.18743964389E+04  0.18770061515E+04  0.78512174404E+02 0.  0.
         25    2    1    2    0    0 -0.59292464948E+02  0.49159092888E+02  0.25241033902E+03  0.29204591135E+03  0.12509045639E+03 0.  0.
        -24    2    1    2    0    0  0.43529541488E+02  0.89567500232E+01  0.20926483807E+03  0.22894787056E+03  0.81549436702E+02 0.  0.
        -13    1    3    3    0    0  0.14483912142E+02  0.10335651472E+02 -0.12387537996E+03  0.12514679046E+03  0.00000000000E+00 0.  1.
         14    1    3    3    0    0  0.12790113174E+01 -0.68451494383E+02 -0.17505210590E+04  0.17518593610E+04  0.00000000000E+00 0. -1.
         13    1    5    5    0    0  0.19313331343E+01  0.30861907334E+02  0.28101441125E+02  0.41783709329E+02  0.00000000000E+00 0. -1.
        -14    1    5    5    0    0  0.41598208354E+02 -0.21905157311E+02  0.18116339695E+03  0.18716416123E+03  0.00000000000E+00 0.  1.
          5    1    4    4  501    0  0.36271568124E+02 -0.48747773957E-01  0.41412556146E+02  0.55209611818E+02  0.41800000000E+01 0.  1.
         -5    1    4    4    0  501 -0.95564033072E+02  0.49207840662E+02  0.21099778287E+03  0.23683629953E+03  0.41800000000E+01 0.  1.
</event>
<event>
11    1  0.8479398E-009  0.1585805E+03  0.7561462E-02  0.1088420E+00
         22   -1    0    0    0    0  0.00000000000E+00  0.00000000000E+00  0.13971086434E+04  0.13971086434E+04  0.00000000000E+00 0. -1.
         22   -1    0    0    0    0 -0.00000000000E+00 -0.00000000000E+00 -0.91187574064E+02  0.91187574064E+02  0.00000000000E+00 0. -1.
         24    2    1    2    0    0 -0.73993152739E+02 -0.51187308909E+02  0.73089210255E+01  0.12470490777E+03  0.86039330830E+02 0.  0.
         25    2    1    2    0    0  0.80684998011E+02  0.10735693093E+03  0.24917630302E+03  0.30947009432E+03  0.12508928719E+03 0.  0.
        -24    2    1    2    0    0 -0.66918452716E+01 -0.56169622017E+02  0.10494358453E+04  0.10541212153E+04  0.81585146299E+02 0.  0.
        -11    1    3    3    0    0 -0.92058097294E+00 -0.33479199957E+02  0.31240686734E+02  0.45800489154E+02  0.00000000000E+00 0.  1.
         12    1    3    3    0    0 -0.73072571766E+02 -0.17708108952E+02 -0.23931765709E+02  0.78904418616E+02  0.00000000000E+00 0. -1.
         11    1    5    5    0    0  0.11780336962E+02 -0.72251507585E+02  0.85969259599E+03  0.86280381100E+03  0.00000000000E+00 0. -1.
        -12    1    5    5    0    0 -0.18472182233E+02  0.16081885569E+02  0.18974324927E+03  0.19131740434E+03  0.00000000000E+00 0.  1.
          5    1    4    4  501    0  0.69653518569E+02  0.90701441010E+02  0.26162846457E+03  0.28556135930E+03  0.41800000000E+01 0. -1.
         -5    1    4    4    0  501  0.11031479442E+02  0.16655489916E+02 -0.12452161550E+02  0.23908735021E+02  0.41800000000E+01 0. -1.
</event>
<event>
11    1  0.8479398E-009  0.1635608E+03  0.7561462E-02  0.1083775E+00
         22   -1    0    0    0    0  0.00000000000E+00  0.00000000000E+00  0.12139851216E+03  0.12139851216E+03  0.00000000000E+00 0. -1.
         22   -1    0    0    0    0 -0.00000000000E+00 -0.00000000000E+00 -0.26771134550E+04  0.26771134550E+04  0.00000000000E+00 0.  1.
        -24    2    1    2    0    0 -0.33527224435E+02 -0.55000636065E+02 -0.13183492916E+04  0.13225724699E+04  0.83689537721E+02 0.  0.
         25    2    1    2    0    0  0.12986206361E+03  0.93910905529E+02 -0.13100985283E+04  0.13257788069E+04  0.12509147536E+03 0.  0.
         24    2    1    2    0    0 -0.96334839172E+02 -0.38910269463E+02  0.72732877083E+02  0.15016069035E+03  0.80397457726E+02 0.  0.
        -13    1    5    5    0    0 -0.16059923204E+02 -0.44331031998E+02  0.44666737884E+02  0.64948279458E+02  0.00000000000E+00 0.  1.
         14    1    5    5    0    0 -0.80274915968E+02  0.54207625348E+01  0.28066139199E+02  0.85212410890E+02  0.00000000000E+00 0. -1.
         11    1    3    3    0    0 -0.26592678249E+02 -0.60755206717E+02 -0.52504317877E+03  0.52921517859E+03  0.00000000000E+00 0. -1.
        -12    1    3    3    0    0 -0.69345461861E+01  0.57545706518E+01 -0.79330611285E+03  0.79335729133E+03  0.00000000000E+00 0.  1.
          5    1    4    4  501    0  0.10442078947E+02 -0.10875739598E+02 -0.17613453710E+02  0.23558965939E+02  0.41800000000E+01 0. -1.
         -5    1    4    4    0  501  0.11941998466E+03  0.10478664513E+03 -0.12924850746E+04  0.13022198410E+04  0.41800000000E+01 0. -1.
</event>
<event>
11    1  0.8479398E-009  0.1448078E+03  0.7561462E-02  0.1102305E+00
         22   -1    0    0    0    0  0.00000000000E+00  0.00000000000E+00  0.16390548747E+04  0.16390548747E+04  0.00000000000E+00 0. -1.
         22   -1    0    0    0    0 -0.00000000000E+00 -0.00000000000E+00 -0.51583047054E+03  0.51583047054E+03  0.00000000000E+00 0.  1.
        -24    2    1    2    0    0  0.34782009762E+02  0.33611826671E+02 -0.28444776107E+03  0.29949301799E+03  0.80286960030E+02 0.  0.
         25    2    1    2    0    0 -0.79632345172E+02 -0.90648413507E+02 -0.18798591332E+03  0.25601521718E+03  0.12508654026E+03 0.  0.
         24    2    1    2    0    0  0.44850335411E+02  0.57036586836E+02  0.15956580786E+04  0.15993771101E+04  0.81349319226E+02 0.  0.
        -11    1    5    5    0    0  0.62509226444E+02  0.17071317870E+02  0.87536960226E+03  0.87776464604E+03  0.00000000000E+00 0.  1.
         12    1    5    5    0    0 -0.17658891033E+02  0.39965268966E+02  0.72028847633E+03  0.72161246406E+03  0.00000000000E+00 0. -1.
         11    1    3    3    0    0  0.52457542296E+01 -0.22574804055E+02 -0.13723041277E+03  0.13917372563E+03  0.00000000000E+00 0. -1.
        -12    1    3    3    0    0  0.29536255532E+02  0.56186630726E+02 -0.14721734830E+03  0.16031929237E+03  0.00000000000E+00 0.  1.
          5    1    4    4  501    0 -0.13775765165E+02 -0.10077380379E+03 -0.14291915420E+03  0.17546648761E+03  0.41800000000E+01 0. -1.
         -5    1    4    4    0  501 -0.65856580008E+02  0.10125390283E+02 -0.45066759120E+02  0.80548729576E+02  0.41800000000E+01 0. -1.
</event>
<event>
11    1  0.8479398E-009  0.1599857E+03  0.7561462E-02  0.1087091E+00
         22   -1    0    0    0    0  0.00000000000E+00  0.00000000000E+00  0.53147682899E+03  0.53147682899E+03  0.00000000000E+00 0. -1.
         22   -1    0    0    0    0 -0.00000000000E+00 -0.00000000000E+00 -0.16429706931E+03  0.16429706931E+03  0.00000000000E+00 0.  1.
         24    2    1    2    0    0 -0.75260225011E+02  0.52908260486E+02  0.17997077313E+01  0.12178277880E+03  0.79777319878E+02 0.  0.
         25    2    1    2    0    0  0.52944218241E+02 -0.10254243661E+03 -0.25591126252E+02  0.17210102660E+03  0.12508323654E+03 0.  0.
        -24    2    1    2    0    0  0.22316006770E+02  0.49634176126E+02  0.39097117820E+03  0.40189009290E+03  0.75469391056E+02 0.  0.
        -13    1    3    3    0    0 -0.54051406581E+02  0.59587544070E+02  0.30007867117E+02  0.85864439966E+02  0.00000000000E+00 0.  1.
         14    1    3    3    0    0 -0.21208818431E+02 -0.66792835846E+01 -0.28208159386E+02  0.35918338831E+02  0.00000000000E+00 0. -1.
         13    1    5    5    0    0 -0.27395125910E+01  0.63647143630E+02  0.29014958789E+03  0.29706101591E+03  0.00000000000E+00 0. -1.
        -14    1    5    5    0    0  0.25055519361E+02 -0.14012967503E+02  0.10082159031E+03  0.10482907699E+03  0.00000000000E+00 0.  1.
          5    1    4    4  501    0 -0.10579451250E+02 -0.50200900442E+02 -0.63200307663E+02  0.81509548414E+02  0.41800000000E+01 0. -1.
         -5    1    4    4    0  501  0.63523669491E+02 -0.52341536169E+02  0.37609181411E+02  0.90591478190E+02  0.41800000000E+01 0. -1.
</event>
<event>
11    1  0.8479398E-009  0.2062840E+03  0.7561462E-02  0.1050167E+00
         22   -1    0    0    0    0  0.00000000000E+00  0.00000000000E+00  0.99862783097E+03  0.99862783097E+03  0.00000000000E+00 0. -1.
         22   -1    0    0    0    0 -0.00000000000E+00 -0.00000000000E+00 -0.10386519537E+04  0.10386519537E+04  0.00000000000E+00 0. -1.
         24    2    1    2    0    0  0.20854190977E+02 -0.16810247795E+03 -0.74717012842E+03  0.77028183482E+03  0.79859651051E+02 0.  0.
         25    2    1    2    0    0 -0.34385135880E+02  0.14495002022E+03 -0.24402234132E+03  0.31206378048E+03  0.12507619315E+03 0.  0.
        -24    2    1    2    0    0  0.13530944903E+02  0.23152457728E+02  0.95116834699E+03  0.95493416939E+03  0.80367411172E+02 0.  0.
        -13    1    3    3    0    0 -0.17591767061E+02 -0.12115134575E+03 -0.41772957940E+03  0.43529888623E+03  0.00000000000E+00 0.  1.
         14    1    3    3    0    0  0.38445958038E+02 -0.46951132198E+02 -0.32944054902E+03  0.33498294859E+03  0.00000000000E+00 0. -1.
         11    1    5    5    0    0  0.24527050314E+02  0.19652240179E+02  0.93221178818E+03  0.93274144583E+03  0.00000000000E+00 0. -1.
        -12    1    5    5    0    0 -0.10996105411E+02  0.35002175486E+01  0.18956558809E+02  0.22192723559E+02  0.00000000000E+00 0.  1.
          5    1    4    4  501    0 -0.80130668555E+02  0.85916937169E+02 -0.12592281693E+03  0.17226918575E+03  0.41800000000E+01 0. -1.
         -5    1    4    4    0  501  0.45745532675E+02  0.59033083054E+02 -0.11809952438E+03  0.13979459472E+03  0.41800000000E+01 0. -1.
</event>
<event>
11    1  0.8479398E-009  0.3952608E+03  0.7561462E-02  0.9663846E-01
         22   -1    0    0    0    0  0.00000000000E+00  0.00000000000E+00  0.68349256780E+03  0.68349256780E+03  0.00000000000E+00 0. -1.
         22   -1    0    0    0    0 -0.00000000000E+00 -0.00000000000E+00 -0.95918756519E+03  0.95918756519E+03  0.00000000000E+00 0.  1.
        -24    2    1    2    0    0 -0.83899528277E+02  0.12648347282E+03 -0.89312457665E+03  0.90957007828E+03  0.81295867883E+02 0.  0.
         25    2    1    2    0    0 -0.36551371795E+02 -0.29323542307E+02  0.54858195552E+02  0.14440395650E+03  0.12508880094E+03 0.  0.
         24    2    1    2    0    0  0.12045090007E+03 -0.97159930516E+02  0.56257138372E+03  0.58870609821E+03  0.78357111109E+02 0.  0.
        -11    1    5    5    0    0  0.51737443258E+02 -0.82514225773E+02  0.24920067101E+03  0.26755622759E+03  0.00000000000E+00 0.  1.
         12    1    5    5    0    0  0.68713456814E+02 -0.14645704743E+02  0.31337071270E+03  0.32114987061E+03  0.00000000000E+00 0. -1.
         11    1    3    3    0    0 -0.44467988743E+02  0.33774728637E+02 -0.15806393562E+03  0.16763753178E+03  0.00000000000E+00 0. -1.
        -12    1    3    3    0    0 -0.39431539533E+02  0.92708744186E+02 -0.73506064103E+03  0.74193254650E+03  0.00000000000E+00 0.  1.
          5    1    4    4  501    0  0.12801841154E+02  0.72614776470E+01 -0.33429189191E+02  0.36764103206E+02  0.41800000000E+01 0.  1.
         -5    1    4    4    0  501 -0.49353212949E+02 -0.36585019954E+02  0.88287384743E+02  0.10763985330E+03  0.41800000000E+01 0.  1.
</event>
<event>
11    1  0.8479398E-009  0.1399858E+03  0.7561462E-02  0.1107574E+00
         22   -1    0    0    0    0  0.00000000000E+00  0.00000000000E+00  0.78076963065E+03  0.78076963065E+03  0.00000000000E+00 0.  1.
         22   -1    0    0    0    0 -0.00000000000E+00 -0.00000000000E+00 -0.16090331826E+03  0.16090331826E+03  0.00000000000E+00 0. -1.
        -24    2    1    2    0    0 -0.70592537733E+02  0.42284608622E+01 -0.89957597315E+02  0.14259692942E+03  0.85090121057E+02 0.  0.
         25    2    1    2    0    0  0.32937773214E+02 -0.97442054707E+00  0.57952646899E+02  0.14174554110E+03  0.12508973875E+03 0.  0.
         24    2    1    2    0    0  0.37654764518E+02 -0.32540403152E+01  0.65187126280E+03  0.65733047839E+03  0.75622380807E+02 0.  0.
        -11    1    5    5    0    0  0.39660139181E+02 -0.29641982708E+02  0.54447557499E+03  0.54672225631E+03  0.00000000000E+00 0.  1.
         12    1    5    5    0    0 -0.20053746632E+01  0.26387942393E+02  0.10739568781E+03  0.11060822208E+03  0.00000000000E+00 0. -1.
         11    1    3    3    0    0 -0.85870953956E+02  0.16522635099E+02 -0.57441028951E+02  0.10462451917E+03  0.00000000000E+00 0. -1.
        -12    1    3    3    0    0  0.15278416224E+02 -0.12294174237E+02 -0.32516568364E+02  0.37972410256E+02  0.00000000000E+00 0.  1.
          5    1    4    4  501    0  0.54578026257E+02 -0.21918502317E+01 -0.21825870904E+02  0.58969536188E+02  0.41800000000E+01 0. -1.
         -5    1    4    4    0  501 -0.21640253043E+02  0.12174296847E+01  0.79778517804E+02  0.82776004915E+02  0.41800000000E+01 0. -1.
</event>
<event>
11    1  0.8479398E-009  0.1421910E+03  0.7561462E-02  0.1105136E+00
         22   -1    0    0    0    0  0.00000000000E+00  0.00000000000E+00  0.78469207313E+02  0.78469207313E+02  0.00000000000E+00 0. -1.
         22   -1    0    0    0    0 -0.00000000000E+00 -0.00000000000E+00 -0.56824607132E+03  0.56824607132E+03  0.00000000000E+00 0. -1.
         24    2    1    2    0    0 -0.27816556338E+02  0.72021236712E+02 -0.36723076189E+03  0.38454932089E+03  0.84017429011E+02 0.  0.
         25    2    1    2    0    0  0.34521115401E+02 -0.21238754870E+02 -0.10846761149E+03  0.17045889884E+03  0.12509285084E+03 0.  0.
        -24    2    1    2    0    0 -0.67045590628E+01 -0.50782481842E+02 -0.14078490627E+02  0.91707058905E+02  0.74754057953E+02 0.  0.
        -11    1    3    3    0    0  0.24111366740E+02  0.12724183720E+02 -0.43307284033E+02  0.51174053071E+02  0.00000000000E+00 0.  1.
         12    1    3    3    0    0 -0.51927923078E+02  0.59297052992E+02 -0.32392347786E+03  0.33337526782E+03  0.00000000000E+00 0. -1.
         13    1    5    5    0    0 -0.31919824739E+02 -0.13639437478E+02  0.15427111805E+02  0.37985592594E+02  0.00000000000E+00 0. -1.
        -14    1    5    5    0    0  0.25215265676E+02 -0.37143044364E+02 -0.29505602432E+02  0.53721466311E+02  0.00000000000E+00 0.  1.
          5    1    4    4  501    0 -0.16373009238E+02  0.30322044052E+02  0.57021437961E+01  0.35177956604E+02  0.41800000000E+01 0. -1.
         -5    1    4    4    0  501  0.50894124639E+02 -0.51560798922E+02 -0.11416975529E+03  0.13528094223E+03  0.41800000000E+01 0. -1.
</event>
<event>
11    1  0.8479398E-009  0.1908200E+03  0.7561462E-02  0.1061212E+00
         22   -1    0    0    0    0  0.00000000000E+00  0.00000000000E+00  0.50655956321E+03  0.50655956321E+03  0.00000000000E+00 0.  1.
         22   -1    0    0    0    0 -0.00000000000E+00 -0.00000000000E+00 -0.26444659225E+03  0.26444659225E+03  0.00000000000E+00 0. -1.
         24    2    1    2    0    0  0.36489760593E+02 -0.34663125463E+01 -0.11931676689E+03  0.14900859735E+03  0.81385215317E+02 0.  0.
         25    2    1    2    0    0  0.64226020818E+02 -0.10440262667E+03 -0.46108880441E+02  0.18110335628E+03  0.12508999398E+03 0.  0.
        -24    2    1    2    0    0 -0.10071578141E+03  0.10786893921E+03  0.40753861829E+03  0.44089420184E+03  0.80750202174E+02 0.  0.
        -13    1    3    3    0    0  0.11716272962E+01 -0.38983523831E+02 -0.56808706680E+02  0.68908032880E+02  0.00000000000E+00 0.  1.
         14    1    3    3    0    0  0.35318133297E+02  0.35517211285E+02 -0.62508060206E+02  0.80100564466E+02  0.00000000000E+00 0. -1.
         11    1    5    5    0    0  0.90333163347E+01 -0.19251095093E+01  0.78685092644E+01  0.12133436804E+02  0.00000000000E+00 0. -1.
        -12    1    5    5    0    0 -0.10974909775E+03  0.10979404872E+03  0.39967010902E+03  0.42876076504E+03  0.00000000000E+00 0.  1.
          5    1    4    4  501    0  0.42388899450E+02 -0.91573455856E+02 -0.86681250025E+02  0.13309255471E+03  0.41800000000E+01 0.  1.
         -5    1    4    4    0  501  0.21837121368E+02 -0.12829170811E+02  0.40572369585E+02  0.48010801566E+02  0.41800000000E+01 0.  1.
</event>
<event>
11    1  0.8479398E-009  0.2268010E+03  0.7561462E-02  0.1037039E+00
         22   -1    0    0    0    0  0.00000000000E+00  0.00000000000E+00  0.60971310680E+02  0.60971310680E+02  0.00000000000E+00 0. -1.
         22   -1    0    0    0    0 -0.00000000000E+00 -0.00000000000E+00 -0.16527117792E+04  0.16527117792E+04  0.00000000000E+00 0.  1.
        -24    2    1    2    0    0 -0.46855877181E+02  0.56058004196E+02 -0.47563211584E+03  0.48789435848E+03  0.80479950037E+02 0.  0.
         25    2    1    2    0    0 -0.14722134537E+03  0.33173113851E+01 -0.89297235289E+03  0.91363659908E+03  0.12508830112E+03 0.  0.
         24    2    1    2    0    0  0.19407722255E+03 -0.59375315582E+02 -0.22313599980E+03  0.31215213232E+03  0.80360953788E+02 0.  0.
        -11    1    5    5    0    0  0.40499093564E+02  0.13182160501E+01 -0.86045469437E+01  0.41424057034E+02  0.00000000000E+00 0.  1.
         12    1    5    5    0    0  0.15357812899E+03 -0.60693531632E+02 -0.21453145286E+03  0.27072807529E+03  0.00000000000E+00 0. -1.
         13    1    3    3    0    0 -0.14256011705E+02  0.59253429500E+02 -0.41039450475E+03  0.41489498949E+03  0.00000000000E+00 0. -1.
        -14    1    3    3    0    0 -0.32599865476E+02 -0.31954253037E+01 -0.65237611092E+02  0.72999368989E+02  0.00000000000E+00 0.  1.
          5    1    4    4  501    0 -0.70416198923E+02  0.56667204664E+02 -0.57830123883E+03  0.58533700412E+03  0.41800000000E+01 0.  1.
         -5    1    4    4    0  501 -0.76805146446E+02 -0.53349893279E+02 -0.31467111405E+03  0.32829959496E+03  0.41800000000E+01 0.  1.
</event>
<event>
11    1  0.8479398E-009  0.1324691E+03  0.7561462E-02  0.1116272E+00
         22   -1    0    0    0    0  0.00000000000E+00  0.00000000000E+00  0.24260512313E+03  0.24260512313E+03  0.00000000000E+00 0. -1.
         22   -1    0    0    0    0 -0.00000000000E+00 -0.00000000000E+00 -0.21997676962E+03  0.21997676962E+03  0.00000000000E+00 0. -1.
         24    2    1    2    0    0  0.32278097203E+02 -0.14459939302E+01 -0.10780596945E+03  0.15583624904E+03  0.10779073711E+03 0.  0.
         25    2    1    2    0    0 -0.81584497563E+02 -0.35317789429E+02  0.18377688677E+02  0.15458931118E+03  0.12512689239E+03 0.  0.
        -24    2    1    2    0    0  0.49306400359E+02  0.36763783359E+02  0.11205663429E+03  0.15215633253E+03  0.82535830750E+02 0.  0.
        -11    1    3    3    0    0  0.11204652493E+02 -0.45155447150E+02 -0.94796970703E+02  0.10559841050E+03  0.00000000000E+00 0.  1.
         12    1    3    3    0    0  0.21073444711E+02  0.43709453219E+02 -0.13008998751E+02  0.50237838541E+02  0.00000000000E+00 0. -1.
         11    1    5    5    0    0  0.35332087035E+00  0.30185055307E+02  0.95349748487E+02  0.10001418367E+03  0.00000000000E+00 0. -1.
        -12    1    5    5    0    0  0.48953079489E+02  0.65787280519E+01  0.16706885805E+02  0.52142148858E+02  0.00000000000E+00 0.  1.
          5    1    4    4  501    0 -0.60985243780E+01 -0.50674976167E+02  0.49666667704E+02  0.71339999229E+02  0.41800000000E+01 0.  1.
         -5    1    4    4    0  501 -0.75485973185E+02  0.15357186738E+02 -0.31288979027E+02  0.83249311953E+02  0.41800000000E+01 0.  1.
</event>
<event>
11    1  0.8479398E-009  0.1728726E+03  0.7561462E-02  0.1075559E+00
         22   -1    0    0    0    0  0.00000000000E+00  0.00000000000E+00  0.12000524783E+03  0.12000524783E+03  0.00000000000E+00 0.  1.
         22   -1    0    0    0    0 -0.00000000000E+00 -0.00000000000E+00 -0.13391797507E+04  0.13391797507E+04  0.00000000000E+00 0.  1.
         24    2    1    2    0    0  0.63259012341E+02 -0.10815218806E+03 -0.11429354531E+04  0.11525373767E+04  0.79638912194E+02 0.  0.
         25    2    1    2    0    0 -0.22944049728E+02  0.76332254829E+02 -0.13106308979E+03  0.19793904220E+03  0.12509711578E+03 0.  0.
        -24    2    1    2    0    0 -0.40314962612E+02  0.31819933235E+02  0.54824039986E+02  0.10870857966E+03  0.78575286000E+02 0.  0.
        -13    1    3    3    0    0  0.56805186112E+02 -0.11815427425E+03 -0.11057132236E+04  0.11134581243E+04  0.00000000000E+00 0.  1.
         14    1    3    3    0    0  0.64538262289E+01  0.10002086183E+02 -0.37222229452E+02  0.39079252378E+02  0.00000000000E+00 0. -1.
         13    1    5    5    0    0 -0.19834522597E+02 -0.25405647508E+02  0.12157662718E+02  0.34447989414E+02  0.00000000000E+00 0. -1.
        -14    1    5    5    0    0 -0.20480440016E+02  0.57225580743E+02  0.42666377268E+02  0.74260590247E+02  0.00000000000E+00 0.  1.
          5    1    4    4  501    0 -0.15194505923E+02  0.44141299747E+02  0.14134883151E+02  0.48955027069E+02  0.41800000000E+01 0.  1.
         -5    1    4    4    0  501 -0.77495438048E+01  0.32190955082E+02 -0.14519797294E+03  0.14898401513E+03  0.41800000000E+01 0.  1.
</event>
<event>
11    1  0.8479398E-009  0.1824327E+03  0.7561462E-02  0.1067692E+00
         22   -1    0    0    0    0  0.00000000000E+00  0.00000000000E+00  0.17301579995E+04  0.17301579995E+04  0.00000000000E+00 0. -1.
         22   -1    0    0    0    0 -0.00000000000E+00 -0.00000000000E+00 -0.39467884749E+03  0.39467884749E+03  0.00000000000E+00 0.  1.
        -24    2    1    2    0    0 -0.57209184642E+02 -0.65110421164E+02 -0.36120668115E+03  0.37906272039E+03  0.75538213708E+02 0.  0.
         25    2    1    2    0    0  0.99584211615E+02 -0.70295463712E+02  0.38189363155E+03  0.41993852328E+03  0.12508856899E+03 0.  0.
         24    2    1    2    0    0 -0.42375026973E+02  0.13540588488E+03  0.13147922016E+04  0.13258356033E+04  0.95032189442E+02 0.  0.
        -11    1    5    5    0    0  0.19537835049E+02  0.83951272429E+02  0.82256150002E+03  0.82706527219E+03  0.00000000000E+00 0.  1.
         12    1    5    5    0    0 -0.61912862022E+02  0.51454612447E+02  0.49223070161E+03  0.49877033115E+03  0.00000000000E+00 0. -1.
         11    1    3    3    0    0 -0.81558180321E+01 -0.18987071321E+00 -0.18273748613E+03  0.18291949666E+03  0.00000000000E+00 0. -1.
        -12    1    3    3    0    0 -0.49053366610E+02 -0.64920550450E+02 -0.17846919502E+03  0.19614322373E+03  0.00000000000E+00 0.  1.
          5    1    4    4  501    0  0.12851341481E+02 -0.34285232001E+02  0.27554711410E+03  0.27800057302E+03  0.41800000000E+01 0.  1.
         -5    1    4    4    0  501  0.86732870134E+02 -0.36010231711E+02  0.10634651746E+03  0.14193795026E+03  0.41800000000E+01 0.  1.
</event>
<event>
11    1  0.8479398E-009  0.1334029E+03  0.7561462E-02  0.1115157E+00
         22   -1    0    0    0    0  0.00000000000E+00  0.00000000000E+00  0.49661412704E+03  0.49661412704E+03  0.00000000000E+00 0. -1.
         22   -1    0    0    0    0 -0.00000000000E+00 -0.00000000000E+00 -0.27449537866E+03  0.27449537866E+03  0.00000000000E+00 0. -1.
         24    2    1    2    0    0 -0.19045684059E+02 -0.13794036980E+02 -0.16148171669E+03  0.18199871381E+03  0.80586434750E+02 0.  0.
         25    2    1    2    0    0  0.50535940360E+02  0.46309571990E+02 -0.45791005409E+02  0.14980064469E+03  0.12507981151E+03 0.  0.
        -24    2    1    2    0    0 -0.31490256301E+02 -0.32515535010E+02  0.42939147048E+03  0.43931014721E+03  0.81039954734E+02 0.  0.
        -13    1    3    3    0    0 -0.22784735998E+02  0.31273214047E+02 -0.76980393810E+02  0.86157641231E+02  0.00000000000E+00 0.  1.
         14    1    3    3    0    0  0.37390519395E+01 -0.45067251027E+02 -0.84501322878E+02  0.95841072576E+02  0.00000000000E+00 0. -1.
         13    1    5    5    0    0 -0.29118147946E+02 -0.56257957426E+02  0.36859954192E+03  0.37400327086E+03  0.00000000000E+00 0. -1.
        -14    1    5    5    0    0 -0.23721083551E+01  0.23742422416E+02  0.60791928562E+02  0.65306876349E+02  0.00000000000E+00 0.  1.
          5    1    4    4  501    0 -0.26717334675E+02 -0.96060194762E+01 -0.46147198782E+02  0.54342689828E+02  0.41800000000E+01 0.  1.
         -5    1    4    4    0  501  0.77253275035E+02  0.55915591466E+02  0.35619337307E+00  0.95457954862E+02  0.41800000000E+01 0.  1.
</event>
<event>
11    1  0.8479398E-009  0.1502314E+03  0.7561462E-02  0.1096643E+00
         22   -1    0    0    0    0  0.00000000000E+00  0.00000000000E+00  0.52301709766E+03  0.52301709766E+03  0.00000000000E+00 0.  1.
         22   -1    0    0    0    0 -0.00000000000E+00 -0.00000000000E+00 -0.13985197527E+03  0.13985197527E+03  0.00000000000E+00 0. -1.
         24    2    1    2    0    0  0.28610685742E+02  0.11238052516E+01  0.87882475477E+02  0.12386093788E+03  0.82452217434E+02 0.  0.
         25    2    1    2    0    0  0.79037154191E+02 -0.10998359788E+02 -0.59438358926E+02  0.15984119277E+03  0.12509377576E+03 0.  0.
        -24    2    1    2    0    0 -0.10764783993E+03  0.98745545367E+01  0.35472100583E+03  0.37916694228E+03  0.79088645653E+02 0.  0.
        -11    1    3    3    0    0  0.15048296492E+02 -0.89900227204E+01  0.10096444124E+03  0.10247482681E+03  0.00000000000E+00 0.  1.
         12    1    3    3    0    0  0.13562389250E+02  0.10113827972E+02 -0.13081965761E+02  0.21386111068E+02  0.00000000000E+00 0. -1.
         11    1    5    5    0    0 -0.83855995050E+02 -0.72583704639E+01  0.14703717449E+03  0.16942385467E+03  0.00000000000E+00 0. -1.
        -12    1    5    5    0    0 -0.23791844883E+02  0.17132925001E+02  0.20768383134E+03  0.20974308762E+03  0.00000000000E+00 0.  1.
          5    1    4    4  501    0 -0.86251703056E+01  0.43272859028E+02 -0.10063429793E+02  0.45449740488E+02  0.41800000000E+01 0. -1.
         -5    1    4    4    0  501  0.87662324496E+02 -0.54271218816E+02 -0.49374929133E+02  0.11439145228E+03  0.41800000000E+01 0. -1.
</event>
<event>
11    1  0.8479398E-009  0.1378533E+03  0.7561462E-02  0.1109979E+00
         22   -1    0    0    0    0  0.00000000000E+00  0.00000000000E+00  0.14566014878E+04  0.14566014878E+04  0.00000000000E+00 0.  1.
         22   -1    0    0    0    0 -0.00000000000E+00 -0.00000000000E+00 -0.36656931252E+03  0.36656931252E+03  0.00000000000E+00 0. -1.
        -24    2    1    2    0    0  0.35959753732E+02 -0.42599647404E+02 -0.29768024185E+03  0.31337387274E+03  0.80509775058E+02 0.  0.
         25    2    1    2    0    0 -0.72582431042E+02  0.49852328982E+02  0.38528966779E+02  0.15775062617E+03  0.12508922725E+03 0.  0.
         24    2    1    2    0    0  0.36622677311E+02 -0.72526815778E+01  0.13491834503E+04  0.13520463014E+04  0.79620327698E+02 0.  0.
        -11    1    5    5    0    0  0.57156025906E+02 -0.52424060299E+01  0.12080618500E+04  0.12094245439E+04  0.00000000000E+00 0.  1.
         12    1    5    5    0    0 -0.20533348596E+02 -0.20102755479E+01  0.14112160034E+03  0.14262175744E+03  0.00000000000E+00 0. -1.
         13    1    3    3    0    0  0.52208982453E+02 -0.47006108777E+02 -0.28109467809E+03  0.28974052213E+03  0.00000000000E+00 0. -1.
        -14    1    3    3    0    0 -0.16249228721E+02  0.44064613730E+01 -0.16585563753E+02  0.23633350606E+02  0.00000000000E+00 0.  1.
          5    1    4    4  501    0 -0.79605633998E+02  0.20519809437E+02 -0.26062607331E+02  0.86341481598E+02  0.41800000000E+01 0. -1.
         -5    1    4    4    0  501  0.70232029556E+01  0.29332519545E+02  0.64591574110E+02  0.71409144573E+02  0.41800000000E+01 0. -1.
</event>
<event>
11    1  0.8479398E-009  0.1512659E+03  0.7561462E-02  0.1095592E+00
         22   -1    0    0    0    0  0.00000000000E+00  0.00000000000E+00  0.15340245045E+03  0.15340245045E+03  0.00000000000E+00 0. -1.
         22   -1    0    0    0    0 -0.00000000000E+00 -0.00000000000E+00 -0.17242923949E+04  0.17242923949E+04  0.00000000000E+00 0. -1.
        -24    2    1    2    0    0  0.12701002145E+02 -0.84988102474E+02 -0.14977736995E+04  0.15024373882E+04  0.81288114856E+02 0.  0.
         25    2    1    2    0    0 -0.70808641486E+02  0.62249344707E+02 -0.17128099753E+03  0.23210663861E+03  0.12508983551E+03 0.  0.
         24    2    1    2    0    0  0.58107639341E+02  0.22738757766E+02  0.98164752546E+02  0.14315081855E+03  0.83440334092E+02 0.  0.
        -13    1    5    5    0    0  0.11175897287E+02  0.12970983703E+02 -0.13387795794E+02  0.21734308698E+02  0.00000000000E+00 0.  1.
         14    1    5    5    0    0  0.46931742054E+02  0.97677740635E+01  0.11155254834E+03  0.12141650985E+03  0.00000000000E+00 0. -1.
         13    1    3    3    0    0  0.17225687110E+02 -0.95325053348E+02 -0.10342876949E+04  0.10388140478E+04  0.00000000000E+00 0. -1.
        -14    1    3    3    0    0 -0.45246849649E+01  0.10336950874E+02 -0.46348600457E+03  0.46362334039E+03  0.00000000000E+00 0.  1.
          5    1    4    4  501    0 -0.71948549301E+02 -0.89004410436E+01 -0.40465302937E+02  0.83130768907E+02  0.41800000000E+01 0. -1.
         -5    1    4    4    0  501  0.11399078155E+01  0.71149785751E+02 -0.13081569459E+03  0.14897586970E+03  0.41800000000E+01 0. -1.
</event>
<event>
11    1  0.8479398E-009  0.1595632E+03  0.7561462E-02  0.1087489E+00
         22   -1    0    0    0    0  0.00000000000E+00  0.00000000000E+00  0.98417904908E+03  0.98417904908E+03  0.00000000000E+00 0.  1.
         22   -1    0    0    0    0 -0.00000000000E+00 -0.00000000000E+00 -0.11894520208E+03  0.11894520208E+03  0.00000000000E+00 0. -1.
        -24    2    1    2    0    0  0.34766392775E+02 -0.90311152074E+01  0.23404742777E+02  0.92029714513E+02  0.81433551196E+02 0.  0.
         25    2    1    2    0    0 -0.12188014408E+03 -0.34967876429E+02  0.19409289384E+02  0.17913469954E+03  0.12503998625E+03 0.  0.
         24    2    1    2    0    0  0.87113751302E+02  0.43998991636E+02  0.82241981484E+03  0.83195983711E+03  0.79108165146E+02 0.  0.
        -11    1    5    5    0    0  0.61395756108E+02  0.57741188084E+02  0.73474568724E+03  0.73956386377E+03  0.00000000000E+00 0.  1.
         12    1    5    5    0    0  0.25717995195E+02 -0.13742196448E+02  0.87674127598E+02  0.92395973344E+02  0.00000000000E+00 0. -1.
         11    1    3    3    0    0 -0.96899131181E+00 -0.20556588589E+02 -0.23961746165E+02  0.31586034222E+02  0.00000000000E+00 0. -1.
        -12    1    3    3    0    0  0.35735384087E+02  0.11525473382E+02  0.47366488942E+02  0.60443680292E+02  0.00000000000E+00 0.  1.
          5    1    4    4  501    0 -0.73789623327E+02 -0.38936251318E+02 -0.47834888071E+02  0.96263124270E+02  0.41800000000E+01 0.  1.
         -5    1    4    4    0  501 -0.48090520751E+02  0.39683748892E+01  0.67244177455E+02  0.82871575265E+02  0.41800000000E+01 0.  1.
</event>
<event>
11    1  0.8479398E-009  0.6142644E+03  0.7561462E-02  0.9169160E-01
         22   -1    0    0    0    0  0.00000000000E+00  0.00000000000E+00  0.27334920539E+04  0.27334920539E+04  0.00000000000E+00 0.  1.
         22   -1    0    0    0    0 -0.00000000000E+00 -0.00000000000E+00 -0.77353102056E+03  0.77353102056E+03  0.00000000000E+00 0.  1.
         24    2    1    2    0    0 -0.20187848038E+03 -0.56527001847E+03 -0.57535590084E+03  0.83523237564E+03  0.79332175441E+02 0.  0.
         25    2    1    2    0    0  0.14764070672E+03  0.60011750994E+03  0.14748902745E+04  0.16040226550E+04  0.12509417201E+03 0.  0.
        -24    2    1    2    0    0  0.54237773661E+02 -0.34847491466E+02  0.10604266596E+04  0.10677680438E+04  0.10708786628E+03 0.  0.
        -11    1    3    3    0    0 -0.18733144851E+03 -0.49768067674E+03 -0.53880942734E+03  0.75703020191E+03  0.00000000000E+00 0.  1.
         12    1    3    3    0    0 -0.14547031873E+02 -0.67589341726E+02 -0.36546473497E+02  0.78202173732E+02  0.00000000000E+00 0. -1.
         11    1    5    5    0    0 -0.13290668520E+02 -0.18349660630E+02  0.49328425200E+02  0.54283012514E+02  0.00000000000E+00 0. -1.
        -12    1    5    5    0    0  0.67528442181E+02 -0.16497830835E+02  0.10110982344E+04  0.10134850313E+04  0.00000000000E+00 0.  1.
          5    1    4    4  501    0  0.48842048894E+02  0.31278205768E+03  0.60935914956E+03  0.68669804638E+03  0.41800000000E+01 0.  1.
         -5    1    4    4    0  501  0.98798657830E+02  0.28733545225E+03  0.86553112495E+03  0.91732460861E+03  0.41800000000E+01 0.  1.
</event>
<event>
11    1  0.8479398E-009  0.1355027E+03  0.7561462E-02  0.1112687E+00
         22   -1    0    0    0    0  0.00000000000E+00  0.00000000000E+00  0.13332978934E+03  0.13332978934E+03  0.00000000000E+00 0. -1.
         22   -1    0    0    0    0 -0.00000000000E+00 -0.00000000000E+00 -0.14417025671E+04  0.14417025671E+04  0.00000000000E+00 0. -1.
        -24    2    1    2    0    0  0.39035993245E+02 -0.33799219451E+02 -0.12077569078E+04  0.12116336625E+04  0.81934044598E+02 0.  0.
         25    2    1    2    0    0 -0.33664377701E+02  0.48275713184E+02 -0.19631811721E+03  0.24010909168E+03  0.12509091875E+03 0.  0.
         24    2    1    2    0    0 -0.53716155446E+01 -0.14476493734E+02  0.95702247258E+02  0.12328960229E+03  0.76177311440E+02 0.  0.
        -11    1    5    5    0    0 -0.11178080516E+02 -0.35762649964E+02  0.16268086931E+02  0.40848099942E+02  0.00000000000E+00 0.  1.
         12    1    5    5    0    0  0.58064649719E+01  0.21286156230E+02  0.79434160327E+02  0.82441502348E+02  0.00000000000E+00 0. -1.
         13    1    3    3    0    0  0.18074474627E+02 -0.35013877712E+02 -0.11403886177E+04  0.11410691730E+04  0.00000000000E+00 0. -1.
        -14    1    3    3    0    0  0.20961518618E+02  0.12146582614E+01 -0.67368290147E+02  0.70564489475E+02  0.00000000000E+00 0.  1.
          5    1    4    4  501    0  0.12678880447E+02  0.77282972007E+02 -0.82829790638E+02  0.11406865647E+03  0.41800000000E+01 0.  1.
         -5    1    4    4    0  501 -0.46343258148E+02 -0.29007258823E+02 -0.11348832657E+03  0.12604043521E+03  0.41800000000E+01 0.  1.
</event>
<event>
11    1  0.8479398E-009  0.1552130E+03  0.7561462E-02  0.1091668E+00
         22   -1    0    0    0    0  0.00000000000E+00  0.00000000000E+00  0.99338595771E+03  0.99338595771E+03  0.00000000000E+00 0.  1.
         22   -1    0    0    0    0 -0.00000000000E+00 -0.00000000000E+00 -0.13587147834E+04  0.13587147834E+04  0.00000000000E+00 0. -1.
        -24    2    1    2    0    0 -0.11230994655E+02  0.25624715024E+02 -0.13137114401E+04  0.13178705621E+04  0.10080827938E+03 0.  0.
         25    2    1    2    0    0 -0.59343717697E+02  0.37334105451E+02  0.95571636594E+02  0.17232740084E+03  0.12508910064E+03 0.  0.
         24    2    1    2    0    0  0.70574712352E+02 -0.62958820475E+02  0.85281097784E+03  0.86190277820E+03  0.81518292768E+02 0.  0.
        -11    1    5    5    0    0  0.82081536773E+02 -0.70763160850E+02  0.68534654766E+03  0.69386215778E+03  0.00000000000E+00 0.  1.
         12    1    5    5    0    0 -0.11506824421E+02  0.78043403753E+01  0.16746443018E+03  0.16804062043E+03  0.00000000000E+00 0. -1.
         13    1    3    3    0    0 -0.13716678869E+02 -0.32231805050E+02 -0.82446022393E+03  0.82520403379E+03  0.00000000000E+00 0. -1.
        -14    1    3    3    0    0  0.24856842137E+01  0.57856520074E+02 -0.48925121621E+03  0.49266652830E+03  0.00000000000E+00 0.  1.
          5    1    4    4  501    0  0.66107500028E+01  0.13520025529E+02  0.10069036212E+03  0.10189462464E+03  0.41800000000E+01 0.  1.
         -5    1    4    4    0  501 -0.65954467699E+02  0.23814079922E+02 -0.51187255284E+01  0.70432776199E+02  0.41800000000E+01 0.  1.
</event>
<event>
11    1  0.8479398E-009  0.1544069E+03  0.7561462E-02  0.1092459E+00
         22   -1    0    0    0    0  0.00000000000E+00  0.00000000000E+00  0.57594699833E+03  0.57594699833E+03  0.00000000000E+00 0.  1.
         22   -1    0    0    0    0 -0.00000000000E+00 -0.00000000000E+00 -0.11169368086E+04  0.11169368086E+04  0.00000000000E+00 0. -1.
        -24    2    1    2    0    0 -0.90571941087E+02  0.54607404157E+01 -0.10643440074E+04  0.10713716857E+04  0.82316624685E+02 0.  0.
         25    2    1    2    0    0  0.83725370770E+02  0.16461599094E+02  0.84144013514E+02  0.17322956023E+03  0.12508934236E+03 0.  0.
         24    2    1    2    0    0  0.68465703172E+01 -0.21922339510E+02  0.43921018355E+03  0.44828256104E+03  0.86742173731E+02 0.  0.
        -11    1    5    5    0    0 -0.10877427798E+02 -0.15831505774E+02  0.42319443029E+03  0.42363012268E+03  0.00000000000E+00 0.  1.
         12    1    5    5    0    0  0.17723998115E+02 -0.60908337361E+01  0.16015753262E+02  0.24652438365E+02  0.00000000000E+00 0. -1.
         13    1    3    3    0    0  0.75549562390E+01  0.12966087308E+02 -0.34508329133E+03  0.34540943059E+03  0.00000000000E+00 0. -1.
        -14    1    3    3    0    0 -0.98126897326E+02 -0.75053468921E+01 -0.71926071602E+03  0.72596225510E+03  0.00000000000E+00 0.  1.
          5    1    4    4  501    0  0.20715583826E+02  0.51246219917E+02 -0.82422611099E+01  0.56042106823E+02  0.41800000000E+01 0.  1.
         -5    1    4    4    0  501  0.63009786944E+02 -0.34784620822E+02  0.92386274624E+02  0.11718745340E+03  0.41800000000E+01 0.  1.
</event>
<event>
11    1  0.8479398E-009  0.1317780E+03  0.7561462E-02  0.1117103E+00
         22   -1    0    0    0    0  0.00000000000E+00  0.00000000000E+00  0.10827290620E+04  0.10827290620E+04  0.00000000000E+00 0.  1.
         22   -1    0    0    0    0 -0.00000000000E+00 -0.00000000000E+00 -0.20895398588E+03  0.20895398588E+03  0.00000000000E+00 0.  1.
        -24    2    1    2    0    0  0.79528677843E+01 -0.41983001319E+02 -0.16884796540E+03  0.19197084652E+03  0.80730105837E+02 0.  0.
         25    2    1    2    0    0 -0.24369672629E+02  0.20430054954E+02  0.12963850390E+03  0.18292137738E+03  0.12507126176E+03 0.  0.
         24    2    1    2    0    0  0.16416804844E+02  0.21552946365E+02  0.91298453764E+03  0.91679082401E+03  0.78934200682E+02 0.  0.
        -13    1    5    5    0    0  0.24733847680E+02  0.41275720042E+02  0.81845061196E+03  0.81986392316E+03  0.00000000000E+00 0.  1.
         14    1    5    5    0    0 -0.83170428352E+01 -0.19722773677E+02  0.94533925687E+02  0.96926900853E+02  0.00000000000E+00 0. -1.
         11    1    3    3    0    0  0.13119482465E+02  0.15937324119E+02 -0.10247809787E+02  0.23046403747E+02  0.00000000000E+00 0. -1.
        -12    1    3    3    0    0 -0.51666146806E+01 -0.57920325438E+02 -0.15860015561E+03  0.16892444277E+03  0.00000000000E+00 0.  1.
          5    1    4    4  501    0 -0.39475898242E+02  0.23793375242E+02  0.15001672678E+03  0.15699350930E+03  0.41800000000E+01 0. -1.
         -5    1    4    4    0  501  0.15106225613E+02 -0.33633202880E+01 -0.20378222879E+02  0.25927868083E+02  0.41800000000E+01 0. -1.
</event>
<event>
11    1  0.8479398E-009  0.2592748E+03  0.7561462E-02  0.1019071E+00
         22   -1    0    0    0    0  0.00000000000E+00  0.00000000000E+00  0.30075959514E+03  0.30075959514E+03  0.00000000000E+00 0. -1.
         22   -1    0    0    0    0 -0.00000000000E+00 -0.00000000000E+00 -0.97234581198E+03  0.97234581198E+03  0.00000000000E+00 0. -1.
         24    2    1    2    0    0  0.23009320659E+02  0.12729884936E+03 -0.67714317251E+03  0.69407310210E+03  0.80499497447E+02 0.  0.
         25    2    1    2    0    0 -0.17695480406E+03 -0.25641588195E+03 -0.82403592041E+02  0.34568806991E+03  0.12509109682E+03 0.  0.
        -24    2    1    2    0    0  0.15394548341E+03  0.12911703258E+03  0.87960547713E+02  0.23334423511E+03  0.79637014897E+02 0.  0.
        -13    1    3    3    0    0 -0.21861354633E+02  0.10980442200E+02 -0.17412157403E+03  0.17583177039E+03  0.00000000000E+00 0.  1.
         14    1    3    3    0    0  0.44870675292E+02  0.11631840717E+03 -0.50302159848E+03  0.51824133171E+03  0.00000000000E+00 0. -1.
         11    1    5    5    0    0  0.14754537923E+03  0.13961993748E+03  0.87084644664E+02  0.22101380321E+03  0.00000000000E+00 0. -1.
        -12    1    5    5    0    0  0.64001041774E+01 -0.10502904896E+02  0.87590304994E+00  0.12330431902E+02  0.00000000000E+00 0.  1.
          5    1    4    4  501    0 -0.14069993964E+03 -0.18817586414E+03 -0.32924081655E+01  0.23502115056E+03  0.41800000000E+01 0.  1.
         -5    1    4    4    0  501 -0.36254864424E+02 -0.68240017808E+02 -0.79111183875E+02  0.11066691935E+03  0.41800000000E+01 0.  1.
</event>
<event>
11    1  0.8479398E-009  0.1378586E+03  0.7561462E-02  0.1109973E+00
         22   -1    0    0    0    0  0.00000000000E+00  0.00000000000E+00  0.57584402083E+02  0.57584402083E+02  0.00000000000E+00 0. -1.
         22   -1    0    0    0    0 -0.00000000000E+00 -0.00000000000E+00 -0.10223202793E+04  0.10223202793E+04  0.00000000000E+00 0.  1.
         24    2    1    2    0    0 -0.18467243844E+02 -0.45546093197E+02 -0.54529341474E+03  0.55361985169E+03  0.82064281699E+02 0.  0.
         25    2    1    2    0    0 -0.37852295048E+02  0.60840470574E+02 -0.40120770986E+03  0.42632063279E+03  0.12508915374E+03 0.  0.
        -24    2    1    2    0    0  0.56319538892E+02 -0.15294377377E+02 -0.18234752641E+02  0.99964196933E+02  0.79085561414E+02 0.  0.
        -13    1    3    3    0    0 -0.37061682124E+01 -0.57279857573E+02 -0.20727555503E+03  0.21507643636E+03  0.00000000000E+00 0.  1.
         14    1    3    3    0    0 -0.14761075632E+02  0.11733764375E+02 -0.33801785971E+03  0.33854341533E+03  0.00000000000E+00 0. -1.
         11    1    5    5    0    0  0.43641408497E+02 -0.29139155515E+02  0.20959366648E+02  0.56506264874E+02  0.00000000000E+00 0. -1.
        -12    1    5    5    0    0  0.12678130395E+02  0.13844778138E+02 -0.39194119289E+02  0.43457932059E+02  0.00000000000E+00 0.  1.
          5    1    4    4  501    0 -0.40536852067E+02  0.86372147639E+02 -0.38260008866E+03  0.39433955483E+03  0.41800000000E+01 0.  1.
         -5    1    4    4    0  501  0.26845570197E+01 -0.25531677064E+02 -0.18607621205E+02  0.31981077953E+02  0.41800000000E+01 0.  1.
</event>
<event>
11    1  0.8479398E-009  0.1379922E+03  0.7561462E-02  0.1109821E+00
         22   -1    0    0    0    0  0.00000000000E+00  0.00000000000E+00  0.74535371538E+03  0.74535371538E+03  0.00000000000E+00 0.  1.
         22   -1    0    0    0    0 -0.00000000000E+00 -0.00000000000E+00 -0.63153157567E+03  0.63153157567E+03  0.00000000000E+00 0. -1.
        -24    2    1    2    0    0 -0.44255803064E+01  0.56818485585E+02 -0.56206514951E+03  0.57151117033E+03  0.86370477886E+02 0.  0.
         25    2    1    2    0    0 -0.11207593994E+02 -0.84476631253E+02  0.30733444002E+02  0.15444149415E+03  0.12508284912E+03 0.  0.
         24    2    1    2    0    0  0.15633174300E+02  0.27658145668E+02  0.64515384522E+03  0.65093262658E+03  0.80501125368E+02 0.  0.
        -11    1    5    5    0    0 -0.16613851427E+02  0.22948577374E+02  0.54229518720E+03  0.54303473860E+03  0.00000000000E+00 0.  1.
         12    1    5    5    0    0  0.32247025728E+02  0.47095682939E+01  0.10285865802E+03  0.10789788798E+03  0.00000000000E+00 0. -1.
         11    1    3    3    0    0  0.62272143044E+01  0.14416362689E+02 -0.46254146778E+03  0.46280797220E+03  0.00000000000E+00 0. -1.
        -12    1    3    3    0    0 -0.10652794611E+02  0.42402122896E+02 -0.99523681729E+02  0.10870319813E+03  0.00000000000E+00 0.  1.
          5    1    4    4  501    0  0.45957036459E+01  0.33554929765E+00 -0.41427103721E+02  0.41891650816E+02  0.41800000000E+01 0. -1.
         -5    1    4    4    0  501 -0.15803297640E+02 -0.84812180551E+02  0.72160547723E+02  0.11254984333E+03  0.41800000000E+01 0. -1.
</event>
<event>
11    1  0.9291524E-009  0.1650145E+03  0.7561462E-02  0.1082454E+00
         22   -1    0    0    0    0  0.00000000000E+00  0.00000000000E+00  0.32876095241E+04  0.32876095241E+04  0.00000000000E+00 0.  1.
         22   -1    0    0    0    0 -0.00000000000E+00 -0.00000000000E+00 -0.59789489668E+03  0.59789489668E+03  0.00000000000E+00 0.  1.
         24    2    1    2    0    0  0.64051273514E+02  0.49894062205E+02 -0.27335440114E+03  0.29590619372E+03  0.79030777382E+02 0.  0.
         25    2    1    2    0    0 -0.16544251458E+03 -0.84951209164E+02 -0.27161329048E+03  0.35214967525E+03  0.12509068968E+03 0.  0.
        -24    2    1    2    0    0  0.10139124107E+03  0.35057146959E+02  0.32346823191E+04  0.32374485518E+04  0.79963949374E+02 0.  0.
        -11    1    3    3    0    0 -0.42602944688E+01  0.35745404100E+01 -0.13275889073E+03  0.13287531944E+03  0.00000000000E+00 0.  1.
         12    1    3    3    0    0  0.68311567983E+02  0.46319521795E+02 -0.14059551042E+03  0.16303087428E+03  0.00000000000E+00 0. -1.
         13    1    5    5    0    0  0.71712542233E+01 -0.56379646307E+01  0.36595193214E+02  0.37715006280E+02  0.00000000000E+00 0. -1.
        -14    1    5    5    0    0  0.94219986844E+02  0.40695111590E+02  0.31980871258E+04  0.31997335455E+04  0.00000000000E+00 0.  1.
          5    1    4    4  501    0  0.21463592902E+00 -0.39074961395E+02 -0.12616733940E+02  0.41274120850E+02  0.41800000000E+01 0. -1.
         -5    1    4    4    0  501 -0.16565715051E+03 -0.45876247769E+02 -0.25899655654E+03  0.31087555440E+03  0.41800000000E+01 0. -1.
</event>
<event>
11    1  0.8479398E-009  0.1590761E+03  0.7561462E-02  0.1087949E+00
         22   -1    0    0    0    0  0.00000000000E+00  0.00000000000E+00  0.29957388136E+03  0.29957388136E+03  0.00000000000E+00 0. -1.
         22   -1    0    0    0    0 -0.00000000000E+00 -0.00000000000E+00 -0.45285676596E+04  0.45285676596E+04  0.00000000000E+00 0. -1.
         24    2    1    2    0    0  0.27627406007E+02  0.18559178392E+02 -0.43724065425E+04  0.43732569017E+04  0.79556509177E+02 0.  0.
         25    2    1    2    0    0 -0.11196306864E+03 -0.62317878011E+02 -0.83284321230E+02  0.19749265772E+03  0.12509126682E+03 0.  0.
        -24    2    1    2    0    0  0.84335662631E+02  0.43758699619E+02  0.22669708551E+03  0.25739198158E+03  0.76365802665E+02 0.  0.
        -13    1    3    3    0    0 -0.17572556923E+02  0.27603921067E+02 -0.99977880711E+03  0.10003141678E+04  0.00000000000E+00 0.  1.
         14    1    3    3    0    0  0.45199962930E+02 -0.90447426746E+01 -0.33726277354E+04  0.33729427338E+04  0.00000000000E+00 0. -1.
         11    1    5    5    0    0  0.83105097343E+02  0.73157069117E+01  0.17776320649E+03  0.19636632694E+03  0.00000000000E+00 0. -1.
        -12    1    5    5    0    0  0.12305652873E+01  0.36442992707E+02  0.48933879022E+02  0.61025654642E+02  0.00000000000E+00 0.  1.
          5    1    4    4  501    0 -0.98944351660E+02 -0.35154738188E+02 -0.11346133463E+03  0.15465053249E+03  0.41800000000E+01 0.  1.
         -5    1    4    4    0  501 -0.13018716978E+02 -0.27163139823E+02  0.30177013403E+02  0.42842125236E+02  0.41800000000E+01 0.  1.
</event>
<event>
11    1  0.8479398E-009  0.1805499E+03  0.7561462E-02  0.1069199E+00
         22   -1    0    0    0    0  0.00000000000E+00  0.00000000000E+00  0.44452525904E+03  0.44452525904E+03  0.00000000000E+00 0. -1.
         22   -1    0    0    0    0 -0.00000000000E+00 -0.00000000000E+00 -0.69734066881E+03  0.69734066881E+03  0.00000000000E+00 0. -1.
        -24    2    1    2    0    0 -0.42582984387E+02  0.27140270619E+02 -0.58210984647E+03  0.58973193527E+03  0.79887278505E+02 0.  0.
         25    2    1    2    0    0  0.58719122519E+02 -0.15128550825E+03  0.16236985518E+02  0.20553818602E+03  0.12508823230E+03 0.  0.
         24    2    1    2    0    0 -0.16136138131E+02  0.12414523763E+03  0.31305745118E+03  0.34659580656E+03  0.80319800839E+02 0.  0.
        -13    1    5    5    0    0  0.16431858942E+02 -0.32488401019E+01  0.45211856869E+02  0.48214862354E+02  0.00000000000E+00 0.  1.
         14    1    5    5    0    0 -0.32567997073E+02  0.12739407773E+03  0.26784559431E+03  0.29838094421E+03  0.00000000000E+00 0. -1.
         11    1    3    3    0    0 -0.25612960904E+02  0.28635788033E+02 -0.56227253704E+03  0.56358356792E+03  0.00000000000E+00 0. -1.
        -12    1    3    3    0    0 -0.16970023484E+02 -0.14955174135E+01 -0.19837309432E+02  0.26148367346E+02  0.00000000000E+00 0.  1.
          5    1    4    4  501    0  0.61077142790E+02 -0.22244216566E+02 -0.25321880507E+02  0.69884852253E+02  0.41800000000E+01 0.  1.
         -5    1    4    4    0  501 -0.23580202715E+01 -0.12904129168E+03  0.41558866025E+02  0.13565333377E+03  0.41800000000E+01 0.  1.
</event>
<event>
11    1  0.9421296E-009  0.1607949E+03  0.7561462E-02  0.1086332E+00
         22   -1    0    0    0    0  0.00000000000E+00  0.00000000000E+00  0.24054224303E+03  0.24054224303E+03  0.00000000000E+00 0.  1.
         22   -1    0    0    0    0 -0.00000000000E+00 -0.00000000000E+00 -0.69132423165E+03  0.69132423165E+03  0.00000000000E+00 0.  1.
        -24    2    1    2    0    0 -0.77341106687E+01 -0.30155091671E+02 -0.41450114491E+03  0.42347433396E+03  0.80933098118E+02 0.  0.
         25    2    1    2    0    0  0.24357246084E+02  0.12749066226E+03 -0.22002908854E+03  0.28444126935E+03  0.12508753537E+03 0.  0.
         24    2    1    2    0    0 -0.16623135416E+02 -0.97335570590E+02  0.18374824483E+03  0.22395087138E+03  0.81486399969E+02 0.  0.
        -11    1    5    5    0    0 -0.99880349910E+01 -0.89880761501E+02  0.19119172973E+03  0.21150080295E+03  0.00000000000E+00 0.  1.
         12    1    5    5    0    0 -0.66351004247E+01 -0.74548090886E+01 -0.74434849065E+01  0.12450068423E+02  0.00000000000E+00 0. -1.
         11    1    3    3    0    0 -0.11014390164E+02  0.17847183773E+02 -0.27710085650E+03  0.27789336701E+03  0.00000000000E+00 0. -1.
        -12    1    3    3    0    0  0.32802794953E+01 -0.48002275443E+02 -0.13740028841E+03  0.14558096695E+03  0.00000000000E+00 0.  1.
          5    1    4    4  501    0  0.25723345724E+02 -0.69697023470E+01 -0.51468400709E+00  0.26981559734E+02  0.41800000000E+01 0.  1.
         -5    1    4    4    0  501 -0.13660996393E+01  0.13446036461E+03 -0.21951440453E+03  0.25745970961E+03  0.41800000000E+01 0.  1.
</event>
<event>
11    1  0.8479398E-009  0.3067247E+03  0.7561462E-02  0.9973847E-01
         22   -1    0    0    0    0  0.00000000000E+00  0.00000000000E+00  0.18849562446E+04  0.18849562446E+04  0.00000000000E+00 0.  1.
         22   -1    0    0    0    0 -0.00000000000E+00 -0.00000000000E+00 -0.41981552750E+03  0.41981552750E+03  0.00000000000E+00 0.  1.
         24    2    1    2    0    0  0.72127490725E+02 -0.27232296106E+03 -0.32217040839E+03  0.43549707332E+03  0.80633484324E+02 0.  0.
         25    2    1    2    0    0 -0.10058499805E+03  0.24641142301E+03  0.50863737864E+03  0.58752909677E+03  0.12507008189E+03 0.  0.
        -24    2    1    2    0    0  0.28457507328E+02  0.25911538056E+02  0.12786737468E+04  0.12817456020E+04  0.79899936522E+02 0.  0.
        -11    1    3    3    0    0  0.67280227913E+02 -0.23966336040E+03 -0.23519029760E+03  0.34246113863E+03  0.00000000000E+00 0.  1.
         12    1    3    3    0    0  0.48472628121E+01 -0.32659600665E+02 -0.86980110789E+02  0.93035934699E+02  0.00000000000E+00 0. -1.
         11    1    5    5    0    0  0.62462657051E+01  0.28343162675E+02  0.14628071265E+03  0.14913214810E+03  0.00000000000E+00 0. -1.
        -12    1    5    5    0    0  0.22211241623E+02 -0.24316246193E+01  0.11323930342E+04  0.11326134539E+04  0.00000000000E+00 0.  1.
          5    1    4    4  501    0 -0.10893631883E+03  0.10192765198E+03  0.25316969938E+03  0.29388558468E+03  0.41800000000E+01 0.  1.
         -5    1    4    4    0  501  0.83513207746E+01  0.14448377103E+03  0.25546767926E+03  0.29364351210E+03  0.41800000000E+01 0.  1.
</event>
<event>
11    1  0.8479398E-009  0.1509873E+03  0.7561462E-02  0.1095874E+00
         22   -1    0    0    0    0  0.00000000000E+00  0.00000000000E+00  0.65108433720E+03  0.65108433720E+03  0.00000000000E+00 0.  1.
         22   -1    0    0    0    0 -0.00000000000E+00 -0.00000000000E+00 -0.26082267950E+03  0.26082267950E+03  0.00000000000E+00 0.  1.
         24    2    1    2    0    0 -0.71109242044E+02 -0.41053123677E+02 -0.20526566878E+03  0.23445248671E+03  0.78051844814E+02 0.  0.
         25    2    1    2    0    0  0.99415769467E+02  0.61367013125E+02  0.15427400167E+03  0.23042917531E+03  0.12509089385E+03 0.  0.
        -24    2    1    2    0    0 -0.28306527424E+02 -0.20313889448E+02  0.44125332481E+03  0.44702535468E+03  0.62556034654E+02 0.  0.
        -11    1    3    3    0    0  0.51711797985E+01 -0.32209637908E+02 -0.91973184038E+02  0.97587235112E+02  0.00000000000E+00 0.  1.
         12    1    3    3    0    0 -0.76280421842E+02 -0.88434857689E+01 -0.11329248474E+03  0.13686525160E+03  0.00000000000E+00 0. -1.
         11    1    5    5    0    0 -0.17191479951E+02 -0.29639704043E+02  0.10479804192E+03  0.11025737448E+03  0.00000000000E+00 0. -1.
        -12    1    5    5    0    0 -0.11115047473E+02  0.93258145951E+01  0.33645528289E+03  0.33676798019E+03  0.00000000000E+00 0.  1.
          5    1    4    4  501    0  0.10329665953E+03  0.39989564044E+02  0.17023875033E+03  0.20314543956E+03  0.41800000000E+01 0. -1.
         -5    1    4    4    0  501 -0.38808900593E+01  0.21377449081E+02 -0.15964748654E+02  0.27283735749E+02  0.41800000000E+01 0. -1.
</event>
<event>
11    1  0.8479398E-009  0.1279347E+03  0.7561462E-02  0.1121833E+00
         22   -1    0    0    0    0  0.00000000000E+00  0.00000000000E+00  0.13188192746E+04  0.13188192746E+04  0.00000000000E+00 0.  1.
         22   -1    0    0    0    0 -0.00000000000E+00 -0.00000000000E+00 -0.43628630318E+03  0.43628630318E+03  0.00000000000E+00 0. -1.
        -24    2    1    2    0    0 -0.16481747949E+02  0.22023220582E+02 -0.37794669749E+03  0.38733363993E+03  0.80168399117E+02 0.  0.
         25    2    1    2    0    0 -0.67560424899E+01 -0.24165535607E+02  0.24674657754E+02  0.12994513756E+03  0.12508909952E+03 0.  0.
         24    2    1    2    0    0  0.23237790439E+02  0.21423150245E+01  0.12358050111E+04  0.12378268002E+04  0.66757602327E+02 0.  0.
        -11    1    5    5    0    0 -0.79814367374E+01  0.24105414077E+02  0.78436807009E+03  0.78477897761E+03  0.00000000000E+00 0.  1.
         12    1    5    5    0    0  0.31219227177E+02 -0.21963099053E+02  0.45143694104E+03  0.45304782264E+03  0.00000000000E+00 0. -1.
         13    1    3    3    0    0  0.11044551627E+02 -0.26209177119E+02 -0.15397437234E+03  0.15657908680E+03  0.00000000000E+00 0. -1.
        -14    1    3    3    0    0 -0.27526299577E+02  0.48232397701E+02 -0.22397232515E+03  0.23075455313E+03  0.00000000000E+00 0.  1.
          5    1    4    4  501    0  0.77827403913E+01 -0.61842390095E+02  0.51770143837E+02  0.81133670283E+02  0.41800000000E+01 0. -1.
         -5    1    4    4    0  501 -0.14538782881E+02  0.37676854488E+02 -0.27095486083E+02  0.48811467279E+02  0.41800000000E+01 0. -1.
</event>
<event>
11    1  0.8479398E-009  0.1360119E+03  0.7561462E-02  0.1112095E+00
         22   -1    0    0    0    0  0.00000000000E+00  0.00000000000E+00  0.23861900378E+03  0.23861900378E+03  0.00000000000E+00 0.  1.
         22   -1    0    0    0    0 -0.00000000000E+00 -0.00000000000E+00 -0.13116666940E+04  0.13116666940E+04  0.00000000000E+00 0. -1.
         24    2    1    2    0    0 -0.54711558823E+02 -0.91367268087E+01 -0.11985430997E+04  0.12025045390E+04  0.80217018703E+02 0.  0.
         25    2    1    2    0    0  0.11940111370E+02  0.38800321871E+01 -0.61437536739E+02  0.13992780720E+03  0.12509036493E+03 0.  0.
        -24    2    1    2    0    0  0.42771447453E+02  0.52566946216E+01  0.18693294626E+03  0.20785335151E+03  0.80012872602E+02 0.  0.
        -13    1    3    3    0    0 -0.64379194758E+01 -0.30652627558E+02 -0.18890001602E+03  0.19147910183E+03  0.00000000000E+00 0.  1.
         14    1    3    3    0    0 -0.48273639347E+02  0.21515900749E+02 -0.10096430837E+04  0.10110254372E+04  0.00000000000E+00 0. -1.
         11    1    5    5    0    0 -0.30711083849E+01  0.32011947844E+01 -0.71526774040E+01  0.84166590049E+01  0.00000000000E+00 0. -1.
        -12    1    5    5    0    0  0.45842555838E+02  0.20554998372E+01  0.19408562367E+03  0.19943669251E+03  0.00000000000E+00 0.  1.
          5    1    4    4  501    0 -0.39829530707E+02  0.43841464910E+02 -0.37129589048E+02  0.70032452083E+02  0.41800000000E+01 0. -1.
         -5    1    4    4    0  501  0.51769642078E+02 -0.39961432723E+02 -0.24307947692E+02  0.69895355118E+02  0.41800000000E+01 0. -1.
</event>
<event>
11    1  0.8479398E-009  0.2284527E+03  0.7561462E-02  0.1036048E+00
         22   -1    0    0    0    0  0.00000000000E+00  0.00000000000E+00  0.74427648914E+03  0.74427648914E+03  0.00000000000E+00 0.  1.
         22   -1    0    0    0    0 -0.00000000000E+00 -0.00000000000E+00 -0.32296945706E+03  0.32296945706E+03  0.00000000000E+00 0. -1.
         24    2    1    2    0    0  0.54329096742E+02 -0.10524313286E+03 -0.22277592742E+03  0.26551332045E+03  0.82706963005E+02 0.  0.
         25    2    1    2    0    0  0.10181358240E+02  0.25761691538E+03  0.32391757100E+03  0.43248181846E+03  0.12509114816E+03 0.  0.
        -24    2    1    2    0    0 -0.64510454982E+02 -0.15237378251E+03  0.32016538850E+03  0.36925080729E+03  0.80379812710E+02 0.  0.
        -11    1    3    3    0    0  0.11977623698E+01  0.13907527873E+02 -0.19750837269E+02  0.24185730071E+02  0.00000000000E+00 0.  1.
         12    1    3    3    0    0  0.53131334372E+02 -0.11915066074E+03 -0.20302509015E+03  0.24132759038E+03  0.00000000000E+00 0. -1.
         13    1    5    5    0    0 -0.16389795112E+02 -0.98192888461E+00  0.77453401137E+02  0.79174610298E+02  0.00000000000E+00 0. -1.
        -14    1    5    5    0    0 -0.48120659870E+02 -0.15139185363E+03  0.24271198737E+03  0.29007619700E+03  0.00000000000E+00 0.  1.
          5    1    4    4  501    0  0.43445057341E+02  0.23306742915E+03  0.30628039296E+03  0.38734100099E+03  0.41800000000E+01 0.  1.
         -5    1    4    4    0  501 -0.33263699101E+02  0.24549486231E+02  0.17637178035E+02  0.45140817462E+02  0.41800000000E+01 0.  1.
</event>
<event>
11    1  0.8479398E-009  0.2360398E+03  0.7561462E-02  0.1031610E+00
         22   -1    0    0    0    0  0.00000000000E+00  0.00000000000E+00  0.78481367569E+03  0.78481367569E+03  0.00000000000E+00 0.  1.
         22   -1    0    0    0    0 -0.00000000000E+00 -0.00000000000E+00 -0.17873076246E+03  0.17873076246E+03  0.00000000000E+00 0. -1.
         24    2    1    2    0    0 -0.39137689522E+02  0.46245322612E+02 -0.20993211570E+02  0.10333830818E+03  0.81041362280E+02 0.  0.
         25    2    1    2    0    0  0.53392733077E+02 -0.23749629608E+03  0.96527942791E+02  0.29020731885E+03  0.12508944630E+03 0.  0.
        -24    2    1    2    0    0 -0.14255043554E+02  0.19125097347E+03  0.53054818201E+03  0.56999881113E+03  0.81468583779E+02 0.  0.
        -13    1    3    3    0    0 -0.55096038407E+02  0.30170197917E+02  0.11369257836E+02  0.63836308745E+02  0.00000000000E+00 0.  1.
         14    1    3    3    0    0  0.15958348884E+02  0.16075124694E+02 -0.32362469406E+02  0.39501999432E+02  0.00000000000E+00 0. -1.
         13    1    5    5    0    0 -0.25727031559E+02  0.21717115977E+02  0.49872507389E+02  0.60172919760E+02  0.00000000000E+00 0. -1.
        -14    1    5    5    0    0  0.11471988005E+02  0.16953385749E+03  0.48067567462E+03  0.50982589137E+03  0.00000000000E+00 0.  1.
          5    1    4    4  501    0 -0.40168505508E+02 -0.55359923867E+02  0.17865075492E+02  0.70815699725E+02  0.41800000000E+01 0.  1.
         -5    1    4    4    0  501  0.93561238584E+02 -0.18213637221E+03  0.78662867300E+02  0.21939161912E+03  0.41800000000E+01 0.  1.
</event>
<event>
11    1  0.8479398E-009  0.3548847E+03  0.7561462E-02  0.9793134E-01
         22   -1    0    0    0    0  0.00000000000E+00  0.00000000000E+00  0.16282289035E+04  0.16282289035E+04  0.00000000000E+00 0.  1.
         22   -1    0    0    0    0 -0.00000000000E+00 -0.00000000000E+00 -0.94565148699E+03  0.94565148699E+03  0.00000000000E+00 0. -1.
        -24    2    1    2    0    0 -0.30244843205E+03 -0.13820625259E+03 -0.87861070148E+03  0.94289764046E+03  0.80766164395E+02 0.  0.
         25    2    1    2    0    0  0.31585709641E+03  0.75682402499E+02  0.96968888203E+03  0.10302615326E+04  0.12509502855E+03 0.  0.
         24    2    1    2    0    0 -0.13408664356E+02  0.62523850093E+02  0.59149923597E+03  0.60072121746E+03  0.83100005062E+02 0.  0.
        -13    1    5    5    0    0  0.16051824009E+02 -0.11490660901E+02  0.21397398929E+03  0.21488267597E+03  0.00000000000E+00 0.  1.
         14    1    5    5    0    0 -0.29460488365E+02  0.74014510994E+02  0.37752524668E+03  0.38583854148E+03  0.00000000000E+00 0. -1.
         11    1    3    3    0    0 -0.18334663394E+03 -0.58096183479E+02 -0.59012326467E+03  0.62067432863E+03  0.00000000000E+00 0. -1.
        -12    1    3    3    0    0 -0.11910179811E+03 -0.80110069114E+02 -0.28848743681E+03  0.32222331183E+03  0.00000000000E+00 0.  1.
          5    1    4    4  501    0  0.10063366444E+03 -0.32931038116E+02  0.26160902085E+03  0.28225580575E+03  0.41800000000E+01 0. -1.
         -5    1    4    4    0  501  0.21522343197E+03  0.10861344062E+03  0.70807986117E+03  0.74800572682E+03  0.41800000000E+01 0. -1.
</event>
<event>
11    1  0.8479398E-009  0.1793570E+03  0.7561462E-02  0.1070164E+00
         22   -1    0    0    0    0  0.00000000000E+00  0.00000000000E+00  0.20196359902E+04  0.20196359902E+04  0.00000000000E+00 0.  1.
         22   -1    0    0    0    0 -0.00000000000E+00 -0.00000000000E+00 -0.40750722351E+03  0.40750722351E+03  0.00000000000E+00 0.  1.
        -24    2    1    2    0    0  0.22807594939E+02  0.21489929010E+02 -0.32862421997E+03  0.33969516568E+03  0.80105706423E+02 0.  0.
         25    2    1    2    0    0 -0.14303867603E+03  0.22259897700E+02  0.59872495062E+02  0.20046986289E+03  0.12509150401E+03 0.  0.
         24    2    1    2    0    0  0.12023108109E+03 -0.43749826711E+02  0.18808804916E+04  0.18869781851E+04  0.81275379392E+02 0.  0.
        -13    1    5    5    0    0  0.12277667141E+03 -0.40612019551E+02  0.18767496478E+04  0.18811998000E+04  0.00000000000E+00 0.  1.
         14    1    5    5    0    0 -0.25455903141E+01 -0.31378071594E+01  0.41308438233E+01  0.57783851125E+01  0.00000000000E+00 0. -1.
         11    1    3    3    0    0  0.99808740425E+01  0.21471860108E+02 -0.20544679883E+02  0.31348723972E+02  0.00000000000E+00 0. -1.
        -12    1    3    3    0    0  0.12826720897E+02  0.18068901975E-01 -0.30807954009E+03  0.30834644171E+03  0.00000000000E+00 0.  1.
          5    1    4    4  501    0  0.10891094542E+02  0.33936042063E+02  0.34252563250E+01  0.36048240902E+02  0.41800000000E+01 0. -1.
         -5    1    4    4    0  501 -0.15392977057E+03 -0.11676144362E+02  0.56447238737E+02  0.16442162199E+03  0.41800000000E+01 0. -1.
</event>
<event>
11    1  0.8479398E-009  0.1655757E+03  0.7561462E-02  0.1081947E+00
         22   -1    0    0    0    0  0.00000000000E+00  0.00000000000E+00  0.12869400255E+03  0.12869400255E+03  0.00000000000E+00 0.  1.
         22   -1    0    0    0    0 -0.00000000000E+00 -0.00000000000E+00 -0.16995671658E+04  0.16995671658E+04  0.00000000000E+00 0. -1.
         24    2    1    2    0    0 -0.36209271367E+02  0.52370482273E+02 -0.13007202661E+04  0.13055849366E+04  0.92871078940E+02 0.  0.
         25    2    1    2    0    0 -0.69980127470E+02 -0.10277827130E+02 -0.33827063674E+03  0.36752753427E+03  0.12508642131E+03 0.  0.
        -24    2    1    2    0    0  0.10618939884E+03 -0.42092655143E+02  0.68117739607E+02  0.15514869746E+03  0.79894379223E+02 0.  0.
        -13    1    3    3    0    0 -0.40187848936E+02  0.16200362219E+02 -0.21860012214E+03  0.22285315420E+03  0.00000000000E+00 0.  1.
         14    1    3    3    0    0  0.39785775685E+01  0.36170120054E+02 -0.10821201440E+04  0.10827317824E+04  0.00000000000E+00 0. -1.
         11    1    5    5    0    0  0.12767468472E+02 -0.45345853894E+01 -0.18086807524E+02  0.22598746033E+02  0.00000000000E+00 0. -1.
        -12    1    5    5    0    0  0.93421930365E+02 -0.37558069754E+02  0.86204547131E+02  0.13254995143E+03  0.00000000000E+00 0.  1.
          5    1    4    4  501    0 -0.19829123725E+02  0.55223275799E+02 -0.10948045371E+03  0.12428292916E+03  0.41800000000E+01 0.  1.
         -5    1    4    4    0  501 -0.50151003745E+02 -0.65501102928E+02 -0.22879018303E+03  0.24324460511E+03  0.41800000000E+01 0.  1.
</event>
<event>
11    1  0.8479398E-009  0.1351553E+03  0.7561462E-02  0.1113092E+00
         22   -1    0    0    0    0  0.00000000000E+00  0.00000000000E+00  0.21782937850E+04  0.21782937850E+04  0.00000000000E+00 0. -1.
         22   -1    0    0    0    0 -0.00000000000E+00 -0.00000000000E+00 -0.14533293316E+04  0.14533293316E+04  0.00000000000E+00 0. -1.
        -24    2    1    2    0    0 -0.86624204681E+01  0.27683283380E+01 -0.14087887233E+04  0.14107691605E+04  0.74170452756E+02 0.  0.
         25    2    1    2    0    0 -0.40001355448E+02  0.13761583920E+02  0.60236355555E+02  0.14514456020E+03  0.12509610384E+03 0.  0.
         24    2    1    2    0    0  0.48663775916E+02 -0.16529912258E+02  0.20735168212E+04  0.20757093959E+04  0.80349779713E+02 0.  0.
        -13    1    5    5    0    0  0.26481687992E+02  0.15594302086E+02  0.26574478467E+03  0.26751589231E+03  0.00000000000E+00 0.  1.
         14    1    5    5    0    0  0.22182087924E+02 -0.32124214344E+02  0.18077720365E+04  0.18081935036E+04  0.00000000000E+00 0. -1.
         13    1    3    3    0    0 -0.14011123267E+02  0.35798870214E+02 -0.94117726619E+03  0.94196205713E+03  0.00000000000E+00 0. -1.
        -14    1    3    3    0    0  0.53487027984E+01 -0.33030541876E+02 -0.46761145713E+03  0.46880710336E+03  0.00000000000E+00 0.  1.
          5    1    4    4  501    0  0.20358352671E+02 -0.42838263078E+02  0.11356457076E+02  0.48949165716E+02  0.41800000000E+01 0.  1.
         -5    1    4    4    0  501 -0.60359708120E+02  0.56599846998E+02  0.48879898478E+02  0.96195394483E+02  0.41800000000E+01 0.  1.
</event>
<event>
11    1  0.8479398E-009  0.1363975E+03  0.7561462E-02  0.1111649E+00
         22   -1    0    0    0    0  0.00000000000E+00  0.00000000000E+00  0.33081191607E+02  0.33081191607E+02  0.00000000000E+00 0. -1.
         22   -1    0    0    0    0 -0.00000000000E+00 -0.00000000000E+00 -0.28029094524E+04  0.28029094524E+04  0.00000000000E+00 0.  1.
         24    2    1    2    0    0  0.19178896339E+02 -0.51233002565E+02 -0.24364125360E+04  0.24383524541E+04  0.80398969448E+02 0.  0.
         25    2    1    2    0    0 -0.21294965939E+02  0.44364917815E+02 -0.22248804992E+03  0.25993232764E+03  0.12506862551E+03 0.  0.
        -24    2    1    2    0    0  0.21160696003E+01  0.68680847503E+01 -0.11092767491E+03  0.13770586230E+03  0.81279192359E+02 0.  0.
        -13    1    3    3    0    0  0.33104019059E+02 -0.67891891943E+02 -0.18902487735E+04  0.18917572812E+04  0.00000000000E+00 0.  1.
         14    1    3    3    0    0 -0.13925122721E+02  0.16658889378E+02 -0.54616376246E+03  0.54659517293E+03  0.00000000000E+00 0. -1.
         13    1    5    5    0    0  0.15462044396E+02  0.39232446150E+02 -0.37803489955E+02  0.56633589862E+02  0.00000000000E+00 0. -1.
        -14    1    5    5    0    0 -0.13345974795E+02 -0.32364361400E+02 -0.73124184957E+02  0.81072272435E+02  0.00000000000E+00 0.  1.
          5    1    4    4  501    0 -0.30727923074E+02 -0.39266070151E+02 -0.78040148681E+02  0.92702571311E+02  0.41800000000E+01 0.  1.
         -5    1    4    4    0  501  0.94329571355E+01  0.83630987965E+02 -0.14444790124E+03  0.16722975633E+03  0.41800000000E+01 0.  1.
</event>
<event>
11    1  0.8479398E-009  0.1441259E+03  0.7561462E-02  0.1103037E+00
         22   -1    0    0    0    0  0.00000000000E+00  0.00000000000E+00  0.64518715966E+03  0.64518715966E+03  0.00000000000E+00 0. -1.
         22   -1    0    0    0    0 -0.00000000000E+00 -0.00000000000E+00 -0.92476970273E+03  0.92476970273E+03  0.00000000000E+00 0. -1.
         24    2    1    2    0    0 -0.36892210007E+02 -0.62783863232E+02 -0.88510480753E+03  0.89172365574E+03  0.80359873331E+02 0.  0.
         25    2    1    2    0    0  0.91628733101E+01  0.22792930527E+02  0.94552056681E+02  0.15871819480E+03  0.12509155850E+03 0.  0.
        -24    2    1    2    0    0  0.27729336696E+02  0.39990932705E+02  0.51097020778E+03  0.51951501186E+03  0.80231561690E+02 0.  0.
        -11    1    3    3    0    0 -0.11584210666E+02 -0.32119918202E+02 -0.10107986663E+03  0.10669124856E+03  0.00000000000E+00 0.  1.
         12    1    3    3    0    0 -0.25307999340E+02 -0.30663945031E+02 -0.78402494090E+03  0.78503240717E+03  0.00000000000E+00 0. -1.
         11    1    5    5    0    0  0.36339461208E+02  0.60876919324E+02  0.40566154561E+03  0.41181044831E+03  0.00000000000E+00 0. -1.
        -12    1    5    5    0    0 -0.86101245113E+01 -0.20885986619E+02  0.10530866217E+03  0.10770456355E+03  0.00000000000E+00 0.  1.
          5    1    4    4  501    0 -0.55579011442E+02 -0.42452481969E+01  0.30770951958E+02  0.63807307807E+02  0.41800000000E+01 0. -1.
         -5    1    4    4    0  501  0.64741884752E+02  0.27038178724E+02  0.63781104724E+02  0.94910886993E+02  0.41800000000E+01 0. -1.
</event>
<event>
11    1  0.8479398E-009  0.1292504E+03  0.7561462E-02  0.1120193E+00
         22   -1    0    0    0    0  0.00000000000E+00  0.00000000000E+00  0.79428463567E+03  0.79428463567E+03  0.00000000000E+00 0.  1.
         22   -1    0    0    0    0 -0.00000000000E+00 -0.00000000000E+00 -0.54520454065E+03  0.54520454065E+03  0.00000000000E+00 0. -1.
         24    2    1    2    0    0  0.25447359001E+01  0.19707600668E+02 -0.47296719009E+03  0.48016268208E+03  0.80395106557E+02 0.  0.
         25    2    1    2    0    0 -0.16786033244E+02 -0.48171084789E+02  0.30522882355E+01  0.13512341385E+03  0.12508715435E+03 0.  0.
        -24    2    1    2    0    0  0.14241297343E+02  0.28463484121E+02  0.71899499688E+03  0.72420308039E+03  0.80643112769E+02 0.  0.
        -13    1    3    3    0    0  0.28776346575E+00  0.42696011569E+02 -0.13929450351E+03  0.14569142363E+03  0.00000000000E+00 0.  1.
         14    1    3    3    0    0  0.22569724343E+01 -0.22988410901E+02 -0.33367268658E+03  0.33447125845E+03  0.00000000000E+00 0. -1.
         13    1    5    5    0    0  0.14100060243E+02 -0.11175077274E+02  0.37878923974E+02  0.41934555350E+02  0.00000000000E+00 0. -1.
        -14    1    5    5    0    0  0.14123710094E+00  0.39638561394E+02  0.68111607290E+03  0.68226852504E+03  0.00000000000E+00 0.  1.
          5    1    4    4  501    0  0.51299647395E+02 -0.25901706050E+02  0.20705387647E+02  0.61226935876E+02  0.41800000000E+01 0.  1.
         -5    1    4    4    0  501 -0.68085680638E+02 -0.22269378739E+02 -0.17653099412E+02  0.73896477969E+02  0.41800000000E+01 0.  1.
</event>
<event>
11    1  0.8479398E-009  0.1398206E+03  0.7561462E-02  0.1107759E+00
         22   -1    0    0    0    0  0.00000000000E+00  0.00000000000E+00  0.37185055598E+03  0.37185055598E+03  0.00000000000E+00 0. -1.
         22   -1    0    0    0    0 -0.00000000000E+00 -0.00000000000E+00 -0.22906036576E+04  0.22906036576E+04  0.00000000000E+00 0. -1.
         24    2    1    2    0    0 -0.29053496420E+02  0.85307249216E+01 -0.12729764693E+04  0.12758535789E+04  0.80102338845E+02 0.  0.
         25    2    1    2    0    0  0.94056638187E+01  0.50896968682E+02 -0.10045728288E+04  0.10136530966E+04  0.12508822465E+03 0.  0.
        -24    2    1    2    0    0  0.19647832602E+02 -0.59427693604E+02  0.35879619643E+03  0.37294753804E+03  0.80233829913E+02 0.  0.
        -13    1    3    3    0    0 -0.78699695948E+01  0.41047650041E+02 -0.44208580988E+03  0.44405710139E+03  0.00000000000E+00 0.  1.
         14    1    3    3    0    0 -0.21183526826E+02 -0.32516925119E+02 -0.83089065939E+03  0.83179647756E+03  0.00000000000E+00 0. -1.
         13    1    5    5    0    0  0.29999540510E+02 -0.75375997289E+02  0.31341136192E+03  0.32374093837E+03  0.00000000000E+00 0. -1.
        -14    1    5    5    0    0 -0.10351707908E+02  0.15948303685E+02  0.45384834513E+02  0.49206599668E+02  0.00000000000E+00 0.  1.
          5    1    4    4  501    0  0.51194895140E+02 -0.20623611639E+01 -0.20959566212E+03  0.21580774917E+03  0.41800000000E+01 0. -1.
         -5    1    4    4    0  501 -0.41789231321E+02  0.52959329846E+02 -0.79497716664E+03  0.79784534739E+03  0.41800000000E+01 0. -1.
</event>
<event>
11    1  0.8479398E-009  0.1476760E+03  0.7561462E-02  0.1099277E+00
         22   -1    0    0    0    0  0.00000000000E+00  0.00000000000E+00  0.35988490752E+03  0.35988490752E+03  0.00000000000E+00 0.  1.
         22   -1    0    0    0    0 -0.00000000000E+00 -0.00000000000E+00 -0.53858415471E+03  0.53858415471E+03  0.00000000000E+00 0. -1.
         24    2    1    2    0    0 -0.32886795865E+02 -0.34057655972E+00 -0.36745615113E+03  0.37680706947E+03  0.76667380705E+02 0.  0.
         25    2    1    2    0    0  0.87138596824E+02  0.55078113574E+02 -0.11439676663E+03  0.19839428918E+03  0.12508772966E+03 0.  0.
        -24    2    1    2    0    0 -0.54251800959E+02 -0.54737537014E+02  0.30315367057E+03  0.32326770358E+03  0.81611300271E+02 0.  0.
        -13    1    3    3    0    0  0.79913343011E+01  0.94914585231E+01 -0.77005404683E+01  0.14602997374E+02  0.00000000000E+00 0.  1.
         14    1    3    3    0    0 -0.40878130166E+02 -0.98320350828E+01 -0.35975561066E+03  0.36220407210E+03  0.00000000000E+00 0. -1.
         13    1    5    5    0    0 -0.56018237303E+01  0.30615369060E+01  0.17042291075E+03  0.17054243444E+03  0.00000000000E+00 0. -1.
        -14    1    5    5    0    0 -0.48649977229E+02 -0.57799073920E+02  0.13273075982E+03  0.15272526914E+03  0.00000000000E+00 0.  1.
          5    1    4    4  501    0  0.23426098267E+02 -0.38003499107E+02 -0.54619806132E+02  0.70667132716E+02  0.41800000000E+01 0.  1.
         -5    1    4    4    0  501  0.63712498558E+02  0.93081612681E+02 -0.59776960497E+02  0.12772715646E+03  0.41800000000E+01 0.  1.
</event>
<event>
11    1  0.8479398E-009  0.1603838E+03  0.7561462E-02  0.1086717E+00
         22   -1    0    0    0    0  0.00000000000E+00  0.00000000000E+00  0.38924454711E+03  0.38924454711E+03  0.00000000000E+00 0.  1.
         22   -1    0    0    0    0 -0.00000000000E+00 -0.00000000000E+00 -0.69709426064E+03  0.69709426064E+03  0.00000000000E+00 0.  1.
         24    2    1    2    0    0 -0.71376693608E+02 -0.28203069036E+02 -0.61001543634E+03  0.62006296701E+03  0.80431368179E+02 0.  0.
         25    2    1    2    0    0  0.15422543240E+03  0.51669796472E+02  0.91001834618E+02  0.22446270140E+03  0.12508764348E+03 0.  0.
        -24    2    1    2    0    0 -0.82848738787E+02 -0.23466727436E+02  0.21116388820E+03  0.24181313934E+03  0.80428887001E+02 0.  0.
        -11    1    3    3    0    0 -0.67801110688E+02 -0.49206050757E+02 -0.55073531856E+03  0.55707056748E+03  0.00000000000E+00 0.  1.
         12    1    3    3    0    0 -0.35755829195E+01  0.21002981720E+02 -0.59280117782E+02  0.62992399530E+02  0.00000000000E+00 0. -1.
         13    1    5    5    0    0 -0.25373684044E+02 -0.35792494985E+02  0.35071694174E+02  0.56168944012E+02  0.00000000000E+00 0. -1.
        -14    1    5    5    0    0 -0.57475054743E+02  0.12325767549E+02  0.17609219403E+03  0.18564419533E+03  0.00000000000E+00 0.  1.
          5    1    4    4  501    0  0.13071834744E+03  0.24250366182E+02  0.73105554539E+01  0.13321517645E+03  0.41800000000E+01 0. -1.
         -5    1    4    4    0  501  0.23507084959E+02  0.27419430290E+02  0.83691279164E+02  0.91247524946E+02  0.41800000000E+01 0. -1.
</event>
<event>
11    1  0.8479398E-009  0.1858080E+03  0.7561462E-02  0.1065039E+00
         22   -1    0    0    0    0  0.00000000000E+00  0.00000000000E+00  0.17827317914E+04  0.17827317914E+04  0.00000000000E+00 0.  1.
         22   -1    0    0    0    0 -0.00000000000E+00 -0.00000000000E+00 -0.12382197626E+04  0.12382197626E+04  0.00000000000E+00 0. -1.
         24    2    1    2    0    0 -0.39936852847E+02 -0.27101560853E+02 -0.12104057500E+04  0.12141079186E+04  0.81526140423E+02 0.  0.
         25    2    1    2    0    0 -0.88187263763E+02  0.87495432126E+02  0.34434015132E+03  0.38684617915E+03  0.12508949748E+03 0.  0.
        -24    2    1    2    0    0  0.12812411661E+03 -0.60393871273E+02  0.14105776275E+04  0.14199974562E+04  0.81242374817E+02 0.  0.
        -11    1    3    3    0    0 -0.52851478292E+01 -0.44482774018E+02 -0.35367997319E+03  0.35650550264E+03  0.00000000000E+00 0.  1.
         12    1    3    3    0    0 -0.34651705017E+02  0.17381213165E+02 -0.85672577685E+03  0.85760241601E+03  0.00000000000E+00 0. -1.
         11    1    5    5    0    0  0.48104038891E+02 -0.66210573662E+02  0.62562709109E+03  0.63095728519E+03  0.00000000000E+00 0. -1.
        -12    1    5    5    0    0  0.80020077719E+02  0.58167023887E+01  0.78495053638E+03  0.78904017099E+03  0.00000000000E+00 0.  1.
          5    1    4    4  501    0 -0.83861137638E+02  0.10838471092E+03  0.21023350450E+03  0.25098911288E+03  0.41800000000E+01 0. -1.
         -5    1    4    4    0  501 -0.43261261249E+01 -0.20889278798E+02  0.13410664682E+03  0.13585706627E+03  0.41800000000E+01 0. -1.
</event>
<event>
11    1  0.8479398E-009  0.1484234E+03  0.7561462E-02  0.1098501E+00
         22   -1    0    0    0    0  0.00000000000E+00  0.00000000000E+00  0.69469962116E+03  0.69469962116E+03  0.00000000000E+00 0.  1.
         22   -1    0    0    0    0 -0.00000000000E+00 -0.00000000000E+00 -0.49066744307E+03  0.49066744307E+03  0.00000000000E+00 0. -1.
         24    2    1    2    0    0  0.59091201047E+02 -0.53172018000E+02 -0.38648234653E+03  0.40267995033E+03  0.80395924555E+02 0.  0.
         25    2    1    2    0    0 -0.78509312260E+02  0.36006579758E+02 -0.31377795678E+02  0.15521580720E+03  0.12508874787E+03 0.  0.
        -24    2    1    2    0    0  0.19418111213E+02  0.17165438242E+02  0.62189232030E+03  0.62747130670E+03  0.79362884138E+02 0.  0.
        -11    1    3    3    0    0 -0.41482847882E+01  0.16736401873E+02 -0.87710188793E+02  0.89388996148E+02  0.00000000000E+00 0.  1.
         12    1    3    3    0    0  0.63239485835E+02 -0.69908419873E+02 -0.29877215773E+03  0.31329095419E+03  0.00000000000E+00 0. -1.
         13    1    5    5    0    0  0.32038564532E+02 -0.39896863160E+01  0.10182607146E+03  0.10682198296E+03  0.00000000000E+00 0. -1.
        -14    1    5    5    0    0 -0.12620453319E+02  0.21155124558E+02  0.52006624883E+03  0.52064932374E+03  0.00000000000E+00 0.  1.
          5    1    4    4  501    0 -0.94008168316E+02 -0.17190206642E+02 -0.27411935102E+02  0.99508419244E+02  0.41800000000E+01 0.  1.
         -5    1    4    4    0  501  0.15498856055E+02  0.53196786400E+02 -0.39658605758E+01  0.55707387952E+02  0.41800000000E+01 0.  1.
</event>
<event>
11    1  0.8479398E-009  0.3172545E+03  0.7561462E-02  0.9931421E-01
         22   -1    0    0    0    0  0.00000000000E+00  0.00000000000E+00  0.25865692038E+03  0.25865692038E+03  0.00000000000E+00 0.  1.
         22   -1    0    0    0    0 -0.00000000000E+00 -0.00000000000E+00 -0.28115357875E+03  0.28115357875E+03  0.00000000000E+00 0.  1.
         24    2    1    2    0    0 -0.15251757938E+03 -0.11081178435E+03 -0.74864955180E+02  0.21826287547E+03  0.80579511819E+02 0.  0.
         25    2    1    2    0    0  0.33772861845E+02  0.81634032331E+01 -0.14151069466E+02  0.13060480299E+03  0.12510041745E+03 0.  0.
        -24    2    1    2    0    0  0.11874471753E+03  0.10264838112E+03  0.66519366275E+02  0.19094282067E+03  0.86007770521E+02 0.  0.
        -11    1    3    3    0    0 -0.14687978564E+03 -0.87404695878E+02 -0.39406270697E+02  0.17540269798E+03  0.00000000000E+00 0.  1.
         12    1    3    3    0    0 -0.56377937427E+01 -0.23407088471E+02 -0.35458684484E+02  0.42860177488E+02  0.00000000000E+00 0. -1.
         13    1    5    5    0    0  0.44581067407E+02 -0.56029662384E+01  0.26632807667E+01  0.45010641700E+02  0.00000000000E+00 0. -1.
        -14    1    5    5    0    0  0.74163650126E+02  0.10825134735E+03  0.63856085508E+02  0.14593217897E+03  0.00000000000E+00 0.  1.
          5    1    4    4  501    0  0.38716930840E+02 -0.36060456361E+02 -0.50298603258E+02  0.73121673506E+02  0.41800000000E+01 0. -1.
         -5    1    4    4    0  501 -0.49440689950E+01  0.44223859594E+02  0.36147533792E+02  0.57483129480E+02  0.41800000000E+01 0. -1.
</event>
<event>
11    1  0.8479398E-009  0.2750248E+03  0.7561462E-02  0.1011353E+00
         22   -1    0    0    0    0  0.00000000000E+00  0.00000000000E+00  0.17950835017E+04  0.17950835017E+04  0.00000000000E+00 0. -1.
         22   -1    0    0    0    0 -0.00000000000E+00 -0.00000000000E+00 -0.16689743033E+03  0.16689743033E+03  0.00000000000E+00 0.  1.
        -24    2    1    2    0    0  0.40078794097E+01 -0.42185099639E+02 -0.67314855955E+02  0.11258523174E+03  0.79677467605E+02 0.  0.
         25    2    1    2    0    0 -0.16597191753E+03  0.21924249036E+03  0.28149545893E+03  0.41291818814E+03  0.12509112566E+03 0.  0.
         24    2    1    2    0    0  0.16196403812E+03 -0.17705739072E+03  0.14140054684E+04  0.14364775122E+04  0.80464333771E+02 0.  0.
        -11    1    5    5    0    0 -0.74723920650E+01 -0.20801958154E+02  0.10037646660E+03  0.10278128795E+03  0.00000000000E+00 0.  1.
         12    1    5    5    0    0  0.16943643018E+03 -0.15625543256E+03  0.13136290018E+04  0.13336962242E+04  0.00000000000E+00 0. -1.
         13    1    3    3    0    0  0.27393580771E+02 -0.54718105699E+02 -0.34025223868E+02  0.70015678373E+02  0.00000000000E+00 0. -1.
        -14    1    3    3    0    0 -0.23385701362E+02  0.12533006060E+02 -0.33289632087E+02  0.42569553364E+02  0.00000000000E+00 0.  1.
          5    1    4    4  501    0 -0.68788818865E+02  0.18750385611E+03  0.18471622341E+03  0.27207931426E+03  0.41800000000E+01 0.  1.
         -5    1    4    4    0  501 -0.97183098660E+02  0.31738634242E+02  0.96779235519E+02  0.14083887388E+03  0.41800000000E+01 0.  1.
</event>
<event>
11    1  0.8479398E-009  0.1597495E+03  0.7561462E-02  0.1087313E+00
         22   -1    0    0    0    0  0.00000000000E+00  0.00000000000E+00  0.11237462906E+04  0.11237462906E+04  0.00000000000E+00 0.  1.
         22   -1    0    0    0    0 -0.00000000000E+00 -0.00000000000E+00 -0.32090140896E+03  0.32090140896E+03  0.00000000000E+00 0. -1.
         24    2    1    2    0    0  0.65787403387E+01 -0.10267242948E+03 -0.28634155498E+03  0.31429980027E+03  0.78790676750E+02 0.  0.
         25    2    1    2    0    0  0.12555921315E+02  0.37450160320E+02  0.23085506288E+03  0.26552523919E+03  0.12509766952E+03 0.  0.
        -24    2    1    2    0    0 -0.19134661653E+02  0.65222269160E+02  0.85833137379E+03  0.86482266014E+03  0.81027196608E+02 0.  0.
        -13    1    3    3    0    0 -0.79741925328E+01 -0.14835299605E+02 -0.27567442607E+01  0.17066736649E+02  0.00000000000E+00 0.  1.
         14    1    3    3    0    0  0.14552932872E+02 -0.87837129874E+02 -0.28358481072E+03  0.29723306363E+03  0.00000000000E+00 0. -1.
         13    1    5    5    0    0 -0.14881041776E+02  0.34564900631E+02  0.11823508176E+03  0.12407945970E+03  0.00000000000E+00 0. -1.
        -14    1    5    5    0    0 -0.42536198773E+01  0.30657368529E+02  0.74009629202E+03  0.74074320044E+03  0.00000000000E+00 0.  1.
          5    1    4    4  501    0  0.15710248972E+02  0.70343664135E+02  0.21830114211E+03  0.22993021562E+03  0.41800000000E+01 0.  1.
         -5    1    4    4    0  501 -0.31543276570E+01 -0.32893503816E+02  0.12553920771E+02  0.35595023570E+02  0.41800000000E+01 0.  1.
</event>
<event>
11    1  0.8479398E-009  0.1615748E+03  0.7561462E-02  0.1085605E+00
         22   -1    0    0    0    0  0.00000000000E+00  0.00000000000E+00  0.79653534334E+03  0.79653534334E+03  0.00000000000E+00 0.  1.
         22   -1    0    0    0    0 -0.00000000000E+00 -0.00000000000E+00 -0.85915549546E+03  0.85915549546E+03  0.00000000000E+00 0. -1.
        -24    2    1    2    0    0  0.39871604649E+01 -0.64770580016E+02 -0.81292974371E+03  0.81955516185E+03  0.81269733746E+02 0.  0.
         25    2    1    2    0    0 -0.10538503698E+03  0.60700100862E+02  0.17659570109E+03  0.24824067260E+03  0.12508749587E+03 0.  0.
         24    2    1    2    0    0  0.10139787652E+03  0.40704791545E+01  0.57371389049E+03  0.58789500435E+03  0.78579958213E+02 0.  0.
        -11    1    5    5    0    0  0.10907762089E+03 -0.44930237661E+01  0.55704922966E+03  0.56764598026E+03  0.00000000000E+00 0.  1.
         12    1    5    5    0    0 -0.76797443719E+01  0.85635029206E+01  0.16664660830E+02  0.20249024087E+02  0.00000000000E+00 0. -1.
         13    1    3    3    0    0 -0.31904783110E+02 -0.41684298594E+02 -0.60608468203E+03  0.60835362884E+03  0.00000000000E+00 0. -1.
        -14    1    3    3    0    0  0.35891943575E+02 -0.23086281422E+02 -0.20684506168E+03  0.21120153301E+03  0.00000000000E+00 0.  1.
          5    1    4    4  501    0 -0.11786220158E+03  0.66810778430E+02  0.95383629927E+02  0.16574283675E+03  0.41800000000E+01 0. -1.
         -5    1    4    4    0  501  0.12477164600E+02 -0.61106775678E+01  0.81212071166E+02  0.82497835850E+02  0.41800000000E+01 0. -1.
</event>
<event>
11    1  0.8479398E-009  0.2389794E+03  0.7561462E-02  0.1029939E+00
         22   -1    0    0    0    0  0.00000000000E+00  0.00000000000E+00  0.45122309871E+03  0.45122309871E+03  0.00000000000E+00 0.  1.
         22   -1    0    0    0    0 -0.00000000000E+00 -0.00000000000E+00 -0.12003015608E+04  0.12003015608E+04  0.00000000000E+00 0. -1.
        -24    2    1    2    0    0  0.20398134070E+03 -0.88414365481E+01 -0.10361962702E+04  0.10593057428E+04  0.82093775485E+02 0.  0.
         25    2    1    2    0    0 -0.19848860648E+03  0.19862365199E+02 -0.53877020152E+02  0.24154099538E+03  0.12508828360E+03 0.  0.
         24    2    1    2    0    0 -0.54927342261E+01 -0.11020928651E+02  0.34099482826E+03  0.35067792135E+03  0.80906740287E+02 0.  0.
        -13    1    5    5    0    0 -0.17907077676E+02 -0.12508961962E+01  0.33202772499E+03  0.33251261379E+03  0.00000000000E+00 0.  1.
         14    1    5    5    0    0  0.12414343450E+02 -0.97700324549E+01  0.89671032734E+01  0.18165307555E+02  0.00000000000E+00 0. -1.
         11    1    3    3    0    0  0.10598830530E+03 -0.22439477609E+01 -0.73227584695E+03  0.73990977301E+03  0.00000000000E+00 0. -1.
        -12    1    3    3    0    0  0.97993035409E+02 -0.65974887872E+01 -0.30392042329E+03  0.31939596983E+03  0.00000000000E+00 0.  1.
          5    1    4    4  501    0 -0.17578519494E+03  0.26162398370E+02 -0.89185340173E+02  0.19888791605E+03  0.41800000000E+01 0.  1.
         -5    1    4    4    0  501 -0.22703411540E+02 -0.63000331707E+01  0.35308320021E+02  0.42653079329E+02  0.41800000000E+01 0.  1.
</event>
<event>
11    1  0.8479398E-009  0.1565521E+03  0.7561462E-02  0.1090366E+00
         22   -1    0    0    0    0  0.00000000000E+00  0.00000000000E+00  0.78929843665E+03  0.78929843665E+03  0.00000000000E+00 0.  1.
         22   -1    0    0    0    0 -0.00000000000E+00 -0.00000000000E+00 -0.28391950746E+03  0.28391950746E+03  0.00000000000E+00 0.  1.
         24    2    1    2    0    0 -0.37030549267E+02  0.93397851470E+02 -0.22130596344E+03  0.25899871284E+03  0.89496276795E+02 0.  0.
         25    2    1    2    0    0 -0.96368910153E+00 -0.58433433735E+02  0.78130962515E+02  0.15864139807E+03  0.12508897236E+03 0.  0.
        -24    2    1    2    0    0  0.37994238369E+02 -0.34964417735E+02  0.64855393011E+03  0.65557783319E+03  0.80585497766E+02 0.  0.
        -11    1    3    3    0    0 -0.52792414966E+02  0.77565131793E+02 -0.21676647073E+03  0.23620137930E+03  0.00000000000E+00 0.  1.
         12    1    3    3    0    0  0.15761865699E+02  0.15832719678E+02 -0.45394927102E+01  0.22797333545E+02  0.00000000000E+00 0. -1.
         11    1    5    5    0    0  0.26950880502E+02 -0.40970031174E+02  0.17190150524E+03  0.17875967364E+03  0.00000000000E+00 0. -1.
        -12    1    5    5    0    0  0.11043357867E+02  0.60056134387E+01  0.47665242487E+03  0.47681815956E+03  0.00000000000E+00 0.  1.
          5    1    4    4  501    0 -0.16590237998E+01 -0.80333570100E+02  0.32678011040E+01  0.80525683909E+02  0.41800000000E+01 0. -1.
         -5    1    4    4    0  501  0.69533469825E+00  0.21900136365E+02  0.74863161411E+02  0.78115714165E+02  0.41800000000E+01 0. -1.
</event>
<event>
11    1  0.8479398E-009  0.1331359E+03  0.7561462E-02  0.1115475E+00
         22   -1    0    0    0    0  0.00000000000E+00  0.00000000000E+00  0.47140095946E+03  0.47140095946E+03  0.00000000000E+00 0. -1.
         22   -1    0    0    0    0 -0.00000000000E+00 -0.00000000000E+00 -0.57004984689E+03  0.57004984689E+03  0.00000000000E+00 0. -1.
        -24    2    1    2    0    0 -0.77334365580E+01 -0.10777737037E+02 -0.35011617003E+03  0.35938821421E+03  0.80016187982E+02 0.  0.
         25    2    1    2    0    0 -0.20434296211E+02  0.46500163187E+02 -0.18896941287E+03  0.23224457208E+03  0.12509307183E+03 0.  0.
         24    2    1    2    0    0  0.28167732769E+02 -0.35722426150E+02  0.44043669548E+03  0.44981802006E+03  0.79260680968E+02 0.  0.
        -11    1    5    5    0    0  0.17327797465E+02  0.24571909159E+02  0.13744731275E+03  0.14069753042E+03  0.00000000000E+00 0.  1.
         12    1    5    5    0    0  0.10839935304E+02 -0.60294335309E+02  0.30298938273E+03  0.30912048964E+03  0.00000000000E+00 0. -1.
         13    1    3    3    0    0 -0.27573993718E+02 -0.37390487757E+02 -0.23660296052E+03  0.24112099584E+03  0.00000000000E+00 0. -1.
        -14    1    3    3    0    0  0.19840557160E+02  0.26612750720E+02 -0.11351320951E+03  0.11826721838E+03  0.00000000000E+00 0.  1.
          5    1    4    4  501    0 -0.35549073678E+02  0.14965270910E+02 -0.19294044899E+03  0.19680240148E+03  0.41800000000E+01 0.  1.
         -5    1    4    4    0  501  0.15114777466E+02  0.31534892277E+02  0.39710361143E+01  0.35442170596E+02  0.41800000000E+01 0.  1.
</event>
<event>
11    1  0.8479398E-009  0.1316491E+03  0.7561462E-02  0.1117259E+00
         22   -1    0    0    0    0  0.00000000000E+00  0.00000000000E+00  0.69334001099E+03  0.69334001099E+03  0.00000000000E+00 0.  1.
         22   -1    0    0    0    0 -0.00000000000E+00 -0.00000000000E+00 -0.12302519502E+03  0.12302519502E+03  0.00000000000E+00 0. -1.
        -24    2    1    2    0    0  0.10139263075E+02 -0.30856113339E+02 -0.70878452389E+02  0.11221841239E+03  0.80711292150E+02 0.  0.
         25    2    1    2    0    0 -0.12840588229E+01  0.67287771421E+02  0.15593021716E+03  0.21092910037E+03  0.12509020652E+03 0.  0.
         24    2    1    2    0    0 -0.88552042522E+01 -0.36431658082E+02  0.48526305119E+03  0.49321769325E+03  0.79861027587E+02 0.  0.
        -13    1    5    5    0    0 -0.42488197611E+02 -0.17692515188E+02  0.19206087083E+03  0.19749848134E+03  0.00000000000E+00 0.  1.
         14    1    5    5    0    0  0.33632993359E+02 -0.18739142894E+02  0.29320218036E+03  0.29571921190E+03  0.00000000000E+00 0. -1.
         11    1    3    3    0    0  0.34032942599E+02 -0.31933211347E+02 -0.11298620587E+02  0.48016976123E+02  0.00000000000E+00 0. -1.
        -12    1    3    3    0    0 -0.23893679524E+02  0.10770980078E+01 -0.59579831802E+02  0.64201436268E+02  0.00000000000E+00 0.  1.
          5    1    4    4  501    0 -0.14435808467E+02 -0.19143435448E+02 -0.75591678329E+01  0.25484840694E+02  0.41800000000E+01 0. -1.
         -5    1    4    4    0  501  0.13151749644E+02  0.86431206870E+02  0.16348938500E+03  0.18544425967E+03  0.41800000000E+01 0. -1.
</event>
<event>
11    1  0.8479398E-009  0.1394228E+03  0.7561462E-02  0.1108205E+00
         22   -1    0    0    0    0  0.00000000000E+00  0.00000000000E+00  0.37851683010E+03  0.37851683010E+03  0.00000000000E+00 0. -1.
         22   -1    0    0    0    0 -0.00000000000E+00 -0.00000000000E+00 -0.45063247087E+03  0.45063247087E+03  0.00000000000E+00 0.  1.
        -24    2    1    2    0    0 -0.22383450347E+02 -0.33271850048E+02 -0.36927631981E+03  0.37988054362E+03  0.79600202203E+02 0.  0.
         25    2    1    2    0    0 -0.26477034918E+02  0.69871892838E+02  0.16425676164E+02  0.14661371060E+03  0.12507063009E+03 0.  0.
         24    2    1    2    0    0  0.48860485265E+02 -0.36600042790E+02  0.28073500288E+03  0.30265504676E+03  0.95189418180E+02 0.  0.
        -13    1    5    5    0    0  0.32857863751E+02 -0.55007078413E+02  0.90631122845E+02  0.11099287506E+03  0.00000000000E+00 0.  1.
         14    1    5    5    0    0  0.16002621514E+02  0.18407035623E+02  0.19010388004E+03  0.19166217170E+03  0.00000000000E+00 0. -1.
         13    1    3    3    0    0 -0.44566379989E+02 -0.10149450286E+02 -0.11756014406E+03  0.12613310841E+03  0.00000000000E+00 0. -1.
        -14    1    3    3    0    0  0.22182929642E+02 -0.23122399762E+02 -0.25171617575E+03  0.25374743520E+03  0.00000000000E+00 0.  1.
          5    1    4    4  501    0  0.43283534182E+02  0.25584208931E+01  0.23186988167E+02  0.49346921576E+02  0.41800000000E+01 0.  1.
         -5    1    4    4    0  501 -0.69760569100E+02  0.67313471945E+02 -0.67613120033E+01  0.97266789021E+02  0.41800000000E+01 0.  1.
</event>
<event>
11    1  0.8479398E-009  0.1510662E+03  0.7561462E-02  0.1095794E+00
         22   -1    0    0    0    0  0.00000000000E+00  0.00000000000E+00  0.57443666441E+03  0.57443666441E+03  0.00000000000E+00 0. -1.
         22   -1    0    0    0    0 -0.00000000000E+00 -0.00000000000E+00 -0.20851697276E+03  0.20851697276E+03  0.00000000000E+00 0. -1.
         24    2    1    2    0    0  0.92115796992E+02 -0.22504838058E+02 -0.91834450309E+02  0.17135202297E+03  0.10925274240E+03 0.  0.
         25    2    1    2    0    0 -0.66116127530E+02  0.11870359221E+02 -0.37867842906E+01  0.14203670498E+03  0.12509131896E+03 0.  0.
        -24    2    1    2    0    0 -0.25999669461E+02  0.10634478837E+02  0.46154092625E+03  0.46956490922E+03  0.81744127684E+02 0.  0.
        -13    1    3    3    0    0 -0.18358013032E+02  0.18394128962E+02 -0.96772957375E+01  0.27731041732E+02  0.00000000000E+00 0.  1.
         14    1    3    3    0    0  0.11047381002E+03 -0.40898967019E+02 -0.82157154572E+02  0.14362098124E+03  0.00000000000E+00 0. -1.
         11    1    5    5    0    0 -0.40601651658E+02 -0.37832677633E+01  0.43004467693E+03  0.43197364664E+03  0.00000000000E+00 0. -1.
        -12    1    5    5    0    0  0.14601982196E+02  0.14417746600E+02  0.31496249319E+02  0.37591262578E+02  0.00000000000E+00 0.  1.
          5    1    4    4  501    0 -0.39943914130E+02  0.11515664872E+02 -0.63895669432E+02  0.76343013994E+02  0.41800000000E+01 0. -1.
         -5    1    4    4    0  501 -0.26172213400E+02  0.35469434867E+00  0.60108885142E+02  0.65693690986E+02  0.41800000000E+01 0. -1.
</event>
<event>
11    1  0.8479398E-009  0.1298860E+03  0.7561462E-02  0.1119409E+00
         22   -1    0    0    0    0  0.00000000000E+00  0.00000000000E+00  0.12173437505E+04  0.12173437505E+04  0.00000000000E+00 0. -1.
         22   -1    0    0    0    0 -0.00000000000E+00 -0.00000000000E+00 -0.80444069413E+02  0.80444069413E+02  0.00000000000E+00 0. -1.
        -24    2    1    2    0    0  0.11514018765E+02 -0.31298894156E+02 -0.20225628862E+02  0.87407367603E+02  0.78222621057E+02 0.  0.
         25    2    1    2    0    0 -0.10757997488E+02  0.42231146490E+02  0.15019577598E+03  0.20026421862E+03  0.12509109437E+03 0.  0.
         24    2    1    2    0    0 -0.75602127682E+00 -0.10932252334E+02  0.10069295340E+04  0.10101162337E+04  0.79420611281E+02 0.  0.
        -11    1    5    5    0    0 -0.76020236525E+01 -0.41095322746E+02  0.35468202353E+03  0.35713576428E+03  0.00000000000E+00 0.  1.
         12    1    5    5    0    0  0.68460023757E+01  0.30163070412E+02  0.65224751048E+03  0.65298046946E+03  0.00000000000E+00 0. -1.
         13    1    3    3    0    0  0.43404966457E+02 -0.28598417252E+02 -0.19116031715E+02  0.55383059242E+02  0.00000000000E+00 0. -1.
        -14    1    3    3    0    0 -0.31890947692E+02 -0.27004769031E+01 -0.11095971468E+01  0.32024308361E+02  0.00000000000E+00 0.  1.
          5    1    4    4  501    0 -0.42217480537E+02 -0.18115623097E+02  0.14421706707E+02  0.48331661336E+02  0.41800000000E+01 0.  1.
         -5    1    4    4    0  501  0.31459483049E+02  0.60346769587E+02  0.13577406928E+03  0.15193255728E+03  0.41800000000E+01 0.  1.
</event>
<event>
11    1  0.8479398E-009  0.1539766E+03  0.7561462E-02  0.1092883E+00
         22   -1    0    0    0    0  0.00000000000E+00  0.00000000000E+00  0.40533709959E+03  0.40533709959E+03  0.00000000000E+00 0. -1.
         22   -1    0    0    0    0 -0.00000000000E+00 -0.00000000000E+00 -0.26872114440E+03  0.26872114440E+03  0.00000000000E+00 0. -1.
        -24    2    1    2    0    0  0.48016428438E+02 -0.84148604043E+02 -0.13651657091E+03  0.18640617851E+03  0.81999538352E+02 0.  0.
         25    2    1    2    0    0 -0.26406184645E+02  0.70811550418E+02 -0.49502435833E+02  0.15430614794E+03  0.12509330069E+03 0.  0.
         24    2    1    2    0    0 -0.21610243794E+02  0.13337053625E+02  0.32263496193E+03  0.33334591754E+03  0.79883054773E+02 0.  0.
        -11    1    5    5    0    0 -0.42734535961E+02  0.76821602422E+01  0.92604035032E+02  0.10227787373E+03  0.00000000000E+00 0.  1.
         12    1    5    5    0    0  0.21124292168E+02  0.56548933829E+01  0.23003092690E+03  0.23106804381E+03  0.00000000000E+00 0. -1.
         11    1    3    3    0    0  0.40631907579E+02 -0.29756734264E+01 -0.23400064724E+02  0.46982651851E+02  0.00000000000E+00 0. -1.
        -12    1    3    3    0    0  0.73845208593E+01 -0.81172930616E+02 -0.11311650619E+03  0.13942352666E+03  0.00000000000E+00 0.  1.
          5    1    4    4  501    0  0.11001182014E+02  0.80763350457E+02  0.11005089377E+02  0.82354897698E+02  0.41800000000E+01 0.  1.
         -5    1    4    4    0  501 -0.37407366659E+02 -0.99518000387E+01 -0.60507525210E+02  0.71951250242E+02  0.41800000000E+01 0.  1.
</event>
<event>
11    1  0.8479398E-009  0.1886368E+03  0.7561462E-02  0.1062863E+00
         22   -1    0    0    0    0  0.00000000000E+00  0.00000000000E+00  0.93751371038E+03  0.93751371038E+03  0.00000000000E+00 0. -1.
         22   -1    0    0    0    0 -0.00000000000E+00 -0.00000000000E+00 -0.26243812995E+03  0.26243812995E+03  0.00000000000E+00 0. -1.
        -24    2    1    2    0    0  0.92644987062E+02 -0.10071188185E+03 -0.19343418050E+03  0.24976088646E+03  0.78979373536E+02 0.  0.
         25    2    1    2    0    0 -0.16766928221E+03  0.14932048196E+03  0.50307242394E+03  0.56492682594E+03  0.12510339890E+03 0.  0.
         24    2    1    2    0    0  0.75024295143E+02 -0.48608600103E+02  0.36543733699E+03  0.38526412793E+03  0.83021443858E+02 0.  0.
        -11    1    5    5    0    0  0.17433922957E+02  0.32434493485E-01  0.66758248655E+01  0.18668405377E+02  0.00000000000E+00 0.  1.
         12    1    5    5    0    0  0.57590372186E+02 -0.48641034597E+02  0.35876151212E+03  0.36659572255E+03  0.00000000000E+00 0. -1.
         11    1    3    3    0    0  0.41084337201E+02 -0.96365373013E+02 -0.11270190623E+03  0.15386983963E+03  0.00000000000E+00 0. -1.
        -12    1    3    3    0    0  0.51560649861E+02 -0.43465088403E+01 -0.80732274275E+02  0.95891046833E+02  0.00000000000E+00 0.  1.
          5    1    4    4  501    0 -0.45109833538E+01  0.48908663087E+02  0.39028700705E+02  0.62873827421E+02  0.41800000000E+01 0. -1.
         -5    1    4    4    0  501 -0.16315829885E+03  0.10041181887E+03  0.46404372323E+03  0.50205299852E+03  0.41800000000E+01 0. -1.
</event>
<event>
11    1  0.8479398E-009  0.1540059E+03  0.7561462E-02  0.1092854E+00
         22   -1    0    0    0    0  0.00000000000E+00  0.00000000000E+00  0.19735305548E+04  0.19735305548E+04  0.00000000000E+00 0. -1.
         22   -1    0    0    0    0 -0.00000000000E+00 -0.00000000000E+00 -0.78794698443E+02  0.78794698443E+02  0.00000000000E+00 0. -1.
         24    2    1    2    0    0 -0.74205599677E+02  0.52656940758E+02 -0.19594383170E+02  0.12504686462E+03  0.83507808411E+02 0.  0.
         25    2    1    2    0    0  0.51610672244E+02 -0.33416698265E+02  0.12620981872E+04  0.12697733914E+04  0.12510912867E+03 0.  0.
        -24    2    1    2    0    0  0.22594927434E+02 -0.19240242493E+02  0.65223205234E+03  0.65750499727E+03  0.77623795702E+02 0.  0.
        -13    1    3    3    0    0  0.12846559545E+02  0.11748354047E+02  0.14848400601E+02  0.22880841666E+02  0.00000000000E+00 0.  1.
         14    1    3    3    0    0 -0.87052159222E+02  0.40908586711E+02 -0.34442783771E+02  0.10216602295E+03  0.00000000000E+00 0. -1.
         13    1    5    5    0    0  0.41987868943E+02 -0.12242904820E+02  0.59617154828E+03  0.59777369032E+03  0.00000000000E+00 0. -1.
        -14    1    5    5    0    0 -0.19392941509E+02 -0.69973376735E+01  0.56060504056E+02  0.59731306949E+02  0.00000000000E+00 0.  1.
          5    1    4    4  501    0 -0.11543326004E+02  0.40097268250E+02  0.33521978451E+03  0.33783252600E+03  0.41800000000E+01 0.  1.
         -5    1    4    4    0  501  0.63153998248E+02 -0.73513966515E+02  0.92687840270E+03  0.93194086537E+03  0.41800000000E+01 0.  1.
</event>
<event>
11    1  0.8479398E-009  0.1339045E+03  0.7561462E-02  0.1114563E+00
         22   -1    0    0    0    0  0.00000000000E+00  0.00000000000E+00  0.50662666394E+03  0.50662666394E+03  0.00000000000E+00 0. -1.
         22   -1    0    0    0    0 -0.00000000000E+00 -0.00000000000E+00 -0.33471842001E+03  0.33471842001E+03  0.00000000000E+00 0. -1.
        -24    2    1    2    0    0 -0.38272001024E+02  0.26736615410E+02 -0.21866205619E+03  0.23819898288E+03  0.82134450528E+02 0.  0.
         25    2    1    2    0    0  0.59577587115E+02 -0.43047523667E+01 -0.55133340359E+02  0.14918457280E+03  0.12509329224E+03 0.  0.
         24    2    1    2    0    0 -0.21305586091E+02 -0.22431863043E+02  0.44570364047E+03  0.45396152826E+03  0.80450093407E+02 0.  0.
        -11    1    5    5    0    0 -0.91098778991E+00 -0.67412665201E+01 -0.68035814769E+00  0.68364801073E+01  0.00000000000E+00 0.  1.
         12    1    5    5    0    0 -0.20394598301E+02 -0.15690596523E+02  0.44638399862E+03  0.44712504815E+03  0.00000000000E+00 0. -1.
         11    1    3    3    0    0  0.93553547345E+01 -0.19721422964E+02 -0.98076050550E+02  0.10047571287E+03  0.00000000000E+00 0. -1.
        -12    1    3    3    0    0 -0.47627355758E+02  0.46458038374E+02 -0.12058600564E+03  0.13772327001E+03  0.00000000000E+00 0.  1.
          5    1    4    4  501    0  0.85688198219E+02 -0.15555971225E+02 -0.20073049224E+00  0.87189266814E+02  0.41800000000E+01 0. -1.
         -5    1    4    4    0  501 -0.26110611104E+02  0.11251218859E+02 -0.54932609866E+02  0.61995305990E+02  0.41800000000E+01 0. -1.
</event>
<event>
11    1  0.8479398E-009  0.1497456E+03  0.7561462E-02  0.1097139E+00
         22   -1    0    0    0    0  0.00000000000E+00  0.00000000000E+00  0.55514511815E+03  0.55514511815E+03  0.00000000000E+00 0. -1.
         22   -1    0    0    0    0 -0.00000000000E+00 -0.00000000000E+00 -0.25700568063E+03  0.25700568063E+03  0.00000000000E+00 0.  1.
        -24    2    1    2    0    0 -0.62281624916E+02 -0.49116261546E+02 -0.12840389154E+03  0.17084087306E+03  0.80047714496E+02 0.  0.
         25    2    1    2    0    0  0.34079473477E+02  0.96897304036E+02 -0.38302486859E+02  0.16632856653E+03  0.12509042131E+03 0.  0.
         24    2    1    2    0    0  0.28202151439E+02 -0.47781042490E+02  0.46484581592E+03  0.47498135919E+03  0.80294891688E+02 0.  0.
        -13    1    5    5    0    0  0.22445774446E+02 -0.19600990980E+02  0.43926936728E+02  0.53080951463E+02  0.00000000000E+00 0.  1.
         14    1    5    5    0    0  0.57563769931E+01 -0.28180051510E+02  0.42091887919E+03  0.42190040772E+03  0.00000000000E+00 0. -1.
         13    1    3    3    0    0 -0.43291683174E+02 -0.56595573524E+02 -0.43422691130E+02  0.83443147588E+02  0.00000000000E+00 0. -1.
        -14    1    3    3    0    0 -0.18989941743E+02  0.74793119775E+01 -0.84981200412E+02  0.87397725477E+02  0.00000000000E+00 0.  1.
          5    1    4    4  501    0 -0.75770874128E+01  0.74557343831E+02  0.31930352192E+02  0.81567331475E+02  0.41800000000E+01 0. -1.
         -5    1    4    4    0  501  0.41656560889E+02  0.22339960204E+02 -0.70232839051E+02  0.84761235056E+02  0.41800000000E+01 0. -1.
</event>
<event>
11    1  0.8479398E-009  0.1430522E+03  0.7561462E-02  0.1104197E+00
         22   -1    0    0    0    0  0.00000000000E+00  0.00000000000E+00  0.16380641988E+04  0.16380641988E+04  0.00000000000E+00 0. -1.
         22   -1    0    0    0    0 -0.00000000000E+00 -0.00000000000E+00 -0.31155579215E+03  0.31155579215E+03  0.00000000000E+00 0. -1.
         24    2    1    2    0    0  0.16782517962E+02 -0.51269839574E+02 -0.28934559347E+03  0.30622015851E+03  0.84496530458E+02 0.  0.
         25    2    1    2    0    0 -0.16042088529E+02 -0.27425858165E+02  0.35838080851E+03  0.38091185327E+03  0.12509000661E+03 0.  0.
        -24    2    1    2    0    0 -0.74042943318E+00  0.78695697739E+02  0.12574731916E+04  0.12624879792E+04  0.80271469782E+02 0.  0.
        -13    1    3    3    0    0  0.40462494615E+02 -0.36296251498E+00 -0.82483409187E+02  0.91874142191E+02  0.00000000000E+00 0.  1.
         14    1    3    3    0    0 -0.23679976653E+02 -0.50906877059E+02 -0.20686218428E+03  0.21434601632E+03  0.00000000000E+00 0. -1.
         13    1    5    5    0    0  0.18514093618E+02  0.79211524843E+02  0.11742769074E+04  0.11770911148E+04  0.00000000000E+00 0. -1.
        -14    1    5    5    0    0 -0.19254523051E+02 -0.51582710409E+00  0.83196284247E+02  0.85396864392E+02  0.00000000000E+00 0.  1.
          5    1    4    4  501    0 -0.16321093232E+02  0.17885498281E+02  0.55907125566E+01  0.25199158715E+02  0.41800000000E+01 0.  1.
         -5    1    4    4    0  501  0.27900470313E+00 -0.45311356446E+02  0.35279009595E+03  0.35571269455E+03  0.41800000000E+01 0.  1.
</event>
<event>
11    1  0.8479398E-009  0.1361070E+03  0.7561462E-02  0.1111985E+00
         22   -1    0    0    0    0  0.00000000000E+00  0.00000000000E+00  0.26738605634E+03  0.26738605634E+03  0.00000000000E+00 0.  1.
         22   -1    0    0    0    0 -0.00000000000E+00 -0.00000000000E+00 -0.22009221347E+04  0.22009221347E+04  0.00000000000E+00 0.  1.
         24    2    1    2    0    0  0.65121173699E+01 -0.84472432155E+01 -0.19826067578E+04  0.19842715180E+04  0.80561389900E+02 0.  0.
         25    2    1    2    0    0  0.35445508000E+02  0.41842397138E+02 -0.18522567542E+03  0.23013934402E+03  0.12509355137E+03 0.  0.
        -24    2    1    2    0    0 -0.41957625370E+02 -0.33395153922E+02  0.23429635479E+03  0.25389732908E+03  0.81813160394E+02 0.  0.
        -11    1    3    3    0    0 -0.18586862961E+02 -0.38006942278E+02 -0.96870683598E+03  0.96963030750E+03  0.00000000000E+00 0.  1.
         12    1    3    3    0    0  0.25098980331E+02  0.29559699063E+02 -0.10138999218E+04  0.10146412105E+04  0.00000000000E+00 0. -1.
         13    1    5    5    0    0  0.11607065335E+02 -0.24217563153E+02  0.21883089722E+02  0.34642227794E+02  0.00000000000E+00 0. -1.
        -14    1    5    5    0    0 -0.53564690706E+02 -0.91775907691E+01  0.21241326507E+03  0.21925510129E+03  0.00000000000E+00 0.  1.
          5    1    4    4  501    0 -0.28459212308E+01  0.48925622139E+02 -0.18452537593E+03  0.19096832860E+03  0.41800000000E+01 0. -1.
         -5    1    4    4    0  501  0.38291429231E+02 -0.70832250016E+01 -0.70029949150E+00  0.39171015412E+02  0.41800000000E+01 0. -1.
</event>
<event>
11    1  0.8479398E-009  0.1890758E+03  0.7561462E-02  0.1062529E+00
         22   -1    0    0    0    0  0.00000000000E+00  0.00000000000E+00  0.69019997080E+03  0.69019997080E+03  0.00000000000E+00 0. -1.
         22   -1    0    0    0    0 -0.00000000000E+00 -0.00000000000E+00 -0.25313951244E+03  0.25313951244E+03  0.00000000000E+00 0. -1.
         24    2    1    2    0    0  0.35212991598E+02 -0.33705049410E+02 -0.18447509294E+03  0.20701142800E+03  0.80291259006E+02 0.  0.
         25    2    1    2    0    0 -0.13890020917E+03  0.11144728945E+03  0.23270914834E+03  0.31861456196E+03  0.12509166613E+03 0.  0.
        -24    2    1    2    0    0  0.10368721758E+03 -0.77742240041E+02  0.38882640296E+03  0.41771349328E+03  0.80645494931E+02 0.  0.
        -11    1    3    3    0    0  0.33692109236E+02  0.16016891188E+02 -0.42379180049E+02  0.56459666397E+02  0.00000000000E+00 0.  1.
         12    1    3    3    0    0  0.15208823614E+01 -0.49721940597E+02 -0.14209591290E+03  0.15055176160E+03  0.00000000000E+00 0. -1.
         13    1    5    5    0    0  0.10902677930E+03 -0.42541299985E+02  0.29708080398E+03  0.31930174585E+03  0.00000000000E+00 0. -1.
        -14    1    5    5    0    0 -0.53395617184E+01 -0.35200940056E+02  0.91745598981E+02  0.98411747432E+02  0.00000000000E+00 0.  1.
          5    1    4    4  501    0 -0.93355564121E+02  0.22310880890E+02  0.45546810094E+02  0.10632507262E+03  0.41800000000E+01 0. -1.
         -5    1    4    4    0  501 -0.45544645053E+02  0.89136408561E+02  0.18716233824E+03  0.21228948933E+03  0.41800000000E+01 0. -1.
</event>
<event>
11    1  0.8479398E-009  0.1553022E+03  0.7561462E-02  0.1091581E+00
         22   -1    0    0    0    0  0.00000000000E+00  0.00000000000E+00  0.19849482799E+03  0.19849482799E+03  0.00000000000E+00 0. -1.
         22   -1    0    0    0    0 -0.00000000000E+00 -0.00000000000E+00 -0.38303097016E+03  0.38303097016E+03  0.00000000000E+00 0. -1.
        -24    2    1    2    0    0 -0.70102346880E+02  0.57152506284E+02 -0.26616995000E+03  0.29121532610E+03  0.76020890959E+02 0.  0.
         25    2    1    2    0    0  0.71277542631E+02 -0.73099156597E+02 -0.16585977297E+02  0.16229623507E+03  0.12506397761E+03 0.  0.
         24    2    1    2    0    0 -0.11751957506E+01  0.15946650314E+02  0.98219785125E+02  0.12801423698E+03  0.80528516307E+02 0.  0.
        -11    1    5    5    0    0  0.23225531126E+02  0.25599600002E+02  0.10012195733E+02  0.35986231808E+02  0.00000000000E+00 0.  1.
         12    1    5    5    0    0 -0.24400726877E+02 -0.96529496885E+01  0.88207589391E+02  0.92028005172E+02  0.00000000000E+00 0. -1.
         13    1    3    3    0    0 -0.38122670355E+02 -0.13315718954E+02 -0.10270384154E+03  0.11035726272E+03  0.00000000000E+00 0. -1.
        -14    1    3    3    0    0 -0.31979676526E+02  0.70468225237E+02 -0.16346610845E+03  0.18085806338E+03  0.00000000000E+00 0.  1.
          5    1    4    4  501    0  0.41731354525E+02 -0.33758008228E+02  0.53934642799E+02  0.76207133287E+02  0.41800000000E+01 0. -1.
         -5    1    4    4    0  501  0.29546188106E+02 -0.39341148369E+02 -0.70520620096E+02  0.86089101781E+02  0.41800000000E+01 0. -1.
</event>
<event>
11    1  0.8479398E-009  0.1324067E+03  0.7561462E-02  0.1116347E+00
         22   -1    0    0    0    0  0.00000000000E+00  0.00000000000E+00  0.56842246843E+02  0.56842246843E+02  0.00000000000E+00 0.  1.
         22   -1    0    0    0    0 -0.00000000000E+00 -0.00000000000E+00 -0.42884343019E+03  0.42884343019E+03  0.00000000000E+00 0. -1.
         24    2    1    2    0    0 -0.50271056188E+02 -0.21471939351E+02 -0.15162513189E+03  0.17661765603E+03  0.72217674659E+02 0.  0.
         25    2    1    2    0    0  0.31564108131E+02  0.13206534631E+02 -0.10247042892E+03  0.16528362428E+03  0.12509109550E+03 0.  0.
        -24    2    1    2    0    0  0.18706948057E+02  0.82654047204E+01 -0.11790562254E+03  0.14378439671E+03  0.79711668482E+02 0.  0.
        -11    1    3    3    0    0 -0.11732312403E+01 -0.38338040779E+02 -0.57356372520E+02  0.68999531237E+02  0.00000000000E+00 0.  1.
         12    1    3    3    0    0 -0.49097824948E+02  0.16866101428E+02 -0.94268759368E+02  0.10761812480E+03  0.00000000000E+00 0. -1.
         11    1    5    5    0    0  0.27229040367E+02  0.40408338112E+02 -0.63835689050E+02  0.80307220253E+02  0.00000000000E+00 0. -1.
        -12    1    5    5    0    0 -0.85220923101E+01 -0.32142933392E+02 -0.54069933485E+02  0.63477176461E+02  0.00000000000E+00 0.  1.
          5    1    4    4  501    0 -0.36954959030E+02  0.41011413619E+02 -0.38694373841E+02  0.67545036908E+02  0.41800000000E+01 0.  1.
         -5    1    4    4    0  501  0.68519067161E+02 -0.27804878988E+02 -0.63776055079E+02  0.97738587373E+02  0.41800000000E+01 0.  1.
</event>
<event>
11    1  0.8479398E-009  0.1640152E+03  0.7561462E-02  0.1083360E+00
         22   -1    0    0    0    0  0.00000000000E+00  0.00000000000E+00  0.28345318482E+04  0.28345318482E+04  0.00000000000E+00 0. -1.
         22   -1    0    0    0    0 -0.00000000000E+00 -0.00000000000E+00 -0.75960753632E+02  0.75960753632E+02  0.00000000000E+00 0. -1.
        -24    2    1    2    0    0  0.10099338261E+03  0.22676466999E+01  0.12732480215E+02  0.12968594026E+03  0.80321363876E+02 0.  0.
         25    2    1    2    0    0 -0.14561311392E+03 -0.63203931116E+01  0.54081710026E+03  0.57391079017E+03  0.12508929940E+03 0.  0.
         24    2    1    2    0    0  0.44619731306E+02  0.40527464117E+01  0.22050215141E+04  0.22068958714E+04  0.79133838876E+02 0.  0.
        -11    1    5    5    0    0  0.48187847806E+02 -0.12916073427E+02  0.70042989158E+03  0.70220433397E+03  0.00000000000E+00 0.  1.
         12    1    5    5    0    0 -0.35681165001E+01  0.16968819839E+02  0.15045916225E+04  0.15046915374E+04  0.00000000000E+00 0. -1.
         11    1    3    3    0    0  0.10455371137E+03  0.15032671556E+02  0.28189459131E+02  0.10932568491E+03  0.00000000000E+00 0. -1.
        -12    1    3    3    0    0 -0.35603287604E+01 -0.12765024856E+02 -0.15456978915E+02  0.20360255343E+02  0.00000000000E+00 0.  1.
          5    1    4    4  501    0 -0.58864051281E+02 -0.38380102986E+02  0.39474151681E+03  0.40096925858E+03  0.41800000000E+01 0. -1.
         -5    1    4    4    0  501 -0.86749062635E+02  0.32059709874E+02  0.14607558345E+03  0.17294153158E+03  0.41800000000E+01 0. -1.
</event>
<event>
11    1  0.8479398E-009  0.1652343E+03  0.7561462E-02  0.1082255E+00
         22   -1    0    0    0    0  0.00000000000E+00  0.00000000000E+00  0.11370839011E+03  0.11370839011E+03  0.00000000000E+00 0.  1.
         22   -1    0    0    0    0 -0.00000000000E+00 -0.00000000000E+00 -0.10683386637E+04  0.10683386637E+04  0.00000000000E+00 0. -1.
         24    2    1    2    0    0 -0.21746457660E+01 -0.26268813613E+02 -0.68152995027E+03  0.68669188020E+03  0.79799032301E+02 0.  0.
         25    2    1    2    0    0 -0.10607663922E+03  0.21145538110E+02 -0.31051379457E+03  0.35180240889E+03  0.12508689426E+03 0.  0.
        -24    2    1    2    0    0  0.10825128498E+03  0.51232755023E+01  0.37413471290E+02  0.14355276468E+03  0.86388886794E+02 0.  0.
        -11    1    3    3    0    0  0.26085651802E+01  0.11429915267E+01 -0.60901102888E+03  0.60901768804E+03  0.00000000000E+00 0.  1.
         12    1    3    3    0    0 -0.47832109462E+01 -0.27411805139E+02 -0.72518921391E+02  0.77674192160E+02  0.00000000000E+00 0. -1.
         13    1    5    5    0    0 -0.82701749997E+00  0.18129159554E+02 -0.13360208134E+02  0.22535428673E+02  0.00000000000E+00 0. -1.
        -14    1    5    5    0    0  0.10907830248E+03 -0.13005884051E+02  0.50773679424E+02  0.12101733601E+03  0.00000000000E+00 0.  1.
          5    1    4    4  501    0 -0.61131576489E+02  0.15405625516E+02 -0.34350268787E+02  0.71915341251E+02  0.41800000000E+01 0. -1.
         -5    1    4    4    0  501 -0.44945062729E+02  0.57399125944E+01 -0.27616352578E+03  0.27988706764E+03  0.41800000000E+01 0. -1.
</event>
<event>
11    1  0.8479398E-009  0.2193496E+03  0.7561462E-02  0.1041626E+00
         22   -1    0    0    0    0  0.00000000000E+00  0.00000000000E+00  0.16627524436E+03  0.16627524436E+03  0.00000000000E+00 0.  1.
         22   -1    0    0    0    0 -0.00000000000E+00 -0.00000000000E+00 -0.23494637176E+04  0.23494637176E+04  0.00000000000E+00 0.  1.
        -24    2    1    2    0    0  0.33413381714E+02 -0.58309508326E+02 -0.19138361891E+04  0.19167599872E+04  0.81752288266E+02 0.  0.
         25    2    1    2    0    0  0.26563563904E+02 -0.12374144878E+03 -0.33618421152E+03  0.38037513539E+03  0.12509136851E+03 0.  0.
         24    2    1    2    0    0 -0.59976945617E+02  0.18205095711E+03  0.66831927427E+02  0.21860383941E+03  0.81125502114E+02 0.  0.
        -11    1    5    5    0    0 -0.71151826626E+02  0.17378739742E+03  0.45630764302E+02  0.19325322399E+03  0.00000000000E+00 0.  1.
         12    1    5    5    0    0  0.11174881009E+02  0.82635596907E+01  0.21201163125E+02  0.25350615420E+02  0.00000000000E+00 0. -1.
         11    1    3    3    0    0 -0.20091672049E+01  0.15221854967E+02 -0.10863839032E+03  0.10971800888E+03  0.00000000000E+00 0. -1.
        -12    1    3    3    0    0  0.35422548919E+02 -0.73531363294E+02 -0.18051977988E+04  0.18070419783E+04  0.00000000000E+00 0.  1.
          5    1    4    4  501    0  0.57657411642E+02 -0.30395145251E+02 -0.66217013180E+02  0.93007565319E+02  0.41800000000E+01 0.  1.
         -5    1    4    4    0  501 -0.31093847738E+02 -0.93346303529E+02 -0.26996719834E+03  0.28736757007E+03  0.41800000000E+01 0.  1.
</event>
<event>
11    1  0.8479398E-009  0.1558192E+03  0.7561462E-02  0.1091077E+00
         22   -1    0    0    0    0  0.00000000000E+00  0.00000000000E+00  0.12384287263E+04  0.12384287263E+04  0.00000000000E+00 0. -1.
         22   -1    0    0    0    0 -0.00000000000E+00 -0.00000000000E+00 -0.98233674124E+02  0.98233674124E+02  0.00000000000E+00 0. -1.
        -24    2    1    2    0    0  0.10339581644E+03  0.24964719469E+02 -0.76884589501E+01  0.13331688956E+03  0.80002178500E+02 0.  0.
         25    2    1    2    0    0 -0.56473406751E+02  0.29414093154E+02  0.17430423485E+03  0.22379472669E+03  0.12509068256E+03 0.  0.
         24    2    1    2    0    0 -0.46922409693E+02 -0.54378812623E+02  0.97357927629E+03  0.97955078418E+03  0.80649635976E+02 0.  0.
        -11    1    5    5    0    0 -0.35924988403E+02 -0.19010807299E+02  0.15843512989E+03  0.16356560142E+03  0.00000000000E+00 0.  1.
         12    1    5    5    0    0 -0.10997421289E+02 -0.35368005324E+02  0.81514414640E+03  0.81598518276E+03  0.00000000000E+00 0. -1.
         13    1    3    3    0    0  0.25302614055E+02  0.28330516649E+02 -0.33860604453E+02  0.50885960594E+02  0.00000000000E+00 0. -1.
        -14    1    3    3    0    0  0.78093202388E+02 -0.33657971800E+01  0.26172145503E+02  0.82430928966E+02  0.00000000000E+00 0.  1.
          5    1    4    4  501    0  0.18155115942E+02 -0.11084179159E+01  0.13071802272E+03  0.13204359389E+03  0.41800000000E+01 0. -1.
         -5    1    4    4    0  501 -0.74628522693E+02  0.30522511070E+02  0.43586212127E+02  0.91751132794E+02  0.41800000000E+01 0. -1.
</event>
<event>
11    1  0.8479398E-009  0.1363237E+03  0.7561462E-02  0.1111734E+00
         22   -1    0    0    0    0  0.00000000000E+00  0.00000000000E+00  0.50827088602E+03  0.50827088602E+03  0.00000000000E+00 0. -1.
         22   -1    0    0    0    0 -0.00000000000E+00 -0.00000000000E+00 -0.22923125996E+03  0.22923125996E+03  0.00000000000E+00 0.  1.
        -24    2    1    2    0    0  0.39361921573E+02  0.41330910816E+02 -0.17894001687E+03  0.20728805304E+03  0.87699499654E+02 0.  0.
         25    2    1    2    0    0  0.23926961516E+02 -0.48371060628E+02  0.13833757001E+03  0.19415651092E+03  0.12508880231E+03 0.  0.
         24    2    1    2    0    0 -0.63288883089E+02  0.70401498126E+01  0.31964207292E+03  0.33605758201E+03  0.81906026711E+02 0.  0.
        -13    1    5    5    0    0  0.13021894441E+02 -0.14212047076E+02  0.29059969307E+02  0.34871676659E+02  0.00000000000E+00 0.  1.
         14    1    5    5    0    0 -0.76310777530E+02  0.21252196888E+02  0.29058210361E+03  0.30118590535E+03  0.00000000000E+00 0. -1.
         11    1    3    3    0    0  0.47305645955E+02 -0.10474275693E+02 -0.58640051910E+02  0.76067011763E+02  0.00000000000E+00 0. -1.
        -12    1    3    3    0    0 -0.79437243820E+01  0.51805186508E+02 -0.12029996496E+03  0.13122104128E+03  0.00000000000E+00 0.  1.
          5    1    4    4  501    0  0.48229336420E+02 -0.81564788944E+02  0.98291221076E+02  0.13659253357E+03  0.41800000000E+01 0.  1.
         -5    1    4    4    0  501 -0.24302374904E+02  0.33193728316E+02  0.40046348929E+02  0.57563977348E+02  0.41800000000E+01 0.  1.
</event>
<event>
11    1  0.8479398E-009  0.1633261E+03  0.7561462E-02  0.1083990E+00
         22   -1    0    0    0    0  0.00000000000E+00  0.00000000000E+00  0.72751169681E+03  0.72751169681E+03  0.00000000000E+00 0.  1.
         22   -1    0    0    0    0 -0.00000000000E+00 -0.00000000000E+00 -0.25007713657E+03  0.25007713657E+03  0.00000000000E+00 0. -1.
        -24    2    1    2    0    0 -0.23725488107E+01 -0.40198997600E+02 -0.20914638762E+03  0.22900444477E+03  0.84138195098E+02 0.  0.
         25    2    1    2    0    0 -0.23394327131E+02  0.12352006737E+03  0.45911388875E+03  0.49217467416E+03  0.12508335405E+03 0.  0.
         24    2    1    2    0    0  0.25766875942E+02 -0.83321069772E+02  0.22746705911E+03  0.25640971444E+03  0.79989662574E+02 0.  0.
        -11    1    5    5    0    0  0.34290841987E+02 -0.95704626969E+02  0.21034577838E+03  0.23362487870E+03  0.00000000000E+00 0.  1.
         12    1    5    5    0    0 -0.85239660450E+01  0.12383557196E+02  0.17121280731E+02  0.22784835743E+02  0.00000000000E+00 0. -1.
         13    1    3    3    0    0  0.18396380442E+02 -0.60445558667E+02 -0.15868556108E+03  0.17080163838E+03  0.00000000000E+00 0. -1.
        -14    1    3    3    0    0 -0.20768929253E+02  0.20246561067E+02 -0.50460826536E+02  0.58202806393E+02  0.00000000000E+00 0.  1.
          5    1    4    4  501    0  0.34963653276E+02  0.15489991356E+02  0.22007922858E+03  0.22341606060E+03  0.41800000000E+01 0.  1.
         -5    1    4    4    0  501 -0.58357980407E+02  0.10803007602E+03  0.23903466017E+03  0.26875861356E+03  0.41800000000E+01 0.  1.
</event>
<event>
11    1  0.8479398E-009  0.1695176E+03  0.7561462E-02  0.1078452E+00
         22   -1    0    0    0    0  0.00000000000E+00  0.00000000000E+00  0.29627924933E+04  0.29627924933E+04  0.00000000000E+00 0. -1.
         22   -1    0    0    0    0 -0.00000000000E+00 -0.00000000000E+00 -0.25991852325E+03  0.25991852325E+03  0.00000000000E+00 0.  1.
        -24    2    1    2    0    0  0.11333709308E+03  0.20367965291E+02 -0.21954062045E+03  0.26052876959E+03  0.80106211220E+02 0.  0.
         25    2    1    2    0    0 -0.88245003776E+02 -0.71349991328E+02  0.35676240647E+03  0.39472981091E+03  0.12511677344E+03 0.  0.
         24    2    1    2    0    0 -0.25092089309E+02  0.50982026038E+02  0.25656521840E+04  0.25674524360E+04  0.77537746305E+02 0.  0.
        -11    1    5    5    0    0  0.32889714812E+01  0.13948437217E+02  0.74640148619E+02  0.76003473737E+02  0.00000000000E+00 0.  1.
         12    1    5    5    0    0 -0.28381060790E+02  0.37033588820E+02  0.24910120354E+04  0.24914489623E+04  0.00000000000E+00 0. -1.
         11    1    3    3    0    0  0.12376245503E+02  0.19867943449E+02 -0.57588025250E+01  0.24105402634E+02  0.00000000000E+00 0. -1.
        -12    1    3    3    0    0  0.10096084758E+03  0.50002184221E+00 -0.21378181792E+03  0.23642336695E+03  0.00000000000E+00 0.  1.
          5    1    4    4  501    0 -0.18947215658E+02 -0.37475771974E+01  0.24909690656E+03  0.24987953613E+03  0.41800000000E+01 0.  1.
         -5    1    4    4    0  501 -0.69297788118E+02 -0.67602414131E+02  0.10766549991E+03  0.14485027478E+03  0.41800000000E+01 0.  1.
</event>
<event>
11    1  0.8479398E-009  0.1435455E+03  0.7561462E-02  0.1103663E+00
         22   -1    0    0    0    0  0.00000000000E+00  0.00000000000E+00  0.28992168772E+03  0.28992168772E+03  0.00000000000E+00 0. -1.
         22   -1    0    0    0    0 -0.00000000000E+00 -0.00000000000E+00 -0.74432807638E+03  0.74432807638E+03  0.00000000000E+00 0. -1.
         24    2    1    2    0    0  0.22712553073E+02 -0.35953135499E+02 -0.56118952008E+03  0.56811837420E+03  0.77564951084E+02 0.  0.
         25    2    1    2    0    0  0.14719189904E+02 -0.28218924429E+02 -0.13777153391E+03  0.18878877376E+03  0.12508894153E+03 0.  0.
        -24    2    1    2    0    0 -0.37431742977E+02  0.64172059928E+02  0.24455466534E+03  0.27734261614E+03  0.10766965094E+03 0.  0.
        -13    1    3    3    0    0  0.32153911003E+02 -0.18976684284E+02 -0.10369776173E+03  0.11021440163E+03  0.00000000000E+00 0.  1.
         14    1    3    3    0    0 -0.94413579307E+01 -0.16976451215E+02 -0.45749175835E+03  0.45790397257E+03  0.00000000000E+00 0. -1.
         11    1    5    5    0    0  0.16197604270E+02  0.70561104936E+02  0.10354678414E+03  0.12634543292E+03  0.00000000000E+00 0. -1.
        -12    1    5    5    0    0 -0.53629347247E+02 -0.63890450078E+01  0.14100788120E+03  0.15099718323E+03  0.00000000000E+00 0.  1.
          5    1    4    4  501    0 -0.40238809725E+02  0.10800997578E+02 -0.81893282521E+01  0.42665687080E+02  0.41800000000E+01 0. -1.
         -5    1    4    4    0  501  0.54957999629E+02 -0.39019922007E+02 -0.12958220566E+03  0.14612308668E+03  0.41800000000E+01 0. -1.
</event>
<event>
11    1  0.8479398E-009  0.1462141E+03  0.7561462E-02  0.1100811E+00
         22   -1    0    0    0    0  0.00000000000E+00  0.00000000000E+00  0.20906296997E+03  0.20906296997E+03  0.00000000000E+00 0.  1.
         22   -1    0    0    0    0 -0.00000000000E+00 -0.00000000000E+00 -0.20334582492E+04  0.20334582492E+04  0.00000000000E+00 0.  1.
        -24    2    1    2    0    0  0.14973656477E+02  0.76481617595E+02 -0.18798974521E+04  0.18832416247E+04  0.80690386519E+02 0.  0.
         25    2    1    2    0    0 -0.51351824426E+02 -0.19940112585E+02 -0.10228618438E+03  0.17071724728E+03  0.12508915638E+03 0.  0.
         24    2    1    2    0    0  0.36378167950E+02 -0.56541505010E+02  0.15778835732E+03  0.18856234709E+03  0.78347177001E+02 0.  0.
        -13    1    5    5    0    0  0.52976598775E+01 -0.69255926738E+02  0.11178024797E+03  0.13160270675E+03  0.00000000000E+00 0.  1.
         14    1    5    5    0    0  0.31080508072E+02  0.12714421728E+02  0.46008109346E+02  0.56959640339E+02  0.00000000000E+00 0. -1.
         11    1    3    3    0    0  0.46721964657E+02  0.36332627669E+02 -0.11739430623E+04  0.11754340965E+04  0.00000000000E+00 0. -1.
        -12    1    3    3    0    0 -0.31748308180E+02  0.40148989926E+02 -0.70595438986E+03  0.70780752824E+03  0.00000000000E+00 0.  1.
          5    1    4    4  501    0 -0.13161161048E+02  0.23548889421E+01 -0.12151129276E+03  0.12231610004E+03  0.41800000000E+01 0.  1.
         -5    1    4    4    0  501 -0.38190663379E+02 -0.22295001527E+02  0.19225108373E+02  0.48401147242E+02  0.41800000000E+01 0.  1.
</event>
<event>
11    1  0.8479398E-009  0.1368033E+03  0.7561462E-02  0.1111181E+00
         22   -1    0    0    0    0  0.00000000000E+00  0.00000000000E+00  0.37416752798E+03  0.37416752798E+03  0.00000000000E+00 0. -1.
         22   -1    0    0    0    0 -0.00000000000E+00 -0.00000000000E+00 -0.74784513111E+03  0.74784513111E+03  0.00000000000E+00 0. -1.
         24    2    1    2    0    0 -0.28227924172E+02 -0.17409830896E+02 -0.30690588298E+03  0.31988290180E+03  0.83868539629E+02 0.  0.
         25    2    1    2    0    0  0.48917476780E+02  0.68357022193E+02 -0.41473990813E+03  0.44127358962E+03  0.12509031731E+03 0.  0.
        -24    2    1    2    0    0 -0.20689552607E+02 -0.50947191297E+02  0.34796818798E+03  0.36085616768E+03  0.78176978817E+02 0.  0.
        -11    1    3    3    0    0 -0.42232253251E+02 -0.15233554693E+00 -0.68702964640E+02  0.80645420026E+02  0.00000000000E+00 0.  1.
         12    1    3    3    0    0  0.14004329079E+02 -0.17257495349E+02 -0.23820291834E+03  0.23923748177E+03  0.00000000000E+00 0. -1.
         11    1    5    5    0    0 -0.31932668478E+02 -0.46066391773E+02  0.34313157267E+03  0.34767957077E+03  0.00000000000E+00 0. -1.
        -12    1    5    5    0    0  0.11243115871E+02 -0.48807995242E+01  0.48366153124E+01  0.13176596911E+02  0.00000000000E+00 0.  1.
          5    1    4    4  501    0  0.76510058684E+02  0.81612453792E+02 -0.25375418038E+03  0.27735002822E+03  0.41800000000E+01 0.  1.
         -5    1    4    4    0  501 -0.27592581904E+02 -0.13255431599E+02 -0.16098572775E+03  0.16392356140E+03  0.41800000000E+01 0.  1.
</event>
<event>
11    1  0.8479398E-009  0.1490344E+03  0.7561462E-02  0.1097870E+00
         22   -1    0    0    0    0  0.00000000000E+00  0.00000000000E+00  0.55094550243E+03  0.55094550243E+03  0.00000000000E+00 0. -1.
         22   -1    0    0    0    0 -0.00000000000E+00 -0.00000000000E+00 -0.15535645104E+03  0.15535645104E+03  0.00000000000E+00 0.  1.
        -24    2    1    2    0    0  0.36445061796E+02  0.91137160817E+01 -0.26841250794E+02  0.92558767315E+02  0.80220759861E+02 0.  0.
         25    2    1    2    0    0 -0.98054152597E+02  0.40802443218E+02 -0.12439543084E+02  0.16456755850E+03  0.12509309679E+03 0.  0.
         24    2    1    2    0    0  0.61609090801E+02 -0.49916159300E+02  0.43486984527E+03  0.44917562765E+03  0.79747470940E+02 0.  0.
        -13    1    5    5    0    0 -0.12398574920E+02 -0.32882099527E+02  0.10689613265E+03  0.11252439871E+03  0.00000000000E+00 0.  1.
         14    1    5    5    0    0  0.74007665721E+02 -0.17034059773E+02  0.32797371262E+03  0.33665122894E+03  0.00000000000E+00 0. -1.
         13    1    3    3    0    0  0.13214588019E+02  0.41321413695E+02  0.20788487651E+01  0.43432777697E+02  0.00000000000E+00 0. -1.
        -14    1    3    3    0    0  0.23230473777E+02 -0.32207697614E+02 -0.28920099559E+02  0.49125989618E+02  0.00000000000E+00 0.  1.
          5    1    4    4  501    0 -0.71376788656E+02  0.24442557148E+02  0.52737976172E+02  0.92145814281E+02  0.41800000000E+01 0. -1.
         -5    1    4    4    0  501 -0.26677363941E+02  0.16359886070E+02 -0.65177519256E+02  0.72421744217E+02  0.41800000000E+01 0. -1.
</event>
<event>
11    1  0.8479398E-009  0.1428363E+03  0.7561462E-02  0.1104432E+00
         22   -1    0    0    0    0  0.00000000000E+00  0.00000000000E+00  0.87690629572E+03  0.87690629572E+03  0.00000000000E+00 0. -1.
         22   -1    0    0    0    0 -0.00000000000E+00 -0.00000000000E+00 -0.14124888288E+03  0.14124888288E+03  0.00000000000E+00 0. -1.
         24    2    1    2    0    0 -0.11284870735E+02 -0.19434724496E+02 -0.78991284127E+02  0.11000044177E+03  0.73180717385E+02 0.  0.
         25    2    1    2    0    0  0.77824224755E+02  0.32204474700E+02  0.89244560725E+02  0.17523141343E+03  0.12509084092E+03 0.  0.
        -24    2    1    2    0    0 -0.66539354020E+02 -0.12769750204E+02  0.72540413624E+03  0.73292332341E+03  0.79842876765E+02 0.  0.
        -11    1    3    3    0    0  0.12447525578E+02  0.12064289941E+02  0.42858527129E+01  0.17856553930E+02  0.00000000000E+00 0.  1.
         12    1    3    3    0    0 -0.23732396313E+02 -0.31499014437E+02 -0.83277136840E+02  0.92143887836E+02  0.00000000000E+00 0. -1.
         11    1    5    5    0    0 -0.81662462235E+02 -0.24518635462E+02  0.56948497378E+03  0.57583249004E+03  0.00000000000E+00 0. -1.
        -12    1    5    5    0    0  0.15123108215E+02  0.11748885258E+02  0.15591916247E+03  0.15709083338E+03  0.00000000000E+00 0.  1.
          5    1    4    4  501    0  0.10785536445E+03  0.30372109177E+02  0.43394923762E+02  0.12023242685E+03  0.41800000000E+01 0. -1.
         -5    1    4    4    0  501 -0.30031139698E+02  0.18323655232E+01  0.45849636964E+02  0.54998986579E+02  0.41800000000E+01 0. -1.
</event>
<event>
11    1  0.8479398E-009  0.2425764E+03  0.7561462E-02  0.1027930E+00
         22   -1    0    0    0    0  0.00000000000E+00  0.00000000000E+00  0.49865949216E+03  0.49865949216E+03  0.00000000000E+00 0.  1.
         22   -1    0    0    0    0 -0.00000000000E+00 -0.00000000000E+00 -0.11971076626E+04  0.11971076626E+04  0.00000000000E+00 0. -1.
         24    2    1    2    0    0  0.29339756964E+02  0.11893257411E+03 -0.10402926633E+04  0.10505572176E+04  0.80348388980E+02 0.  0.
         25    2    1    2    0    0  0.37100438177E+02 -0.28883816088E+03  0.10543257516E+03  0.33401801845E+03  0.12509229814E+03 0.  0.
        -24    2    1    2    0    0 -0.66440195142E+02  0.16990558677E+03  0.23641191778E+03  0.31119191863E+03  0.87564875420E+02 0.  0.
        -13    1    3    3    0    0  0.33297921763E+02  0.16905028848E+02 -0.15686978922E+03  0.16125341040E+03  0.00000000000E+00 0.  1.
         14    1    3    3    0    0 -0.39581647984E+01  0.10202754526E+03 -0.88342287413E+03  0.88930380725E+03  0.00000000000E+00 0. -1.
         13    1    5    5    0    0  0.38820743325E+01  0.25540541384E+00 -0.59507059518E+01  0.71096156276E+01  0.00000000000E+00 0. -1.
        -14    1    5    5    0    0 -0.70322269474E+02  0.16965018136E+03  0.24236262373E+03  0.30408230301E+03  0.00000000000E+00 0.  1.
          5    1    4    4  501    0 -0.41149995410E+02 -0.14690592876E+03  0.70764209087E+02  0.16822520535E+03  0.41800000000E+01 0. -1.
         -5    1    4    4    0  501  0.78250433587E+02 -0.14193223212E+03  0.34668366069E+02  0.16579281310E+03  0.41800000000E+01 0. -1.
</event>
<event>
11    1  0.8479398E-009  0.1326256E+03  0.7561462E-02  0.1116084E+00
         22   -1    0    0    0    0  0.00000000000E+00  0.00000000000E+00  0.67821389560E+03  0.67821389560E+03  0.00000000000E+00 0.  1.
         22   -1    0    0    0    0 -0.00000000000E+00 -0.00000000000E+00 -0.17122346429E+03  0.17122346429E+03  0.00000000000E+00 0. -1.
         24    2    1    2    0    0  0.23156271335E+02 -0.37502154084E+02 -0.13904141710E+03  0.16686481424E+03  0.81047677940E+02 0.  0.
         25    2    1    2    0    0 -0.21393031007E+02  0.38284942781E+02  0.31191132386E+03  0.33890991842E+03  0.12509140750E+03 0.  0.
        -24    2    1    2    0    0 -0.17632403288E+01 -0.78278869696E+00  0.33412052456E+03  0.34366262723E+03  0.80397479122E+02 0.  0.
        -11    1    3    3    0    0 -0.30344541100E+02 -0.92560739820E+01 -0.49956443605E+02  0.59178647650E+02  0.00000000000E+00 0.  1.
         12    1    3    3    0    0  0.53500812435E+02 -0.28246080102E+02 -0.89084973500E+02  0.10768616659E+03  0.00000000000E+00 0. -1.
         11    1    5    5    0    0 -0.39726033435E+02 -0.96288097722E+01  0.15065400174E+03  0.15610092873E+03  0.00000000000E+00 0. -1.
        -12    1    5    5    0    0  0.37962793106E+02  0.88460210752E+01  0.18346652282E+03  0.18756169850E+03  0.00000000000E+00 0.  1.
          5    1    4    4  501    0  0.48733069051E+02  0.17832548863E+02  0.18734986104E+03  0.19444884841E+03  0.41800000000E+01 0.  1.
         -5    1    4    4    0  501 -0.70126100058E+02  0.20452393918E+02  0.12456146282E+03  0.14446107000E+03  0.41800000000E+01 0.  1.
</event>
<event>
11    1  0.8479398E-009  0.1710671E+03  0.7561462E-02  0.1077107E+00
         22   -1    0    0    0    0  0.00000000000E+00  0.00000000000E+00  0.78946483228E+03  0.78946483228E+03  0.00000000000E+00 0. -1.
         22   -1    0    0    0    0 -0.00000000000E+00 -0.00000000000E+00 -0.10165872408E+04  0.10165872408E+04  0.00000000000E+00 0. -1.
         24    2    1    2    0    0  0.61200381127E+02 -0.98883912227E+02 -0.97779428816E+03  0.98798485215E+03  0.80677651028E+02 0.  0.
         25    2    1    2    0    0 -0.73296013409E+02  0.11769996088E+03  0.26127042709E+03  0.32115207634E+03  0.12510329210E+03 0.  0.
        -24    2    1    2    0    0  0.12095632282E+02 -0.18816048655E+02  0.48940145259E+03  0.49691514455E+03  0.83129604079E+02 0.  0.
        -11    1    3    3    0    0  0.42919758758E+02 -0.54342761882E+02 -0.27648824866E+03  0.28502805670E+03  0.00000000000E+00 0.  1.
         12    1    3    3    0    0  0.18280622370E+02 -0.44541150345E+02 -0.70130603950E+03  0.70295679545E+03  0.00000000000E+00 0. -1.
         13    1    5    5    0    0  0.34682666006E+02 -0.26668990081E+02  0.13955227577E+03  0.14624964966E+03  0.00000000000E+00 0. -1.
        -14    1    5    5    0    0 -0.22587033724E+02  0.78529414259E+01  0.34984917682E+03  0.35066549489E+03  0.00000000000E+00 0.  1.
          5    1    4    4  501    0 -0.33101723617E+02  0.13440246913E+03  0.16496744528E+03  0.21538681069E+03  0.41800000000E+01 0.  1.
         -5    1    4    4    0  501 -0.40194289792E+02 -0.16702508252E+02  0.96302981811E+02  0.10576526566E+03  0.41800000000E+01 0.  1.
</event>
<event>
11    1  0.8479398E-009  0.1827724E+03  0.7561462E-02  0.1067422E+00
         22   -1    0    0    0    0  0.00000000000E+00  0.00000000000E+00  0.11702928923E+03  0.11702928923E+03  0.00000000000E+00 0. -1.
         22   -1    0    0    0    0 -0.00000000000E+00 -0.00000000000E+00 -0.14293043739E+04  0.14293043739E+04  0.00000000000E+00 0. -1.
        -24    2    1    2    0    0  0.10117906401E+03  0.82362908057E+02 -0.11699706736E+04  0.11798963201E+04  0.79392048420E+02 0.  0.
         25    2    1    2    0    0 -0.11752893368E+03 -0.10703628457E+03 -0.18084810946E+03  0.27133631525E+03  0.12509013076E+03 0.  0.
         24    2    1    2    0    0  0.16349869664E+02  0.24673376509E+02  0.38543698398E+02  0.95101027821E+02  0.81746529345E+02 0.  0.
        -11    1    5    5    0    0  0.28102686196E+02  0.38542554916E+02 -0.49547059744E+01  0.47956632724E+02  0.00000000000E+00 0.  1.
         12    1    5    5    0    0 -0.11752816531E+02 -0.13869178407E+02  0.43498404373E+02  0.47144395097E+02  0.00000000000E+00 0. -1.
         11    1    3    3    0    0  0.10518876271E+03  0.93073394782E+02 -0.11093775062E+04  0.11182333316E+04  0.00000000000E+00 0. -1.
        -12    1    3    3    0    0 -0.40096986972E+01 -0.10710486725E+02 -0.60593167372E+02  0.61662988426E+02  0.00000000000E+00 0.  1.
          5    1    4    4  501    0 -0.72927997592E+02 -0.91302890330E+02 -0.41422651542E+02  0.12404845455E+03  0.41800000000E+01 0. -1.
         -5    1    4    4    0  501 -0.44600936085E+02 -0.15733394237E+02 -0.13942545792E+03  0.14728786070E+03  0.41800000000E+01 0. -1.
</event>
<event>
11    1  0.8479398E-009  0.1417315E+03  0.7561462E-02  0.1105640E+00
         22   -1    0    0    0    0  0.00000000000E+00  0.00000000000E+00  0.70909086419E+03  0.70909086419E+03  0.00000000000E+00 0. -1.
         22   -1    0    0    0    0 -0.00000000000E+00 -0.00000000000E+00 -0.15689996121E+03  0.15689996121E+03  0.00000000000E+00 0.  1.
         24    2    1    2    0    0 -0.25763934163E+01  0.70969438764E+02 -0.54390201246E+02  0.11993793406E+03  0.79896902276E+02 0.  0.
         25    2    1    2    0    0  0.41831299150E+02 -0.51408920356E+02  0.91890120040E+01  0.14186088295E+03  0.12508931805E+03 0.  0.
        -24    2    1    2    0    0 -0.39254905733E+02 -0.19560518409E+02  0.59739209222E+03  0.60419200839E+03  0.79038659240E+02 0.  0.
        -11    1    3    3    0    0 -0.33882619518E+02  0.44976894615E+02 -0.55729342994E+02  0.79225706845E+02  0.00000000000E+00 0.  1.
         12    1    3    3    0    0  0.31306226102E+02  0.25992544150E+02  0.13391417479E+01  0.40712227214E+02  0.00000000000E+00 0. -1.
         13    1    5    5    0    0 -0.55642884140E+02 -0.16436305578E+02  0.56284586179E+03  0.56582837224E+03  0.00000000000E+00 0. -1.
        -14    1    5    5    0    0  0.16387978407E+02 -0.31242128305E+01  0.34546230433E+02  0.38363636157E+02  0.00000000000E+00 0.  1.
          5    1    4    4  501    0  0.45231950507E+02 -0.75622296718E+02 -0.31948286472E+02  0.93823379368E+02  0.41800000000E+01 0.  1.
         -5    1    4    4    0  501 -0.34006513577E+01  0.24213376362E+02  0.41137298476E+02  0.48037503582E+02  0.41800000000E+01 0.  1.
</event>
<event>
11    1  0.8479398E-009  0.2389449E+03  0.7561462E-02  0.1029959E+00
         22   -1    0    0    0    0  0.00000000000E+00  0.00000000000E+00  0.33335752893E+03  0.33335752893E+03  0.00000000000E+00 0.  1.
         22   -1    0    0    0    0 -0.00000000000E+00 -0.00000000000E+00 -0.69192384984E+03  0.69192384984E+03  0.00000000000E+00 0. -1.
         24    2    1    2    0    0 -0.20298726359E+03  0.24255524541E+02 -0.54387896007E+03  0.58675226603E+03  0.81741903778E+02 0.  0.
         25    2    1    2    0    0  0.19868705842E+03 -0.14167020967E+02 -0.14684548624E+01  0.23521368149E+03  0.12508424333E+03 0.  0.
        -24    2    1    2    0    0  0.43002051678E+01 -0.10088503575E+02  0.18678109403E+03  0.20331543125E+03  0.79559523821E+02 0.  0.
        -13    1    3    3    0    0 -0.25211635703E+02 -0.21420402477E+02 -0.50847042839E+02  0.60662030815E+02  0.00000000000E+00 0.  1.
         14    1    3    3    0    0 -0.17777562789E+03  0.45675927019E+02 -0.49303191723E+03  0.52609023521E+03  0.00000000000E+00 0. -1.
         11    1    5    5    0    0  0.94613001369E+01 -0.30940004817E+01 -0.51362422817E+01  0.11201340279E+02  0.00000000000E+00 0. -1.
        -12    1    5    5    0    0 -0.51610949691E+01 -0.69945030930E+01  0.19191733631E+03  0.19211409098E+03  0.00000000000E+00 0.  1.
          5    1    4    4  501    0  0.19545787875E+03 -0.47717817528E+02 -0.16944334720E+01  0.20124889063E+03  0.41800000000E+01 0. -1.
         -5    1    4    4    0  501  0.32291796685E+01  0.33550796561E+02  0.22597860962E+00  0.33964790851E+02  0.41800000000E+01 0. -1.
</event>
<event>
11    1  0.8479398E-009  0.1408961E+03  0.7561462E-02  0.1106562E+00
         22   -1    0    0    0    0  0.00000000000E+00  0.00000000000E+00  0.17946632432E+03  0.17946632432E+03  0.00000000000E+00 0.  1.
         22   -1    0    0    0    0 -0.00000000000E+00 -0.00000000000E+00 -0.37704120956E+03  0.37704120956E+03  0.00000000000E+00 0.  1.
        -24    2    1    2    0    0 -0.26417644470E+02 -0.60508143059E+02 -0.30040036855E+03  0.31799091960E+03  0.80738567040E+02 0.  0.
         25    2    1    2    0    0  0.20420824535E+02  0.48937237812E+02  0.35079547216E+02  0.14032151689E+03  0.12509072767E+03 0.  0.
         24    2    1    2    0    0  0.59968199345E+01  0.11570905247E+02  0.67745936092E+02  0.98195097397E+02  0.69877876315E+02 0.  0.
        -13    1    5    5    0    0 -0.14721044869E+02  0.24945542108E+02  0.67589664218E+02  0.73534698900E+02  0.00000000000E+00 0.  1.
         14    1    5    5    0    0  0.20717864803E+02 -0.13374636861E+02  0.15627187311E+00  0.24660398498E+02  0.00000000000E+00 0. -1.
         13    1    3    3    0    0  0.45285042926E+01 -0.12766725325E+02 -0.13914175883E+01  0.13617366470E+02  0.00000000000E+00 0. -1.
        -14    1    3    3    0    0 -0.30946148762E+02 -0.47741417734E+02 -0.29900895096E+03  0.30437355313E+03  0.00000000000E+00 0.  1.
          5    1    4    4  501    0  0.42005461199E+02  0.62058869631E+02 -0.21622007538E+02  0.78107270343E+02  0.41800000000E+01 0. -1.
         -5    1    4    4    0  501 -0.21584636664E+02 -0.13121631819E+02  0.56701554754E+02  0.62214246544E+02  0.41800000000E+01 0. -1.
</event>
<event>
11    1  0.8479398E-009  0.1483048E+03  0.7561462E-02  0.1098624E+00
         22   -1    0    0    0    0  0.00000000000E+00  0.00000000000E+00  0.19581111885E+03  0.19581111885E+03  0.00000000000E+00 0.  1.
         22   -1    0    0    0    0 -0.00000000000E+00 -0.00000000000E+00 -0.15954560863E+03  0.15954560863E+03  0.00000000000E+00 0. -1.
         24    2    1    2    0    0  0.58599544626E+02  0.35110295288E+02  0.76811945318E+01  0.10326032039E+03  0.77052278052E+02 0.  0.
         25    2    1    2    0    0 -0.97478596069E+02 -0.19170749408E+02  0.39675101489E+01  0.15980272843E+03  0.12510626105E+03 0.  0.
        -24    2    1    2    0    0  0.38879051442E+02 -0.15939545880E+02  0.24616805543E+02  0.92293678657E+02  0.78399529596E+02 0.  0.
        -11    1    3    3    0    0  0.67674682452E+02  0.97843837739E+01  0.23194537679E+02  0.72205147940E+02  0.00000000000E+00 0.  1.
         12    1    3    3    0    0 -0.90751378261E+01  0.25325911514E+02 -0.15513343147E+02  0.31055172455E+02  0.00000000000E+00 0. -1.
         11    1    5    5    0    0  0.49878826335E+02  0.77515264276E+01  0.37774406580E+02  0.63046722921E+02  0.00000000000E+00 0. -1.
        -12    1    5    5    0    0 -0.10999774893E+02 -0.23691072307E+02 -0.13157601037E+02  0.29246955736E+02  0.00000000000E+00 0.  1.
          5    1    4    4  501    0  0.11174090247E+02  0.42447112762E+01 -0.38665496149E+02  0.40686249018E+02  0.41800000000E+01 0.  1.
         -5    1    4    4    0  501 -0.10865268632E+03 -0.23415460684E+02  0.42633006298E+02  0.11911647942E+03  0.41800000000E+01 0.  1.
</event>
<event>
11    1  0.8479398E-009  0.1580906E+03  0.7561462E-02  0.1088887E+00
         22   -1    0    0    0    0  0.00000000000E+00  0.00000000000E+00  0.72730217944E+03  0.72730217944E+03  0.00000000000E+00 0.  1.
         22   -1    0    0    0    0 -0.00000000000E+00 -0.00000000000E+00 -0.26302796967E+03  0.26302796967E+03  0.00000000000E+00 0.  1.
         24    2    1    2    0    0  0.27264675494E+02 -0.11343046912E+02 -0.20925769680E+03  0.22524146125E+03  0.77928845444E+02 0.  0.
         25    2    1    2    0    0  0.25366079841E+02 -0.74149313285E+02  0.10254792035E+03  0.17973506058E+03  0.12508819836E+03 0.  0.
        -24    2    1    2    0    0 -0.52630755335E+02  0.85492360196E+02  0.57098398623E+03  0.58535362728E+03  0.80853054236E+02 0.  0.
        -13    1    3    3    0    0  0.54491069861E+01 -0.37504216411E+02 -0.16552427057E+03  0.16980737076E+03  0.00000000000E+00 0.  1.
         14    1    3    3    0    0  0.21815568507E+02  0.26161169499E+02 -0.43733426232E+02  0.55434090494E+02  0.00000000000E+00 0. -1.
         13    1    5    5    0    0  0.13215277791E+02 -0.73158295864E+01  0.65335355713E+02  0.67058732733E+02  0.00000000000E+00 0. -1.
        -14    1    5    5    0    0 -0.65846033126E+02  0.92808189783E+02  0.50564863051E+03  0.51829489454E+03  0.00000000000E+00 0.  1.
          5    1    4    4  501    0 -0.13346715171E+02  0.27659059303E+02  0.13868204516E+01  0.31025055009E+02  0.41800000000E+01 0.  1.
         -5    1    4    4    0  501  0.38712795013E+02 -0.10180837259E+03  0.10116109989E+03  0.14871000558E+03  0.41800000000E+01 0.  1.
</event>
<event>
11    1  0.8479398E-009  0.1433483E+03  0.7561462E-02  0.1103876E+00
         22   -1    0    0    0    0  0.00000000000E+00  0.00000000000E+00  0.44795964743E+03  0.44795964743E+03  0.00000000000E+00 0. -1.
         22   -1    0    0    0    0 -0.00000000000E+00 -0.00000000000E+00 -0.98602014007E+03  0.98602014007E+03  0.00000000000E+00 0.  1.
        -24    2    1    2    0    0 -0.41771477629E+02 -0.36587382934E+02 -0.84312968077E+03  0.84871337003E+03  0.79769874844E+02 0.  0.
         25    2    1    2    0    0  0.22995664963E+02  0.10268662395E+03 -0.82450655876E+02  0.18308208422E+03  0.12509034960E+03 0.  0.
         24    2    1    2    0    0  0.18775812667E+02 -0.66099241012E+02  0.38751984401E+03  0.40218433325E+03  0.82818884356E+02 0.  0.
        -13    1    5    5    0    0  0.43235785827E+02 -0.35326100556E+02  0.12721150414E+03  0.13892455990E+03  0.00000000000E+00 0.  1.
         14    1    5    5    0    0 -0.24459973160E+02 -0.30773140456E+02  0.26030833987E+03  0.26325977336E+03  0.00000000000E+00 0. -1.
         11    1    3    3    0    0 -0.10479381772E+02 -0.27178496202E+02 -0.84489630899E+02  0.89369938053E+02  0.00000000000E+00 0. -1.
        -12    1    3    3    0    0 -0.31292095858E+02 -0.94088867322E+01 -0.75864004988E+03  0.75934343198E+03  0.00000000000E+00 0.  1.
          5    1    4    4  501    0  0.34642211088E+02  0.47977044129E+02 -0.10661368782E+03  0.12200750134E+03  0.41800000000E+01 0. -1.
         -5    1    4    4    0  501 -0.11646546126E+02  0.54709579817E+02  0.24163031948E+02  0.61074582875E+02  0.41800000000E+01 0. -1.
</event>
<event>
11    1  0.8479398E-009  0.1316820E+03  0.7561462E-02  0.1117219E+00
         22   -1    0    0    0    0  0.00000000000E+00  0.00000000000E+00  0.79155988571E+03  0.79155988571E+03  0.00000000000E+00 0.  1.
         22   -1    0    0    0    0 -0.00000000000E+00 -0.00000000000E+00 -0.11213666249E+03  0.11213666249E+03  0.00000000000E+00 0. -1.
         24    2    1    2    0    0  0.17236686496E+02  0.22469285107E+01 -0.57921934689E+02  0.10009635610E+03  0.79763261829E+02 0.  0.
         25    2    1    2    0    0  0.17323304021E+02 -0.26701399043E+02  0.10887229847E+03  0.16885967844E+03  0.12508937626E+03 0.  0.
        -24    2    1    2    0    0 -0.34559990518E+02  0.24454470533E+02  0.62847285944E+03  0.63474051365E+03  0.78262191075E+02 0.  0.
        -13    1    3    3    0    0 -0.11440308673E+02 -0.33094438535E+02 -0.33433221605E+02  0.48413870237E+02  0.00000000000E+00 0.  1.
         14    1    3    3    0    0  0.28676995169E+02  0.35341367046E+02 -0.24488713084E+02  0.51682485864E+02  0.00000000000E+00 0. -1.
         11    1    5    5    0    0  0.19137091146E+02 -0.33489374172E+00  0.55184370940E+02  0.58409376023E+02  0.00000000000E+00 0. -1.
        -12    1    5    5    0    0 -0.53697081664E+02  0.24789364274E+02  0.57328848850E+03  0.57633113763E+03  0.00000000000E+00 0.  1.
          5    1    4    4  501    0 -0.23020238119E+02 -0.67538926958E+02  0.62442094363E+02  0.94910092014E+02  0.41800000000E+01 0.  1.
         -5    1    4    4    0  501  0.40343542140E+02  0.40837527914E+02  0.46430204111E+02  0.73949586424E+02  0.41800000000E+01 0.  1.
</event>
<event>
11    1  0.8479398E-009  0.1346828E+03  0.7561462E-02  0.1113646E+00
         22   -1    0    0    0    0  0.00000000000E+00  0.00000000000E+00  0.33188273871E+03  0.33188273871E+03  0.00000000000E+00 0. -1.
         22   -1    0    0    0    0 -0.00000000000E+00 -0.00000000000E+00 -0.23763485786E+04  0.23763485786E+04  0.00000000000E+00 0. -1.
        -24    2    1    2    0    0 -0.12066788839E+02 -0.49713172495E+02 -0.21063315100E+04  0.21084609519E+04  0.79737999729E+02 0.  0.
         25    2    1    2    0    0  0.34252697879E+02  0.23221280346E+02 -0.24749699511E+03  0.28037990633E+03  0.12508258917E+03 0.  0.
         24    2    1    2    0    0 -0.22185909040E+02  0.26491892148E+02  0.30936266516E+03  0.31939045917E+03  0.71491061720E+02 0.  0.
        -13    1    5    5    0    0 -0.34067133689E+02  0.41403135139E+02  0.15839656776E+03  0.16722518314E+03  0.00000000000E+00 0.  1.
         14    1    5    5    0    0  0.11881224649E+02 -0.14911242990E+02  0.15096609740E+03  0.15216527603E+03  0.00000000000E+00 0. -1.
         11    1    3    3    0    0 -0.40297036047E+02 -0.45383347492E+02 -0.17222383937E+04  0.17233074549E+04  0.00000000000E+00 0. -1.
        -12    1    3    3    0    0  0.28230247208E+02 -0.43298250030E+01 -0.38409311628E+03  0.38515349696E+03  0.00000000000E+00 0.  1.
          5    1    4    4  501    0  0.36877772940E+02  0.68393653148E+02 -0.10419105033E+03  0.13004195206E+03  0.41800000000E+01 0.  1.
         -5    1    4    4    0  501 -0.26250750612E+01 -0.45172372801E+02 -0.14330594477E+03  0.15033795426E+03  0.41800000000E+01 0.  1.
</event>
<event>
11    1  0.8479398E-009  0.1761170E+03  0.7561462E-02  0.1072828E+00
         22   -1    0    0    0    0  0.00000000000E+00  0.00000000000E+00  0.22150696522E+04  0.22150696522E+04  0.00000000000E+00 0. -1.
         22   -1    0    0    0    0 -0.00000000000E+00 -0.00000000000E+00 -0.33313248689E+03  0.33313248689E+03  0.00000000000E+00 0.  1.
         24    2    1    2    0    0  0.12869909265E+03 -0.35758487060E+01 -0.18011476359E+03  0.23553333360E+03  0.80364046877E+02 0.  0.
         25    2    1    2    0    0 -0.10914241448E+03  0.51398940958E+02 -0.63416833266E+02  0.18499700999E+03  0.12509309011E+03 0.  0.
        -24    2    1    2    0    0 -0.19556678178E+02 -0.47823092252E+02  0.21254687621E+04  0.21276717955E+04  0.81855351843E+02 0.  0.
        -11    1    3    3    0    0  0.31829766575E+02  0.25949258301E+02 -0.94078963108E+02  0.10265159203E+03  0.00000000000E+00 0.  1.
         12    1    3    3    0    0  0.96869326079E+02 -0.29525107007E+02 -0.86035800484E+02  0.13288174157E+03  0.00000000000E+00 0. -1.
         11    1    5    5    0    0 -0.39484632079E+02 -0.30280316556E+02  0.18990506061E+04  0.18997023815E+04  0.00000000000E+00 0. -1.
        -12    1    5    5    0    0  0.19927953901E+02 -0.17542775696E+02  0.22641815608E+03  0.22796941402E+03  0.00000000000E+00 0.  1.
          5    1    4    4  501    0 -0.58218083616E+02 -0.30054259322E+02 -0.59756383582E+02  0.88774441942E+02  0.41800000000E+01 0.  1.
         -5    1    4    4    0  501 -0.50924330861E+02  0.81453200280E+02 -0.36604496840E+01  0.96222568046E+02  0.41800000000E+01 0.  1.
</event>
<event>
11    1  0.8479398E-009  0.1665932E+03  0.7561462E-02  0.1081035E+00
         22   -1    0    0    0    0  0.00000000000E+00  0.00000000000E+00  0.29356126064E+03  0.29356126064E+03  0.00000000000E+00 0. -1.
         22   -1    0    0    0    0 -0.00000000000E+00 -0.00000000000E+00 -0.24247130648E+04  0.24247130648E+04  0.00000000000E+00 0. -1.
         24    2    1    2    0    0  0.97236019500E+02 -0.56825931074E+02 -0.22722240342E+04  0.22764179352E+04  0.79953264818E+02 0.  0.
         25    2    1    2    0    0 -0.24033955753E+02  0.76668054789E+02 -0.97606627265E+02  0.17785609061E+03  0.12510041417E+03 0.  0.
        -24    2    1    2    0    0 -0.73202063746E+02 -0.19842123714E+02  0.23867885731E+03  0.26400029954E+03  0.83524303167E+02 0.  0.
        -13    1    3    3    0    0  0.41183319024E+02  0.17537898850E+02 -0.67709745321E+03  0.67857542308E+03  0.00000000000E+00 0.  1.
         14    1    3    3    0    0  0.56052700476E+02 -0.74363829925E+02 -0.15951265809E+04  0.15978425122E+04  0.00000000000E+00 0. -1.
         11    1    5    5    0    0 -0.86696574308E+02  0.57132269025E+00  0.16542643028E+03  0.18676864363E+03  0.00000000000E+00 0. -1.
        -12    1    5    5    0    0  0.13494510561E+02 -0.20413446405E+02  0.73252427027E+02  0.77231655911E+02  0.00000000000E+00 0.  1.
          5    1    4    4  501    0  0.20411057597E+02  0.97008797821E+02 -0.71378006172E+02  0.12222769855E+03  0.41800000000E+01 0.  1.
         -5    1    4    4    0  501 -0.44445013351E+02 -0.20340743032E+02 -0.26228621093E+02  0.55628392061E+02  0.41800000000E+01 0.  1.
</event>
<event>
11    1  0.8479398E-009  0.1326763E+03  0.7561462E-02  0.1116024E+00
         22   -1    0    0    0    0  0.00000000000E+00  0.00000000000E+00  0.10385689521E+03  0.10385689521E+03  0.00000000000E+00 0.  1.
         22   -1    0    0    0    0 -0.00000000000E+00 -0.00000000000E+00 -0.13897055724E+04  0.13897055724E+04  0.00000000000E+00 0. -1.
        -24    2    1    2    0    0  0.35060374339E+02  0.50765230544E+01 -0.77496086353E+03  0.78022459552E+03  0.83253099092E+02 0.  0.
         25    2    1    2    0    0  0.10247170837E+02 -0.23963650372E+00 -0.58220201108E+03  0.59557675749E+03  0.12508968954E+03 0.  0.
         24    2    1    2    0    0 -0.45307545176E+02 -0.48368865507E+01  0.71314197372E+02  0.11776111464E+03  0.81888926311E+02 0.  0.
        -11    1    5    5    0    0 -0.28030242650E+02 -0.23582332348E+02  0.82237168342E+02  0.90026511422E+02  0.00000000000E+00 0.  1.
         12    1    5    5    0    0 -0.17277302526E+02  0.18745445797E+02 -0.10922970969E+02  0.27734603215E+02  0.00000000000E+00 0. -1.
         11    1    3    3    0    0 -0.13901116955E+02 -0.26703198700E+02 -0.34661254817E+03  0.34791746208E+03  0.00000000000E+00 0. -1.
        -12    1    3    3    0    0  0.48961491294E+02  0.31779721754E+02 -0.42834831536E+03  0.43230713343E+03  0.00000000000E+00 0.  1.
          5    1    4    4  501    0  0.10480874740E+02 -0.53849326456E+02 -0.14512164664E+03  0.15520104194E+03  0.41800000000E+01 0.  1.
         -5    1    4    4    0  501 -0.23370390330E+00  0.53609689953E+02 -0.43708036444E+03  0.44037571555E+03  0.41800000000E+01 0.  1.
</event>
<event>
11    1  0.8479398E-009  0.3269110E+03  0.7561462E-02  0.9894041E-01
         22   -1    0    0    0    0  0.00000000000E+00  0.00000000000E+00  0.15070803466E+04  0.15070803466E+04  0.00000000000E+00 0. -1.
         22   -1    0    0    0    0 -0.00000000000E+00 -0.00000000000E+00 -0.48051399555E+03  0.48051399555E+03  0.00000000000E+00 0. -1.
        -24    2    1    2    0    0  0.12960526575E+02 -0.30871103444E+03 -0.38661402888E+03  0.50157222628E+03  0.81448221680E+02 0.  0.
         25    2    1    2    0    0 -0.44760717342E+02  0.23369928172E+03  0.51672591221E+03  0.58247095020E+03  0.12509142014E+03 0.  0.
         24    2    1    2    0    0  0.31800190768E+02  0.75011752722E+02  0.89645446771E+03  0.90355116564E+03  0.78333141632E+02 0.  0.
        -13    1    5    5    0    0  0.39746936012E+02  0.43080543918E+02  0.27265286814E+03  0.27888230258E+03  0.00000000000E+00 0.  1.
         14    1    5    5    0    0 -0.79467452445E+01  0.31931208804E+02  0.62380159957E+03  0.62466886306E+03  0.00000000000E+00 0. -1.
         13    1    3    3    0    0  0.93323669753E+01 -0.29095256042E+03 -0.32027141303E+03  0.43279817871E+03  0.00000000000E+00 0. -1.
        -14    1    3    3    0    0  0.36281595995E+01 -0.17758474016E+02 -0.66342615847E+02  0.68774047568E+02  0.00000000000E+00 0.  1.
          5    1    4    4  501    0  0.17292726387E+02  0.15338561367E+02  0.14500667190E+03  0.14689696098E+03  0.41800000000E+01 0. -1.
         -5    1    4    4    0  501 -0.62053443729E+02  0.21836072035E+03  0.37171924031E+03  0.43557398922E+03  0.41800000000E+01 0. -1.
</event>
<event>
11    1  0.8479398E-009  0.1642589E+03  0.7561462E-02  0.1083139E+00
         22   -1    0    0    0    0  0.00000000000E+00  0.00000000000E+00  0.34395589382E+03  0.34395589382E+03  0.00000000000E+00 0.  1.
         22   -1    0    0    0    0 -0.00000000000E+00 -0.00000000000E+00 -0.23588938775E+04  0.23588938775E+04  0.00000000000E+00 0. -1.
         24    2    1    2    0    0  0.38300799083E+02 -0.10687319013E+03 -0.18387231951E+04  0.18439885501E+04  0.80634699774E+02 0.  0.
         25    2    1    2    0    0 -0.89389243470E+02  0.41183600175E+02 -0.49508670904E+03  0.52004213484E+03  0.12508575764E+03 0.  0.
        -24    2    1    2    0    0  0.51088444387E+02  0.65689589959E+02  0.31887192046E+03  0.33881908635E+03  0.78701462745E+02 0.  0.
        -11    1    3    3    0    0  0.37294831567E+02 -0.53083521476E+01 -0.50746193147E+03  0.50885822677E+03  0.00000000000E+00 0.  1.
         12    1    3    3    0    0  0.10059675163E+01 -0.10156483799E+03 -0.13312612636E+04  0.13351303234E+04  0.00000000000E+00 0. -1.
         11    1    5    5    0    0  0.49320117404E+02  0.28653728337E+02  0.87198476940E+02  0.10419733446E+03  0.00000000000E+00 0. -1.
        -12    1    5    5    0    0  0.17683269834E+01  0.37035861623E+02  0.23167344352E+03  0.23462175189E+03  0.00000000000E+00 0.  1.
          5    1    4    4  501    0 -0.93182446699E+02  0.57433653610E+02 -0.23379069044E+03  0.25818046455E+03  0.41800000000E+01 0. -1.
         -5    1    4    4    0  501  0.37932032292E+01 -0.16250053435E+02 -0.26129601860E+03  0.26186167028E+03  0.41800000000E+01 0. -1.
</event>
<event>
11    1  0.8479398E-009  0.1411095E+03  0.7561462E-02  0.1106326E+00
         22   -1    0    0    0    0  0.00000000000E+00  0.00000000000E+00  0.74913137048E+03  0.74913137048E+03  0.00000000000E+00 0. -1.
         22   -1    0    0    0    0 -0.00000000000E+00 -0.00000000000E+00 -0.86551590512E+02  0.86551590512E+02  0.00000000000E+00 0. -1.
        -24    2    1    2    0    0  0.34627352657E+02 -0.12339375817E+02 -0.34648150130E+02  0.95345244941E+02  0.80863512648E+02 0.  0.
         25    2    1    2    0    0 -0.81514320417E+02  0.35287645837E+02  0.41148513156E+03  0.43915556496E+03  0.12509114420E+03 0.  0.
         24    2    1    2    0    0  0.46886967760E+02 -0.22948270021E+02  0.28574279854E+03  0.30118215109E+03  0.79603582695E+02 0.  0.
        -13    1    5    5    0    0  0.47524593589E+02  0.15270951320E+02  0.10267522180E+03  0.11416650175E+03  0.00000000000E+00 0.  1.
         14    1    5    5    0    0 -0.63762582899E+00 -0.38219221341E+02  0.18306757674E+03  0.18701564934E+03  0.00000000000E+00 0. -1.
         11    1    3    3    0    0  0.28151260820E+02 -0.25340718949E+02 -0.57150294362E+02  0.68562392521E+02  0.00000000000E+00 0. -1.
        -12    1    3    3    0    0  0.64760918372E+01  0.13001343133E+02  0.22502144231E+02  0.26782852420E+02  0.00000000000E+00 0.  1.
          5    1    4    4  501    0 -0.44356869759E+02  0.81308112498E+02  0.22117065286E+03  0.23981757888E+03  0.41800000000E+01 0.  1.
         -5    1    4    4    0  501 -0.37157450658E+02 -0.46020466661E+02  0.19031447870E+03  0.19933798608E+03  0.41800000000E+01 0.  1.
</event>
<event>
11    1  0.8479398E-009  0.1475507E+03  0.7561462E-02  0.1099408E+00
         22   -1    0    0    0    0  0.00000000000E+00  0.00000000000E+00  0.21761656460E+03  0.21761656460E+03  0.00000000000E+00 0. -1.
         22   -1    0    0    0    0 -0.00000000000E+00 -0.00000000000E+00 -0.96333215220E+03  0.96333215220E+03  0.00000000000E+00 0.  1.
        -24    2    1    2    0    0 -0.19218513684E+02 -0.77482645046E+02 -0.80395371398E+03  0.81204621162E+03  0.81881402229E+02 0.  0.
         25    2    1    2    0    0  0.53548479069E+01  0.65554984224E+02 -0.11144414099E+03  0.17997774515E+03  0.12508421896E+03 0.  0.
         24    2    1    2    0    0  0.13863665777E+02  0.11927660821E+02  0.16968226737E+03  0.18892476004E+03  0.81030998847E+02 0.  0.
        -11    1    5    5    0    0  0.19136375999E+02 -0.25885701949E+02  0.29594803739E+02  0.43727827069E+02  0.00000000000E+00 0.  1.
         12    1    5    5    0    0 -0.52727102219E+01  0.37813362771E+02  0.14008746363E+03  0.14519693297E+03  0.00000000000E+00 0. -1.
         11    1    3    3    0    0 -0.99390360022E+01  0.10923827101E+02 -0.35235050399E+02  0.38205015532E+02  0.00000000000E+00 0. -1.
        -12    1    3    3    0    0 -0.92794776817E+01 -0.88406472147E+02 -0.76871866358E+03  0.77384119608E+03  0.00000000000E+00 0.  1.
          5    1    4    4  501    0  0.78459231311E+01  0.41326294519E+02  0.19620830955E+02  0.46603331810E+02  0.41800000000E+01 0.  1.
         -5    1    4    4    0  501 -0.24910752242E+01  0.24228689706E+02 -0.13106497195E+03  0.13337441334E+03  0.41800000000E+01 0.  1.
</event>
<event>
11    1  0.8479398E-009  0.1344601E+03  0.7561462E-02  0.1113907E+00
         22   -1    0    0    0    0  0.00000000000E+00  0.00000000000E+00  0.51989506624E+03  0.51989506624E+03  0.00000000000E+00 0. -1.
         22   -1    0    0    0    0 -0.00000000000E+00 -0.00000000000E+00 -0.30154596038E+03  0.30154596038E+03  0.00000000000E+00 0.  1.
        -24    2    1    2    0    0 -0.45155530783E+02 -0.27897193051E+01 -0.23265950331E+03  0.24991322872E+03  0.79242494369E+02 0.  0.
         25    2    1    2    0    0  0.12552467806E+02  0.42627812048E+02  0.24833646690E+02  0.13505043347E+03  0.12508882749E+03 0.  0.
         24    2    1    2    0    0  0.32603062977E+02 -0.39838092743E+02  0.42617496249E+03  0.43647736443E+03  0.78976943828E+02 0.  0.
        -13    1    5    5    0    0  0.51604871893E+01  0.24102172374E+02  0.10571412105E+03  0.10854962336E+03  0.00000000000E+00 0.  1.
         14    1    5    5    0    0  0.27442575788E+02 -0.63940265117E+02  0.32046084144E+03  0.32792774107E+03  0.00000000000E+00 0. -1.
         11    1    3    3    0    0 -0.27482475157E+02  0.22651878920E+01 -0.14831844335E+02  0.31311357737E+02  0.00000000000E+00 0. -1.
        -12    1    3    3    0    0 -0.17673055626E+02 -0.50549071970E+01 -0.21782765898E+03  0.21860187098E+03  0.00000000000E+00 0.  1.
          5    1    4    4  501    0  0.55151090718E+02  0.60584423754E+02 -0.77479994323E+00  0.82037722567E+02  0.41800000000E+01 0. -1.
         -5    1    4    4    0  501 -0.42598622912E+02 -0.17956611707E+02  0.25608446633E+02  0.53012710900E+02  0.41800000000E+01 0. -1.
</event>
<event>
11    1  0.8479398E-009  0.2068461E+03  0.7561462E-02  0.1049785E+00
         22   -1    0    0    0    0  0.00000000000E+00  0.00000000000E+00  0.10507061016E+04  0.10507061016E+04  0.00000000000E+00 0. -1.
         22   -1    0    0    0    0 -0.00000000000E+00 -0.00000000000E+00 -0.30994657762E+04  0.30994657762E+04  0.00000000000E+00 0. -1.
        -24    2    1    2    0    0 -0.85761791628E+02 -0.14459297793E+03 -0.30187096035E+04  0.30245140627E+04  0.82555623928E+02 0.  0.
         25    2    1    2    0    0 -0.71065655924E+02  0.90714002789E+02  0.35855109719E+02  0.17381724318E+03  0.12508991718E+03 0.  0.
         24    2    1    2    0    0  0.15682744755E+03  0.53878975145E+02  0.93409481921E+03  0.95184057189E+03  0.77262867809E+02 0.  0.
        -11    1    5    5    0    0  0.36576345834E+01  0.36730604225E+01  0.20821241030E+03  0.20827692495E+03  0.00000000000E+00 0.  1.
         12    1    5    5    0    0  0.15316981297E+03  0.50205914722E+02  0.72588240892E+03  0.74356364694E+03  0.00000000000E+00 0. -1.
         11    1    3    3    0    0 -0.80199740507E+02 -0.15525440714E+03 -0.27613108637E+04  0.27668345840E+04  0.00000000000E+00 0. -1.
        -12    1    3    3    0    0 -0.55620511211E+01  0.10661429204E+02 -0.25739873982E+03  0.25767947871E+03  0.00000000000E+00 0.  1.
          5    1    4    4  501    0 -0.86061886141E+02  0.24274189179E+02  0.52230444192E+02  0.10364061080E+03  0.41800000000E+01 0.  1.
         -5    1    4    4    0  501  0.14996230216E+02  0.66439813611E+02 -0.16375334473E+02  0.70176632381E+02  0.41800000000E+01 0.  1.
</event>
<event>
11    1  0.8479398E-009  0.1600762E+03  0.7561462E-02  0.1087006E+00
         22   -1    0    0    0    0  0.00000000000E+00  0.00000000000E+00  0.12883976837E+04  0.12883976837E+04  0.00000000000E+00 0. -1.
         22   -1    0    0    0    0 -0.00000000000E+00 -0.00000000000E+00 -0.25154232297E+03  0.25154232297E+03  0.00000000000E+00 0. -1.
        -24    2    1    2    0    0  0.77037914021E+02  0.59518009834E+02 -0.15568029948E+03  0.20014981197E+03  0.79664031373E+02 0.  0.
         25    2    1    2    0    0 -0.33567995221E+02 -0.13367838493E+03  0.51929168011E+02  0.19323367789E+03  0.12508355160E+03 0.  0.
         24    2    1    2    0    0 -0.43469918800E+02  0.74160375097E+02  0.11406064922E+04  0.11465565168E+04  0.78862418731E+02 0.  0.
        -11    1    5    5    0    0  0.13548888478E+02  0.17101779700E+02  0.81096030407E+02  0.83979815407E+02  0.00000000000E+00 0.  1.
         12    1    5    5    0    0 -0.57018807278E+02  0.57058595397E+02  0.10595104618E+04  0.10625767014E+04  0.00000000000E+00 0. -1.
         11    1    3    3    0    0  0.73488372453E+01  0.42645803050E+02 -0.10130735924E+03  0.11016283839E+03  0.00000000000E+00 0. -1.
        -12    1    3    3    0    0  0.69689076776E+02  0.16872206784E+02 -0.54372940246E+02  0.89986973583E+02  0.00000000000E+00 0.  1.
          5    1    4    4  501    0 -0.38391241468E+02 -0.82057392180E+02  0.90774432895E+02  0.12831513200E+03  0.41800000000E+01 0.  1.
         -5    1    4    4    0  501  0.48232462471E+01 -0.51620992751E+02 -0.38845264884E+02  0.64918545893E+02  0.41800000000E+01 0.  1.
</event>
<event>
11    1  0.8479398E-009  0.1306071E+03  0.7561462E-02  0.1118525E+00
         22   -1    0    0    0    0  0.00000000000E+00  0.00000000000E+00  0.17028405573E+03  0.17028405573E+03  0.00000000000E+00 0.  1.
         22   -1    0    0    0    0 -0.00000000000E+00 -0.00000000000E+00 -0.14014588212E+04  0.14014588212E+04  0.00000000000E+00 0.  1.
        -24    2    1    2    0    0 -0.35607380394E+02  0.12675874044E+02 -0.13278847560E+04  0.13311285015E+04  0.84832770492E+02 0.  0.
         25    2    1    2    0    0  0.28108282226E+02 -0.33308654743E+00  0.21890142752E+02  0.13006393291E+03  0.12508901557E+03 0.  0.
         24    2    1    2    0    0  0.74990981674E+01 -0.12342787497E+02  0.74819847778E+02  0.11055044253E+03  0.80092508048E+02 0.  0.
        -11    1    5    5    0    0  0.32409184765E+02 -0.19521735383E+02  0.75682025079E+02  0.84612187832E+02  0.00000000000E+00 0.  1.
         12    1    5    5    0    0 -0.24910086598E+02  0.71789478866E+01 -0.86217730153E+00  0.25938254698E+02  0.00000000000E+00 0. -1.
         11    1    3    3    0    0 -0.10199772735E+01 -0.21662812534E+02 -0.10222513469E+03  0.10450021992E+03  0.00000000000E+00 0. -1.
        -12    1    3    3    0    0 -0.34587403120E+02  0.34338686579E+02 -0.12256596213E+04  0.12266282815E+04  0.00000000000E+00 0.  1.
          5    1    4    4  501    0  0.59433028542E+02 -0.39754854216E+02 -0.68234650544E+01  0.71949742117E+02  0.41800000000E+01 0. -1.
         -5    1    4    4    0  501 -0.31324746315E+02  0.39421767669E+02  0.28713607806E+02  0.58114190789E+02  0.41800000000E+01 0. -1.
</event>
<event>
11    1  0.8479398E-009  0.1740305E+03  0.7561462E-02  0.1074576E+00
         22   -1    0    0    0    0  0.00000000000E+00  0.00000000000E+00  0.31956530066E+03  0.31956530066E+03  0.00000000000E+00 0.  1.
         22   -1    0    0    0    0 -0.00000000000E+00 -0.00000000000E+00 -0.19600365597E+04  0.19600365597E+04  0.00000000000E+00 0. -1.
         24    2    1    2    0    0  0.10770249786E+03 -0.58612644172E+02 -0.18848019964E+04  0.18908617377E+04  0.88567914031E+02 0.  0.
         25    2    1    2    0    0 -0.52006018084E+02  0.58404596804E+02  0.26382644306E+02  0.14986416754E+03  0.12508997540E+03 0.  0.
        -24    2    1    2    0    0 -0.55696479776E+02  0.20804736816E+00  0.21794809313E+03  0.23887595504E+03  0.80362985606E+02 0.  0.
        -13    1    3    3    0    0  0.37222647951E+01 -0.43270142636E+02 -0.72814732950E+03  0.72944135745E+03  0.00000000000E+00 0.  1.
         14    1    3    3    0    0  0.10398023306E+03 -0.15342501536E+02 -0.11566546669E+04  0.11614203803E+04  0.00000000000E+00 0. -1.
         13    1    5    5    0    0 -0.42767648882E+02 -0.35756329409E+02  0.95250723124E+02  0.11036433817E+03  0.00000000000E+00 0. -1.
        -14    1    5    5    0    0 -0.12928830894E+02  0.35964376778E+02  0.12269737000E+03  0.12851161687E+03  0.00000000000E+00 0.  1.
          5    1    4    4  501    0 -0.36805670364E+01  0.69321488425E+02  0.58327803762E+02  0.90766846496E+02  0.41800000000E+01 0.  1.
         -5    1    4    4    0  501 -0.48325451047E+02 -0.10916891621E+02 -0.31945159456E+02  0.59097321041E+02  0.41800000000E+01 0.  1.
</event>
<event>
11    1  0.8479398E-009  0.2028510E+03  0.7561462E-02  0.1052526E+00
         22   -1    0    0    0    0  0.00000000000E+00  0.00000000000E+00  0.18556907690E+03  0.18556907690E+03  0.00000000000E+00 0. -1.
         22   -1    0    0    0    0 -0.00000000000E+00 -0.00000000000E+00 -0.16762380225E+04  0.16762380225E+04  0.00000000000E+00 0. -1.
         24    2    1    2    0    0  0.18556538491E+03  0.25805922123E+02 -0.14486982009E+04  0.14629745646E+04  0.80421649335E+02 0.  0.
         25    2    1    2    0    0 -0.54294175001E+02 -0.24088997046E+02 -0.15494148006E+03  0.20780336095E+03  0.12508891781E+03 0.  0.
        -24    2    1    2    0    0 -0.13127120991E+03 -0.17169250778E+01  0.11297073530E+03  0.19102917391E+03  0.80589576681E+02 0.  0.
        -11    1    3    3    0    0  0.32277833288E+01  0.21026788629E+02 -0.17278909708E+03  0.17409370033E+03  0.00000000000E+00 0.  1.
         12    1    3    3    0    0  0.18233760158E+03  0.47791334943E+01 -0.12759091038E+04  0.12888808642E+04  0.00000000000E+00 0. -1.
         13    1    5    5    0    0 -0.75117442978E+00 -0.13162536178E+01  0.42827999262E+02  0.42854804951E+02  0.00000000000E+00 0. -1.
        -14    1    5    5    0    0 -0.13052003548E+03 -0.40067146003E+00  0.70142736038E+02  0.14817436896E+03  0.00000000000E+00 0.  1.
          5    1    4    4  501    0  0.22356440849E+02 -0.50141071985E+02 -0.81898216120E+02  0.98684992531E+02  0.41800000000E+01 0.  1.
         -5    1    4    4    0  501 -0.76650615849E+02  0.26052074939E+02 -0.73043263938E+02  0.10911836841E+03  0.41800000000E+01 0.  1.
</event>
<event>
11    1  0.8479398E-009  0.1567657E+03  0.7561462E-02  0.1090159E+00
         22   -1    0    0    0    0  0.00000000000E+00  0.00000000000E+00  0.14413579423E+04  0.14413579423E+04  0.00000000000E+00 0.  1.
         22   -1    0    0    0    0 -0.00000000000E+00 -0.00000000000E+00 -0.65140637290E+03  0.65140637290E+03  0.00000000000E+00 0.  1.
         24    2    1    2    0    0 -0.24524359551E+02 -0.17036758497E+02 -0.62721944920E+03  0.63307182276E+03  0.80523288364E+02 0.  0.
         25    2    1    2    0    0 -0.64663388600E+02 -0.26925827173E+02  0.27267572958E+03  0.30806850313E+03  0.12509114727E+03 0.  0.
        -24    2    1    2    0    0  0.89187748150E+02  0.43962585670E+02  0.11444952891E+04  0.11516239893E+04  0.80505793530E+02 0.  0.
        -11    1    3    3    0    0 -0.44458815505E+02 -0.20673750094E+02 -0.57455911906E+03  0.57664735456E+03  0.00000000000E+00 0.  1.
         12    1    3    3    0    0  0.19934455954E+02  0.36369915976E+01 -0.52660330135E+02  0.56424468203E+02  0.00000000000E+00 0. -1.
         11    1    5    5    0    0  0.83622341502E+02  0.37200744495E+00  0.70753610200E+03  0.71246064455E+03  0.00000000000E+00 0. -1.
        -12    1    5    5    0    0  0.55654066489E+01  0.43590578225E+02  0.43695918705E+03  0.43916334480E+03  0.00000000000E+00 0.  1.
          5    1    4    4  501    0 -0.95883243283E+02 -0.13070533683E+01  0.22969585940E+03  0.24894369837E+03  0.41800000000E+01 0. -1.
         -5    1    4    4    0  501  0.31219854683E+02 -0.25618773805E+02  0.42979870172E+02  0.59124804758E+02  0.41800000000E+01 0. -1.
</event>
<event>
11    1  0.8479398E-009  0.1363654E+03  0.7561462E-02  0.1111686E+00
         22   -1    0    0    0    0  0.00000000000E+00  0.00000000000E+00  0.57087356372E+03  0.57087356372E+03  0.00000000000E+00 0. -1.
         22   -1    0    0    0    0 -0.00000000000E+00 -0.00000000000E+00 -0.56327639355E+03  0.56327639355E+03  0.00000000000E+00 0. -1.
        -24    2    1    2    0    0  0.40585060617E+02  0.35833626591E+02 -0.51480563381E+03  0.52432593294E+03  0.83436487273E+02 0.  0.
         25    2    1    2    0    0 -0.26971037966E+02 -0.58004878238E+02  0.85083603723E+02  0.16424630207E+03  0.12508247412E+03 0.  0.
         24    2    1    2    0    0 -0.13614022651E+02  0.22171251647E+02  0.43731920026E+03  0.44557772226E+03  0.81329684913E+02 0.  0.
        -11    1    5    5    0    0 -0.35106033558E+02 -0.15155646278E+02  0.13893783963E+03  0.14410361025E+03  0.00000000000E+00 0.  1.
         12    1    5    5    0    0  0.21492010907E+02  0.37326897925E+02  0.29838136063E+03  0.30147411201E+03  0.00000000000E+00 0. -1.
         11    1    3    3    0    0  0.56300356049E+02  0.51833136732E+02 -0.37446788735E+03  0.38220753892E+03  0.00000000000E+00 0. -1.
        -12    1    3    3    0    0 -0.15715295432E+02 -0.15999510141E+02 -0.14033774647E+03  0.14211839402E+03  0.00000000000E+00 0.  1.
          5    1    4    4  501    0  0.96895545021E+01 -0.14991243975E+01  0.95384865012E+02  0.95978537777E+02  0.41800000000E+01 0.  1.
         -5    1    4    4    0  501 -0.36660592468E+02 -0.56505753840E+02 -0.10301261290E+02  0.68267764291E+02  0.41800000000E+01 0.  1.
</event>
<event>
11    1  0.8479398E-009  0.1391247E+03  0.7561462E-02  0.1108540E+00
         22   -1    0    0    0    0  0.00000000000E+00  0.00000000000E+00  0.38110115203E+04  0.38110115203E+04  0.00000000000E+00 0. -1.
         22   -1    0    0    0    0 -0.00000000000E+00 -0.00000000000E+00 -0.89009799160E+03  0.89009799160E+03  0.00000000000E+00 0. -1.
         24    2    1    2    0    0  0.52631996081E+02 -0.30345375082E+02 -0.87286204234E+03  0.87890795014E+03  0.83066666366E+02 0.  0.
         25    2    1    2    0    0 -0.86470648918E+02  0.19331598802E+02  0.41731750076E+03  0.44457765268E+03  0.12507801159E+03 0.  0.
        -24    2    1    2    0    0  0.33838652838E+02  0.11013776280E+02  0.33764580703E+04  0.33776239091E+04  0.81288456248E+02 0.  0.
        -11    1    3    3    0    0  0.57713538232E+01  0.20338732954E+02 -0.71014346458E+02  0.74094601598E+02  0.00000000000E+00 0.  1.
         12    1    3    3    0    0  0.46860642258E+02 -0.50684108036E+02 -0.80184769589E+03  0.80481334855E+03  0.00000000000E+00 0. -1.
         11    1    5    5    0    0  0.48417020791E+01  0.37724403597E+02  0.24890019764E+04  0.24892925523E+04  0.00000000000E+00 0. -1.
        -12    1    5    5    0    0  0.28996950759E+02 -0.26710627317E+02  0.88745609390E+03  0.88833135674E+03  0.00000000000E+00 0.  1.
          5    1    4    4  501    0  0.85109991714E+01  0.30429296317E+02  0.24830574182E+03  0.25034295078E+03  0.41800000000E+01 0.  1.
         -5    1    4    4    0  501 -0.94981648090E+02 -0.11097697514E+02  0.16901175894E+03  0.19423470190E+03  0.41800000000E+01 0.  1.
</event>
<event>
11    1  0.8479398E-009  0.1438850E+03  0.7561462E-02  0.1103296E+00
         22   -1    0    0    0    0  0.00000000000E+00  0.00000000000E+00  0.14240607611E+04  0.14240607611E+04  0.00000000000E+00 0.  1.
         22   -1    0    0    0    0 -0.00000000000E+00 -0.00000000000E+00 -0.38074699847E+03  0.38074699847E+03  0.00000000000E+00 0. -1.
        -24    2    1    2    0    0  0.51743467706E+02 -0.53155728901E+02 -0.34240713195E+03  0.35883419368E+03  0.77565563090E+02 0.  0.
         25    2    1    2    0    0 -0.95143253405E+01  0.15882580514E+02  0.11363237481E+03  0.17000512938E+03  0.12508656467E+03 0.  0.
         24    2    1    2    0    0 -0.42229142366E+02  0.37273148386E+02  0.12720885198E+04  0.12759684365E+04  0.81936931705E+02 0.  0.
        -13    1    5    5    0    0 -0.53155729095E+02  0.37070911312E+02  0.12459902118E+04  0.12476743934E+04  0.00000000000E+00 0.  1.
         14    1    5    5    0    0  0.10926586730E+02  0.20223707446E+00  0.26098307955E+02  0.28294043110E+02  0.00000000000E+00 0. -1.
         11    1    3    3    0    0  0.58981795766E+02 -0.50521408078E+02 -0.34243533477E+03  0.35113134780E+03  0.00000000000E+00 0. -1.
        -12    1    3    3    0    0 -0.72383280598E+01 -0.26343208224E+01  0.28202819428E-01  0.77028458829E+01  0.00000000000E+00 0.  1.
          5    1    4    4  501    0 -0.27599257681E+02  0.66706301946E+02  0.63136188288E+02  0.95995314549E+02  0.41800000000E+01 0. -1.
         -5    1    4    4    0  501  0.18084932340E+02 -0.50823721432E+02  0.50496186524E+02  0.74009814832E+02  0.41800000000E+01 0. -1.
</event>
<event>
11    1  0.8479398E-009  0.1943087E+03  0.7561462E-02  0.1058623E+00
         22   -1    0    0    0    0  0.00000000000E+00  0.00000000000E+00  0.96589521725E+03  0.96589521725E+03  0.00000000000E+00 0.  1.
         22   -1    0    0    0    0 -0.00000000000E+00 -0.00000000000E+00 -0.23903138766E+03  0.23903138766E+03  0.00000000000E+00 0.  1.
        -24    2    1    2    0    0  0.37314902991E+02 -0.23100629881E+02 -0.14089778596E+03  0.16803781638E+03  0.80364672326E+02 0.  0.
         25    2    1    2    0    0 -0.18051250648E+03  0.42988876297E+02  0.89018774373E+02  0.24084069879E+03  0.12508833488E+03 0.  0.
         24    2    1    2    0    0  0.14319760349E+03 -0.19888246416E+02  0.77874284119E+03  0.79604808974E+03  0.79693490885E+02 0.  0.
        -11    1    5    5    0    0  0.11074445138E+03 -0.98045104698E+01  0.71702045662E+03  0.72558858670E+03  0.00000000000E+00 0.  1.
         12    1    5    5    0    0  0.32453152104E+02 -0.10083735946E+02  0.61722384570E+02  0.70459503043E+02  0.00000000000E+00 0. -1.
         11    1    3    3    0    0  0.25800154661E+02  0.24772918509E+02 -0.29937917265E+02  0.46643588650E+02  0.00000000000E+00 0. -1.
        -12    1    3    3    0    0  0.11514748330E+02 -0.47873548390E+02 -0.11095986870E+03  0.12139422773E+03  0.00000000000E+00 0.  1.
          5    1    4    4  501    0 -0.16339926443E+03  0.12764602992E+01  0.10329876717E+03  0.19336250068E+03  0.41800000000E+01 0.  1.
         -5    1    4    4    0  501 -0.17113242043E+02  0.41712415998E+02 -0.14279992800E+02  0.47478198112E+02  0.41800000000E+01 0.  1.
</event>
<event>
11    1  0.8479398E-009  0.1429040E+03  0.7561462E-02  0.1104358E+00
         22   -1    0    0    0    0  0.00000000000E+00  0.00000000000E+00  0.98890905189E+03  0.98890905189E+03  0.00000000000E+00 0.  1.
         22   -1    0    0    0    0 -0.00000000000E+00 -0.00000000000E+00 -0.58874167884E+03  0.58874167884E+03  0.00000000000E+00 0. -1.
        -24    2    1    2    0    0 -0.30276200818E+02 -0.63349266649E+02 -0.54481500616E+03  0.55491035303E+03  0.78564184183E+02 0.  0.
         25    2    1    2    0    0 -0.12287033384E+02  0.50928845506E+02  0.89794641014E+02  0.16265390103E+03  0.12509394658E+03 0.  0.
         24    2    1    2    0    0  0.42563234202E+02  0.12420421142E+02  0.85518773820E+03  0.86008647668E+03  0.80229570774E+02 0.  0.
        -11    1    5    5    0    0  0.24179363494E+02  0.46778493071E+02  0.50412652758E+03  0.50686923841E+03  0.00000000000E+00 0.  1.
         12    1    5    5    0    0  0.18383870708E+02 -0.34358071929E+02  0.35106121062E+03  0.35321723827E+03  0.00000000000E+00 0. -1.
         11    1    3    3    0    0 -0.16501591438E+02 -0.67650733274E+02 -0.52875076487E+03  0.53331631850E+03  0.00000000000E+00 0. -1.
        -12    1    3    3    0    0 -0.13774609380E+02  0.43014666257E+01 -0.16064241295E+02  0.21594034525E+02  0.00000000000E+00 0.  1.
          5    1    4    4  501    0  0.30140291029E+02  0.78943153092E+02  0.56605418738E+02  0.10179442221E+03  0.41800000000E+01 0.  1.
         -5    1    4    4    0  501 -0.42427324413E+02 -0.28014307586E+02  0.33189222275E+02  0.60859478815E+02  0.41800000000E+01 0.  1.
</event>
<event>
11    1  0.8479398E-009  0.1450083E+03  0.7561462E-02  0.1102091E+00
         22   -1    0    0    0    0  0.00000000000E+00  0.00000000000E+00  0.14332855081E+04  0.14332855081E+04  0.00000000000E+00 0.  1.
         22   -1    0    0    0    0 -0.00000000000E+00 -0.00000000000E+00 -0.95172925251E+03  0.95172925251E+03  0.00000000000E+00 0. -1.
         24    2    1    2    0    0 -0.56048113719E+02  0.48858126226E+02 -0.85330955886E+03  0.86025757772E+03  0.79858557726E+02 0.  0.
         25    2    1    2    0    0  0.72914606546E+01 -0.76244782087E+02 -0.35539553940E+02  0.15091959902E+03  0.12508890151E+03 0.  0.
        -24    2    1    2    0    0  0.48756653065E+02  0.27386655861E+02  0.13704053684E+04  0.13738375838E+04  0.79319562532E+02 0.  0.
        -13    1    3    3    0    0 -0.75438227406E+02  0.31200768869E+02 -0.69682756609E+03  0.70159323756E+03  0.00000000000E+00 0.  1.
         14    1    3    3    0    0  0.19390113687E+02  0.17657357357E+02 -0.15648199277E+03  0.15866434016E+03  0.00000000000E+00 0. -1.
         13    1    5    5    0    0 -0.67214752457E+01  0.39546385442E+02  0.53099816505E+03  0.53251116994E+03  0.00000000000E+00 0. -1.
        -14    1    5    5    0    0  0.55478128310E+02 -0.12159729582E+02  0.83940720332E+03  0.84132641390E+03  0.00000000000E+00 0.  1.
          5    1    4    4  501    0 -0.52422037956E+02 -0.23534168281E+02  0.10884283413E+02  0.58633328113E+02  0.41800000000E+01 0.  1.
         -5    1    4    4    0  501  0.59713498611E+02 -0.52710613806E+02 -0.46423837353E+02  0.92286270911E+02  0.41800000000E+01 0.  1.
</event>
<event>
11    1  0.8479398E-009  0.1338452E+03  0.7561462E-02  0.1114633E+00
         22   -1    0    0    0    0  0.00000000000E+00  0.00000000000E+00  0.61215626813E+03  0.61215626813E+03  0.00000000000E+00 0.  1.
         22   -1    0    0    0    0 -0.00000000000E+00 -0.00000000000E+00 -0.43627558009E+03  0.43627558009E+03  0.00000000000E+00 0. -1.
        -24    2    1    2    0    0 -0.38560290105E+02 -0.30704242347E+01 -0.38688425857E+03  0.39678532441E+03  0.79138111299E+02 0.  0.
         25    2    1    2    0    0  0.47458920109E+01 -0.33857294271E+02  0.63277315274E+02  0.14428979708E+03  0.12508671811E+03 0.  0.
         24    2    1    2    0    0  0.33814398094E+02  0.36927718505E+02  0.49948763134E+03  0.50735672673E+03  0.73592692419E+02 0.  0.
        -13    1    5    5    0    0  0.47706595873E+02  0.50486779285E+02  0.40160938530E+03  0.40757199674E+03  0.00000000000E+00 0.  1.
         14    1    5    5    0    0 -0.13892197779E+02 -0.13559060780E+02  0.97878246048E+02  0.99784729983E+02  0.00000000000E+00 0. -1.
         11    1    3    3    0    0 -0.57584957519E+02  0.16487534402E+02 -0.29064676667E+03  0.29675479625E+03  0.00000000000E+00 0. -1.
        -12    1    3    3    0    0  0.19024667414E+02 -0.19557958637E+02 -0.96237491902E+02  0.10003052816E+03  0.00000000000E+00 0.  1.
          5    1    4    4  501    0 -0.33455169862E+02  0.36560864491E+01 -0.24186820330E+02  0.41654411967E+02  0.41800000000E+01 0. -1.
         -5    1    4    4    0  501  0.38201061873E+02 -0.37513380720E+02  0.87464135604E+02  0.10263538512E+03  0.41800000000E+01 0. -1.
</event>
<event>
11    1  0.8479398E-009  0.1384133E+03  0.7561462E-02  0.1109343E+00
         22   -1    0    0    0    0  0.00000000000E+00  0.00000000000E+00  0.31437981380E+03  0.31437981380E+03  0.00000000000E+00 0.  1.
         22   -1    0    0    0    0 -0.00000000000E+00 -0.00000000000E+00 -0.68570180950E+03  0.68570180950E+03  0.00000000000E+00 0. -1.
        -24    2    1    2    0    0  0.62674029459E+01  0.27892824123E+02 -0.54799035311E+03  0.55487229644E+03  0.82295493654E+02 0.  0.
         25    2    1    2    0    0  0.52388781967E+02 -0.37036825896E+02 -0.82521158477E+02  0.16301357178E+03  0.12508945615E+03 0.  0.
         24    2    1    2    0    0 -0.58656184913E+02  0.91440017725E+01  0.25918951589E+03  0.28219575508E+03  0.94504382120E+02 0.  0.
        -13    1    5    5    0    0 -0.64812910221E+02  0.42570889075E+02  0.17552515727E+03  0.19189078863E+03  0.00000000000E+00 0.  1.
         14    1    5    5    0    0  0.61567253079E+01 -0.33426887302E+02  0.83664358618E+02  0.90304966443E+02  0.00000000000E+00 0. -1.
         13    1    3    3    0    0 -0.11337039091E+02  0.29375123568E+02 -0.52467830646E+03  0.52562225182E+03  0.00000000000E+00 0. -1.
        -14    1    3    3    0    0  0.17604442037E+02 -0.14822994446E+01 -0.23312046649E+02  0.29250044616E+02  0.00000000000E+00 0.  1.
          5    1    4    4  501    0 -0.18632400916E+02 -0.36446536437E+02 -0.82136305348E+02  0.91865997183E+02  0.41800000000E+01 0.  1.
         -5    1    4    4    0  501  0.71021182884E+02 -0.59028945907E+00 -0.38485312950E+00  0.71147574602E+02  0.41800000000E+01 0.  1.
</event>
<event>
11    1  0.8479398E-009  0.1517546E+03  0.7561462E-02  0.1095099E+00
         22   -1    0    0    0    0  0.00000000000E+00  0.00000000000E+00  0.20728505212E+04  0.20728505212E+04  0.00000000000E+00 0.  1.
         22   -1    0    0    0    0 -0.00000000000E+00 -0.00000000000E+00 -0.56133318540E+02  0.56133318540E+02  0.00000000000E+00 0.  1.
        -24    2    1    2    0    0 -0.81258273953E+02  0.42652564998E+02  0.48435706239E+02  0.13036459944E+03  0.78909839442E+02 0.  0.
         25    2    1    2    0    0  0.67093291731E+02 -0.33317634513E+01  0.35346184461E+03  0.38091434528E+03  0.12509137621E+03 0.  0.
         24    2    1    2    0    0  0.14164982222E+02 -0.39320801547E+02  0.16148196518E+04  0.16177048951E+04  0.87062318788E+02 0.  0.
        -11    1    5    5    0    0  0.49104294186E+02 -0.23313935380E+02  0.11565057816E+04  0.11577825332E+04  0.00000000000E+00 0.  1.
         12    1    5    5    0    0 -0.34939311964E+02 -0.16006866167E+02  0.45831387025E+03  0.45992236187E+03  0.00000000000E+00 0. -1.
         13    1    3    3    0    0 -0.79542870937E+02  0.58623080634E+02  0.54913446527E+02  0.11304521445E+03  0.00000000000E+00 0. -1.
        -14    1    3    3    0    0 -0.17154030156E+01 -0.15970515636E+02 -0.64777402881E+01  0.17319384990E+02  0.00000000000E+00 0.  1.
          5    1    4    4  501    0  0.94580469293E+02  0.19115041760E+02  0.30973277208E+03  0.32444215585E+03  0.41800000000E+01 0. -1.
         -5    1    4    4    0  501 -0.27487177562E+02 -0.22446805211E+02  0.43729072534E+02  0.56472189432E+02  0.41800000000E+01 0. -1.
</event>
<event>
11    1  0.8479398E-009  0.1504147E+03  0.7561462E-02  0.1096456E+00
         22   -1    0    0    0    0  0.00000000000E+00  0.00000000000E+00  0.85883024122E+03  0.85883024122E+03  0.00000000000E+00 0.  1.
         22   -1    0    0    0    0 -0.00000000000E+00 -0.00000000000E+00 -0.81098342632E+03  0.81098342632E+03  0.00000000000E+00 0. -1.
         24    2    1    2    0    0 -0.29311843675E+02  0.82770945151E+02 -0.72982043702E+03  0.73949409439E+03  0.80643857860E+02 0.  0.
         25    2    1    2    0    0  0.37254032491E+02  0.51115406043E+01 -0.12445081666E+02  0.13119343274E+03  0.12507136343E+03 0.  0.
        -24    2    1    2    0    0 -0.79421888160E+01 -0.87882485756E+02  0.79011233358E+03  0.79912614041E+03  0.80862098306E+02 0.  0.
        -11    1    3    3    0    0 -0.42614031743E+02  0.89845252408E+01 -0.30772022078E+03  0.31078676238E+03  0.00000000000E+00 0.  1.
         12    1    3    3    0    0  0.13302188068E+02  0.73786419911E+02 -0.42210021624E+03  0.42870733201E+03  0.00000000000E+00 0. -1.
         11    1    5    5    0    0 -0.23528984275E+02  0.67354152839E+00  0.81481296051E+02  0.84813137929E+02  0.00000000000E+00 0. -1.
        -12    1    5    5    0    0  0.15586795460E+02 -0.88556027284E+02  0.70863103753E+03  0.71431300248E+03  0.00000000000E+00 0.  1.
          5    1    4    4  501    0  0.17976323144E+02 -0.59756231442E+02 -0.10104193221E+02  0.63352367838E+02  0.41800000000E+01 0. -1.
         -5    1    4    4    0  501  0.19277709347E+02  0.64867772047E+02 -0.23408884448E+01  0.67841064899E+02  0.41800000000E+01 0. -1.
</event>
<event>
11    1  0.8479398E-009  0.1385646E+03  0.7561462E-02  0.1109172E+00
         22   -1    0    0    0    0  0.00000000000E+00  0.00000000000E+00  0.27777913990E+03  0.27777913990E+03  0.00000000000E+00 0. -1.
         22   -1    0    0    0    0 -0.00000000000E+00 -0.00000000000E+00 -0.11917707330E+04  0.11917707330E+04  0.00000000000E+00 0. -1.
        -24    2    1    2    0    0 -0.88959257656E+01  0.58782422439E+02 -0.11269162123E+04  0.11316796818E+04  0.84995540012E+02 0.  0.
         25    2    1    2    0    0  0.37822283905E+02 -0.61054867667E+02  0.48748528162E+02  0.15225546038E+03  0.12508830557E+03 0.  0.
         24    2    1    2    0    0 -0.28926358139E+02  0.22724452271E+01  0.16417609105E+03  0.18561473077E+03  0.81591305916E+02 0.  0.
        -11    1    5    5    0    0  0.28188877403E+02  0.73198149277E+01  0.60290065907E+02  0.66955840275E+02  0.00000000000E+00 0.  1.
         12    1    5    5    0    0 -0.57115235542E+02 -0.50473697006E+01  0.10388602515E+03  0.11865889049E+03  0.00000000000E+00 0. -1.
         11    1    3    3    0    0 -0.31711798708E+02  0.31319329535E+02 -0.95775715118E+03  0.95879366874E+03  0.00000000000E+00 0. -1.
        -12    1    3    3    0    0  0.22815872943E+02  0.27463092905E+02 -0.16915906114E+03  0.17288601301E+03  0.00000000000E+00 0.  1.
          5    1    4    4  501    0  0.74220656000E+02 -0.42499764792E+02  0.65594989771E+02  0.10786617110E+03  0.41800000000E+01 0. -1.
         -5    1    4    4    0  501 -0.36398372095E+02 -0.18555102874E+02 -0.16846461609E+02  0.44389289278E+02  0.41800000000E+01 0. -1.
</event>
<event>
11    1  0.8479398E-009  0.1568591E+03  0.7561462E-02  0.1090069E+00
         22   -1    0    0    0    0  0.00000000000E+00  0.00000000000E+00  0.28928223547E+03  0.28928223547E+03  0.00000000000E+00 0.  1.
         22   -1    0    0    0    0 -0.00000000000E+00 -0.00000000000E+00 -0.13888115127E+04  0.13888115127E+04  0.00000000000E+00 0. -1.
         24    2    1    2    0    0 -0.38539206395E+02  0.69305233320E+02 -0.13112215322E+04  0.13164456301E+04  0.86247925452E+02 0.  0.
         25    2    1    2    0    0 -0.49116124927E+02 -0.10284287923E+03  0.11256149170E+03  0.20323923540E+03  0.12508815235E+03 0.  0.
        -24    2    1    2    0    0  0.87655331322E+02  0.33537645906E+02  0.99130763284E+02  0.15840888267E+03  0.80363145021E+02 0.  0.
        -11    1    3    3    0    0 -0.52406953504E+01  0.73274027309E+02 -0.60748845815E+03  0.61191402562E+03  0.00000000000E+00 0.  1.
         12    1    3    3    0    0 -0.33298511044E+02 -0.39687939894E+01 -0.70373307409E+03  0.70453160450E+03  0.00000000000E+00 0. -1.
         11    1    5    5    0    0  0.14721574790E+02  0.77693127846E+01 -0.13734659971E+02  0.21580729134E+02  0.00000000000E+00 0. -1.
        -12    1    5    5    0    0  0.72933756531E+02  0.25768333121E+02  0.11286542325E+03  0.13682815354E+03  0.00000000000E+00 0.  1.
          5    1    4    4  501    0  0.38357840419E+02 -0.57754456664E+02  0.58911842834E+02  0.91076774275E+02  0.41800000000E+01 0. -1.
         -5    1    4    4    0  501 -0.87473965346E+02 -0.45088422561E+02  0.53649648867E+02  0.11216246113E+03  0.41800000000E+01 0. -1.
</event>
<event>
11    1  0.8479398E-009  0.1296695E+03  0.7561462E-02  0.1119676E+00
         22   -1    0    0    0    0  0.00000000000E+00  0.00000000000E+00  0.90512854029E+03  0.90512854029E+03  0.00000000000E+00 0. -1.
         22   -1    0    0    0    0 -0.00000000000E+00 -0.00000000000E+00 -0.99050405152E+02  0.99050405152E+02  0.00000000000E+00 0.  1.
         24    2    1    2    0    0 -0.25172510109E+02  0.63107934821E+01 -0.20207230056E+02  0.85557142591E+02  0.78982346902E+02 0.  0.
         25    2    1    2    0    0  0.44037276047E+02 -0.33521669784E+02  0.63347433675E+02  0.15074013591E+03  0.12508679864E+03 0.  0.
        -24    2    1    2    0    0 -0.18864765938E+02  0.27210876302E+02  0.76293793152E+03  0.76788166695E+03  0.80446602767E+02 0.  0.
        -11    1    3    3    0    0 -0.36715524059E+02  0.35912907042E+02 -0.12909280190E+02  0.52956738137E+02  0.00000000000E+00 0.  1.
         12    1    3    3    0    0  0.11543013950E+02 -0.29602113560E+02 -0.72979498668E+01  0.32600404454E+02  0.00000000000E+00 0. -1.
         11    1    5    5    0    0  0.15877298015E+02  0.24470163353E+02  0.62254283689E+03  0.62322585092E+03  0.00000000000E+00 0. -1.
        -12    1    5    5    0    0 -0.34742063953E+02  0.27407129495E+01  0.14039509463E+03  0.14465581603E+03  0.00000000000E+00 0.  1.
          5    1    4    4  501    0 -0.19187030437E+02  0.35825143031E+02  0.31380232057E+02  0.51514797623E+02  0.41800000000E+01 0.  1.
         -5    1    4    4    0  501  0.63224306484E+02 -0.69346812816E+02  0.31967201618E+02  0.99225338283E+02  0.41800000000E+01 0.  1.
</event>
<event>
11    1  0.8479398E-009  0.2779329E+03  0.7561462E-02  0.1009989E+00
         22   -1    0    0    0    0  0.00000000000E+00  0.00000000000E+00  0.25699645215E+04  0.25699645215E+04  0.00000000000E+00 0.  1.
         22   -1    0    0    0    0 -0.00000000000E+00 -0.00000000000E+00 -0.12089708576E+04  0.12089708576E+04  0.00000000000E+00 0.  1.
         24    2    1    2    0    0  0.14089370861E+03  0.20302288466E+03 -0.11542055504E+04  0.11828681151E+04  0.76923314140E+02 0.  0.
         25    2    1    2    0    0 -0.19805119307E+03 -0.22633625433E+03  0.64013703253E+03  0.71824443720E+03  0.12508907248E+03 0.  0.
        -24    2    1    2    0    0  0.57157484462E+02  0.23313369671E+02  0.18750621818E+04  0.18778228269E+04  0.80931406148E+02 0.  0.
        -11    1    3    3    0    0  0.10465606969E+03  0.12063119002E+03 -0.87679878016E+03  0.89122437007E+03  0.00000000000E+00 0.  1.
         12    1    3    3    0    0  0.36237638919E+02  0.82391694638E+02 -0.27740677025E+03  0.29164374501E+03  0.00000000000E+00 0. -1.
         11    1    5    5    0    0 -0.11329001371E+02 -0.76116390990E+01  0.77639621997E+02  0.78830160634E+02  0.00000000000E+00 0. -1.
        -12    1    5    5    0    0  0.68486485833E+02  0.30925008770E+02  0.17974225598E+04  0.17989926663E+04  0.00000000000E+00 0.  1.
          5    1    4    4  501    0 -0.78039978281E+02 -0.39997697846E+02  0.29720649887E+03  0.30990196742E+03  0.41800000000E+01 0. -1.
         -5    1    4    4    0  501 -0.12001121479E+03 -0.18633855648E+03  0.34293053366E+03  0.40834246978E+03  0.41800000000E+01 0. -1.
</event>
<event>
11    1  0.8479398E-009  0.1598807E+03  0.7561462E-02  0.1087190E+00
         22   -1    0    0    0    0  0.00000000000E+00  0.00000000000E+00  0.15471094877E+04  0.15471094877E+04  0.00000000000E+00 0.  1.
         22   -1    0    0    0    0 -0.00000000000E+00 -0.00000000000E+00 -0.17723422266E+04  0.17723422266E+04  0.00000000000E+00 0.  1.
         24    2    1    2    0    0 -0.48142690711E+02 -0.84733831314E+02 -0.16068609063E+04  0.16118070790E+04  0.80140794822E+02 0.  0.
         25    2    1    2    0    0  0.87428357216E+02  0.12358491248E+03 -0.10168016097E+03  0.22114052387E+03  0.12508927981E+03 0.  0.
        -24    2    1    2    0    0 -0.39285666505E+02 -0.38851081166E+02  0.14833083284E+04  0.14865041114E+04  0.80237809561E+02 0.  0.
        -11    1    3    3    0    0 -0.68849553037E+02 -0.54822371302E+02 -0.12508049673E+04  0.12538974518E+04  0.00000000000E+00 0.  1.
         12    1    3    3    0    0  0.20706862326E+02 -0.29911460013E+02 -0.35605593898E+03  0.35790962724E+03  0.00000000000E+00 0. -1.
         13    1    5    5    0    0  0.21984913935E+01  0.21553100076E+02  0.50002141487E+03  0.50049054418E+03  0.00000000000E+00 0. -1.
        -14    1    5    5    0    0 -0.41484157898E+02 -0.60404181242E+02  0.98328691355E+03  0.98601356727E+03  0.00000000000E+00 0.  1.
          5    1    4    4  501    0  0.73013544951E+01 -0.40996128101E+01 -0.65360053708E+02  0.66026703866E+02  0.41800000000E+01 0. -1.
         -5    1    4    4    0  501  0.80127002721E+02  0.12768452529E+03 -0.36320107265E+02  0.15511382000E+03  0.41800000000E+01 0. -1.
</event>
<event>
11    1  0.8479398E-009  0.1417390E+03  0.7561462E-02  0.1105632E+00
         22   -1    0    0    0    0  0.00000000000E+00  0.00000000000E+00  0.23624249543E+03  0.23624249543E+03  0.00000000000E+00 0. -1.
         22   -1    0    0    0    0 -0.00000000000E+00 -0.00000000000E+00 -0.19367147396E+03  0.19367147396E+03  0.00000000000E+00 0. -1.
        -24    2    1    2    0    0 -0.12100992813E+01  0.18104843398E+01 -0.97847808751E+02  0.12829561757E+03  0.82950766218E+02 0.  0.
         25    2    1    2    0    0  0.17920118313E+02 -0.65744624267E+02  0.28543227983E+02  0.14527891679E+03  0.12509101303E+03 0.  0.
         24    2    1    2    0    0 -0.16710019031E+02  0.63934139927E+02  0.11187560224E+03  0.15633943503E+03  0.86942909913E+02 0.  0.
        -11    1    5    5    0    0 -0.20107844046E+02  0.45678680505E+02  0.76726534501E+01  0.50494919109E+02  0.00000000000E+00 0.  1.
         12    1    5    5    0    0  0.33978250148E+01  0.18255459423E+02  0.10420294879E+03  0.10584451592E+03  0.00000000000E+00 0. -1.
         11    1    3    3    0    0 -0.20210234048E+01 -0.37905813566E+01 -0.11250332815E+03  0.11258530937E+03  0.00000000000E+00 0. -1.
        -12    1    3    3    0    0  0.81092412346E+00  0.56010656964E+01  0.14655519395E+02  0.15710308196E+02  0.00000000000E+00 0.  1.
          5    1    4    4  501    0  0.69712505604E+02 -0.46533401163E+02  0.22334317079E+01  0.83950291712E+02  0.41800000000E+01 0. -1.
         -5    1    4    4    0  501 -0.51792387291E+02 -0.19211223104E+02  0.26309796275E+02  0.61328625082E+02  0.41800000000E+01 0. -1.
</event>
<event>
11    1  0.8479398E-009  0.1336135E+03  0.7561462E-02  0.1114907E+00
         22   -1    0    0    0    0  0.00000000000E+00  0.00000000000E+00  0.15525876578E+04  0.15525876578E+04  0.00000000000E+00 0.  1.
         22   -1    0    0    0    0 -0.00000000000E+00 -0.00000000000E+00 -0.78483000239E+03  0.78483000239E+03  0.00000000000E+00 0.  1.
         24    2    1    2    0    0  0.38057443390E+02 -0.28526574208E+02 -0.75823792134E+03  0.76387660413E+03  0.79502116638E+02 0.  0.
         25    2    1    2    0    0 -0.19663449370E+02 -0.14581652907E+02  0.16070999146E+03  0.20512310792E+03  0.12509401347E+03 0.  0.
        -24    2    1    2    0    0 -0.18393994020E+02  0.43108227115E+02  0.13652855852E+04  0.13684179481E+04  0.79789054200E+02 0.  0.
        -11    1    3    3    0    0  0.31213903318E+02  0.22084221510E+02 -0.22790589750E+03  0.23109114806E+03  0.00000000000E+00 0.  1.
         12    1    3    3    0    0  0.68435400721E+01 -0.50610795718E+02 -0.53033202384E+03  0.53278545606E+03  0.00000000000E+00 0. -1.
         11    1    5    5    0    0 -0.88976085595E+01  0.65837641510E+02  0.87788898177E+03  0.88039924284E+03  0.00000000000E+00 0. -1.
        -12    1    5    5    0    0 -0.94963854607E+01 -0.22729414395E+02  0.48739660347E+03  0.48801870527E+03  0.00000000000E+00 0.  1.
          5    1    4    4  501    0  0.15042130044E+02  0.49102242886E+02  0.90233301874E+02  0.10390773359E+03  0.41800000000E+01 0.  1.
         -5    1    4    4    0  501 -0.34705579414E+02 -0.63683895793E+02  0.70476689590E+02  0.10121537433E+03  0.41800000000E+01 0.  1.
</event>
<event>
11    1  0.8479398E-009  0.2418323E+03  0.7561462E-02  0.1028342E+00
         22   -1    0    0    0    0  0.00000000000E+00  0.00000000000E+00  0.32664558956E+03  0.32664558956E+03  0.00000000000E+00 0.  1.
         22   -1    0    0    0    0 -0.00000000000E+00 -0.00000000000E+00 -0.20629887644E+04  0.20629887644E+04  0.00000000000E+00 0.  1.
         24    2    1    2    0    0  0.15529070992E+03 -0.88356112611E+02 -0.17018445923E+04  0.17130455502E+04  0.79548937714E+02 0.  0.
         25    2    1    2    0    0 -0.28392842494E+03  0.21791282741E+03 -0.18769005601E+03  0.42305446899E+03  0.12508467441E+03 0.  0.
        -24    2    1    2    0    0  0.12863771502E+03 -0.12955671480E+03  0.15319147356E+03  0.25353433469E+03  0.86483681824E+02 0.  0.
        -11    1    3    3    0    0  0.12439806229E+03 -0.28369365100E+02 -0.11706299790E+04  0.11775628419E+04  0.00000000000E+00 0.  1.
         12    1    3    3    0    0  0.30892647632E+02 -0.59986747512E+02 -0.53121461334E+03  0.53548270838E+03  0.00000000000E+00 0. -1.
         13    1    5    5    0    0  0.30908123099E+01 -0.14179497785E+02  0.54763254629E+02  0.56653555367E+02  0.00000000000E+00 0. -1.
        -14    1    5    5    0    0  0.12554690271E+03 -0.11537721701E+03  0.98428218926E+02  0.19688077932E+03  0.00000000000E+00 0.  1.
          5    1    4    4  501    0 -0.29629869513E+02  0.23924655454E+01  0.14317129731E+02  0.33258166854E+02  0.41800000000E+01 0. -1.
         -5    1    4    4    0  501 -0.25429855543E+03  0.21552036186E+03 -0.20200718574E+03  0.38979630214E+03  0.41800000000E+01 0. -1.
</event>
<event>
11    1  0.8479398E-009  0.1865019E+03  0.7561462E-02  0.1064502E+00
         22   -1    0    0    0    0  0.00000000000E+00  0.00000000000E+00  0.23923156850E+04  0.23923156850E+04  0.00000000000E+00 0.  1.
         22   -1    0    0    0    0 -0.00000000000E+00 -0.00000000000E+00 -0.21845727207E+03  0.21845727207E+03  0.00000000000E+00 0. -1.
        -24    2    1    2    0    0 -0.10720994629E+03  0.85250350467E+02 -0.16954826369E+03  0.23218162649E+03  0.80000619500E+02 0.  0.
         25    2    1    2    0    0  0.12154248305E+03 -0.11577938786E+03  0.65020066000E+03  0.68307098422E+03  0.12509048480E+03 0.  0.
         24    2    1    2    0    0 -0.14332536760E+02  0.30529037395E+02  0.16932060166E+04  0.16955203463E+04  0.81885202640E+02 0.  0.
        -13    1    5    5    0    0 -0.47776435472E+02  0.11262551198E+02  0.82777144914E+03  0.82922554522E+03  0.00000000000E+00 0.  1.
         14    1    5    5    0    0  0.33443898712E+02  0.19266486198E+02  0.86543456746E+03  0.86629480109E+03  0.00000000000E+00 0. -1.
         13    1    3    3    0    0 -0.82519626521E+02  0.84202410804E+02 -0.17068409136E+03  0.20744298925E+03  0.00000000000E+00 0. -1.
        -14    1    3    3    0    0 -0.24690319771E+02  0.10479396630E+01  0.11358276685E+01  0.24738637239E+02  0.00000000000E+00 0.  1.
          5    1    4    4  501    0  0.39382125233E+02  0.10160948561E+02  0.28780112632E+03  0.29069082782E+03  0.41800000000E+01 0. -1.
         -5    1    4    4    0  501  0.82160357819E+02 -0.12594033642E+03  0.36239953367E+03  0.39238015641E+03  0.41800000000E+01 0. -1.
</event>
<event>
11    1  0.8479398E-009  0.1351906E+03  0.7561462E-02  0.1113051E+00
         22   -1    0    0    0    0  0.00000000000E+00  0.00000000000E+00  0.77930671010E+03  0.77930671010E+03  0.00000000000E+00 0. -1.
         22   -1    0    0    0    0 -0.00000000000E+00 -0.00000000000E+00 -0.19474973505E+03  0.19474973505E+03  0.00000000000E+00 0.  1.
         24    2    1    2    0    0  0.43018632870E+02 -0.30262082269E+02 -0.13231507115E+03  0.16351558266E+03  0.80396960915E+02 0.  0.
         25    2    1    2    0    0 -0.58983410386E+02 -0.15793286046E+02  0.68508728557E+02  0.15514349982E+03  0.12509032361E+03 0.  0.
        -24    2    1    2    0    0  0.15964777517E+02  0.46055368315E+02  0.64836331764E+03  0.65539736267E+03  0.82430214497E+02 0.  0.
        -11    1    3    3    0    0  0.63388415236E+02 -0.10883762387E+02 -0.69486055868E+02  0.94682941599E+02  0.00000000000E+00 0.  1.
         12    1    3    3    0    0 -0.20369782367E+02 -0.19378319882E+02 -0.62829015279E+02  0.68832641065E+02  0.00000000000E+00 0. -1.
         11    1    5    5    0    0 -0.99868508002E+01  0.18371783995E+02  0.54311882386E+03  0.54352121989E+03  0.00000000000E+00 0. -1.
        -12    1    5    5    0    0  0.25951628317E+02  0.27683584320E+02  0.10524449378E+03  0.11187614279E+03  0.00000000000E+00 0.  1.
          5    1    4    4  501    0  0.38127988865E+02  0.15626532866E+01  0.76109431182E+01  0.39135460586E+02  0.41800000000E+01 0. -1.
         -5    1    4    4    0  501 -0.97111399251E+02 -0.17355939333E+02  0.60897785438E+02  0.11600803923E+03  0.41800000000E+01 0. -1.
</event>
<event>
11    1  0.8479398E-009  0.2385601E+03  0.7561462E-02  0.1030176E+00
         22   -1    0    0    0    0  0.00000000000E+00  0.00000000000E+00  0.87070195333E+03  0.87070195333E+03  0.00000000000E+00 0.  1.
         22   -1    0    0    0    0 -0.00000000000E+00 -0.00000000000E+00 -0.12880062174E+04  0.12880062174E+04  0.00000000000E+00 0. -1.
         24    2    1    2    0    0 -0.11005244854E+03 -0.16638910870E+03 -0.95320433610E+03  0.97704595326E+03  0.78888601801E+02 0.  0.
         25    2    1    2    0    0  0.78311444258E+02  0.20910107223E+03 -0.26884545223E+03  0.37118894138E+03  0.12508961712E+03 0.  0.
        -24    2    1    2    0    0  0.31741004280E+02 -0.42711963526E+02  0.80474552421E+03  0.81047327613E+03  0.80123463429E+02 0.  0.
        -11    1    3    3    0    0 -0.13509300499E+01  0.55420738549E+01 -0.90732562559E+02  0.90911701684E+02  0.00000000000E+00 0.  1.
         12    1    3    3    0    0 -0.10870151849E+03 -0.17193118256E+03 -0.86247177354E+03  0.88613425157E+03  0.00000000000E+00 0. -1.
         11    1    5    5    0    0  0.49562972378E+02 -0.12827273424E+01  0.34947708797E+03  0.35297644204E+03  0.00000000000E+00 0. -1.
        -12    1    5    5    0    0 -0.17821968098E+02 -0.41429236184E+02  0.45526843624E+03  0.45749683408E+03  0.00000000000E+00 0.  1.
          5    1    4    4  501    0  0.85029490068E+02  0.72754664633E+02 -0.77851309877E+02  0.13638751503E+03  0.41800000000E+01 0.  1.
         -5    1    4    4    0  501 -0.67180458104E+01  0.13634640760E+03 -0.19099414235E+03  0.23480142635E+03  0.41800000000E+01 0.  1.
</event>
<event>
11    1  0.8479398E-009  0.1297710E+03  0.7561462E-02  0.1119551E+00
         22   -1    0    0    0    0  0.00000000000E+00  0.00000000000E+00  0.46101304472E+03  0.46101304472E+03  0.00000000000E+00 0. -1.
         22   -1    0    0    0    0 -0.00000000000E+00 -0.00000000000E+00 -0.18092199660E+04  0.18092199660E+04  0.00000000000E+00 0.  1.
         24    2    1    2    0    0  0.46060385139E+01 -0.36941975416E+01 -0.14978609086E+04  0.15002039646E+04  0.83604852520E+02 0.  0.
         25    2    1    2    0    0  0.81162340217E+01 -0.28491428209E+02 -0.29188585326E+03  0.31894072173E+03  0.12509275723E+03 0.  0.
        -24    2    1    2    0    0 -0.12722272536E+02  0.32185625751E+02  0.44153984053E+03  0.45108832439E+03  0.85588988180E+02 0.  0.
        -13    1    3    3    0    0 -0.36998963541E+02 -0.11329981022E+02 -0.91050447498E+03  0.91132633602E+03  0.00000000000E+00 0.  1.
         14    1    3    3    0    0  0.41605002055E+02  0.76357834804E+01 -0.58735643357E+03  0.58887762858E+03  0.00000000000E+00 0. -1.
         11    1    5    5    0    0 -0.32319406704E+02  0.51128832106E-01  0.35805970253E+03  0.35951536440E+03  0.00000000000E+00 0. -1.
        -12    1    5    5    0    0  0.19597134169E+02  0.32134496919E+02  0.83480137998E+02  0.91572959983E+02  0.00000000000E+00 0.  1.
          5    1    4    4  501    0 -0.14997530277E+02  0.20622562328E+02 -0.42363756578E+01  0.26184638056E+02  0.41800000000E+01 0.  1.
         -5    1    4    4    0  501  0.23113764299E+02 -0.49113990537E+02 -0.28764947760E+03  0.29275608367E+03  0.41800000000E+01 0.  1.
</event>
<event>
11    1  0.8479398E-009  0.1432216E+03  0.7561462E-02  0.1104013E+00
         22   -1    0    0    0    0  0.00000000000E+00  0.00000000000E+00  0.16226067303E+03  0.16226067303E+03  0.00000000000E+00 0.  1.
         22   -1    0    0    0    0 -0.00000000000E+00 -0.00000000000E+00 -0.24812640779E+04  0.24812640779E+04  0.00000000000E+00 0.  1.
        -24    2    1    2    0    0 -0.64661780881E+02  0.26337269975E+02 -0.23797816186E+04  0.23820277288E+04  0.76293846380E+02 0.  0.
         25    2    1    2    0    0  0.73607973766E+02  0.23463500371E+02  0.75221012205E+02  0.16516010643E+03  0.12510391851E+03 0.  0.
         24    2    1    2    0    0 -0.89461928847E+01 -0.49800770346E+02 -0.14442798448E+02  0.96336915640E+02  0.80697309706E+02 0.  0.
        -13    1    5    5    0    0 -0.30920895738E+02 -0.14230588864E+02  0.22285960777E+02  0.40685077122E+02  0.00000000000E+00 0.  1.
         14    1    5    5    0    0  0.21974702853E+02 -0.35570181483E+02 -0.36728759225E+02  0.55651838518E+02  0.00000000000E+00 0. -1.
         11    1    3    3    0    0 -0.47825988580E+02  0.48643273131E+02 -0.12170359055E+04  0.12189462205E+04  0.00000000000E+00 0. -1.
        -12    1    3    3    0    0 -0.16835792301E+02 -0.22306003156E+02 -0.11627457132E+04  0.11630815084E+04  0.00000000000E+00 0.  1.
          5    1    4    4  501    0 -0.31451567857E+02  0.75353866218E+01 -0.35755531120E+01  0.32806099315E+02  0.41800000000E+01 0.  1.
         -5    1    4    4    0  501  0.10505954162E+03  0.15928113750E+02  0.78796565317E+02  0.13235400711E+03  0.41800000000E+01 0.  1.
</event>
<event>
11    1  0.8479398E-009  0.1972790E+03  0.7561462E-02  0.1056465E+00
         22   -1    0    0    0    0  0.00000000000E+00  0.00000000000E+00  0.13457022854E+04  0.13457022854E+04  0.00000000000E+00 0. -1.
         22   -1    0    0    0    0 -0.00000000000E+00 -0.00000000000E+00 -0.13264514345E+03  0.13264514345E+03  0.00000000000E+00 0. -1.
         24    2    1    2    0    0  0.45998878580E+02 -0.22983767441E+02 -0.92942485160E+01  0.93749085422E+02  0.77835451855E+02 0.  0.
         25    2    1    2    0    0 -0.18616845606E+03 -0.29559492323E+02  0.96830053957E+02  0.24609737280E+03  0.12512154064E+03 0.  0.
        -24    2    1    2    0    0  0.14016957748E+03  0.52543259765E+02  0.11255213365E+04  0.11385009706E+04  0.83533685377E+02 0.  0.
        -13    1    3    3    0    0 -0.54559615534E+00 -0.10550705340E+02  0.29856451567E+02  0.31670534547E+02  0.00000000000E+00 0.  1.
         14    1    3    3    0    0  0.46544474736E+02 -0.12433062102E+02 -0.39150700083E+02  0.62078550874E+02  0.00000000000E+00 0. -1.
         11    1    5    5    0    0  0.91373671492E+02 -0.30067881503E+01  0.76740078210E+03  0.77282737334E+03  0.00000000000E+00 0. -1.
        -12    1    5    5    0    0  0.48795905991E+02  0.55550047915E+02  0.35812055436E+03  0.36567359724E+03  0.00000000000E+00 0.  1.
          5    1    4    4  501    0 -0.26355778120E+01 -0.41190902783E+02  0.99447302012E+01  0.42661537727E+02  0.41800000000E+01 0. -1.
         -5    1    4    4    0  501 -0.18353287825E+03  0.11631410459E+02  0.86885323756E+02  0.20343583507E+03  0.41800000000E+01 0. -1.
</event>
<event>
11    1  0.8479398E-009  0.1652547E+03  0.7561462E-02  0.1082237E+00
         22   -1    0    0    0    0  0.00000000000E+00  0.00000000000E+00  0.15242339611E+03  0.15242339611E+03  0.00000000000E+00 0. -1.
         22   -1    0    0    0    0 -0.00000000000E+00 -0.00000000000E+00 -0.11002088297E+04  0.11002088297E+04  0.00000000000E+00 0. -1.
         24    2    1    2    0    0  0.72791546841E+02 -0.47377647893E+02 -0.51046061534E+03  0.52395259106E+03  0.80081377730E+02 0.  0.
         25    2    1    2    0    0 -0.13309642914E+03  0.10952365652E+03 -0.53640221258E+03  0.57713931151E+03  0.12510939387E+03 0.  0.
        -24    2    1    2    0    0  0.60304882299E+02 -0.62146008630E+02  0.99077394368E+02  0.15154032321E+03  0.75162053369E+02 0.  0.
        -11    1    3    3    0    0  0.62299629094E+02 -0.43517609771E+02 -0.21073318858E+03  0.22401674695E+03  0.00000000000E+00 0.  1.
         12    1    3    3    0    0  0.10491917747E+02 -0.38600381225E+01 -0.29972742676E+03  0.29993584411E+03  0.00000000000E+00 0. -1.
         13    1    5    5    0    0  0.77735686230E+02 -0.44393808390E+02  0.73130064229E+02  0.11559261841E+03  0.00000000000E+00 0. -1.
        -14    1    5    5    0    0 -0.17430803932E+02 -0.17752200240E+02  0.25947330139E+02  0.35947704800E+02  0.00000000000E+00 0.  1.
          5    1    4    4  501    0 -0.12255350000E+03  0.54991293809E+02 -0.47758750309E+03  0.49613576596E+03  0.41800000000E+01 0.  1.
         -5    1    4    4    0  501 -0.10542929138E+02  0.54532362714E+02 -0.58814709488E+02  0.81003545541E+02  0.41800000000E+01 0.  1.
</event>
<event>
11    1  0.8479398E-009  0.1417158E+03  0.7561462E-02  0.1105657E+00
         22   -1    0    0    0    0  0.00000000000E+00  0.00000000000E+00  0.14936091927E+04  0.14936091927E+04  0.00000000000E+00 0.  1.
         22   -1    0    0    0    0 -0.00000000000E+00 -0.00000000000E+00 -0.31187352558E+03  0.31187352558E+03  0.00000000000E+00 0. -1.
         24    2    1    2    0    0  0.39827986431E+02  0.14370291175E+02 -0.22275781814E+03  0.24030892813E+03  0.79589959323E+02 0.  0.
         25    2    1    2    0    0 -0.39194414278E+02 -0.80660541074E+02 -0.30957750050E+01  0.15393983308E+03  0.12508222651E+03 0.  0.
        -24    2    1    2    0    0 -0.63357215346E+00  0.66290249899E+02  0.14075892602E+04  0.14112339570E+04  0.76674359083E+02 0.  0.
        -11    1    3    3    0    0  0.19288981682E+01 -0.19418888476E+02 -0.10696442120E+02  0.22253713214E+02  0.00000000000E+00 0.  1.
         12    1    3    3    0    0  0.37899088263E+02  0.33789179651E+02 -0.21206137602E+03  0.21805521491E+03  0.00000000000E+00 0. -1.
         13    1    5    5    0    0 -0.39241361619E+00  0.55378792688E+02  0.42607480406E+03  0.42965882200E+03  0.00000000000E+00 0. -1.
        -14    1    5    5    0    0 -0.24115853728E+00  0.10911457211E+02  0.98151445618E+03  0.98157513504E+03  0.00000000000E+00 0.  1.
          5    1    4    4  501    0  0.16573885800E+02 -0.72063982666E+02 -0.42123044692E+02  0.85204076090E+02  0.41800000000E+01 0.  1.
         -5    1    4    4    0  501 -0.55768300077E+02 -0.85965584078E+01  0.39027269687E+02  0.68735756992E+02  0.41800000000E+01 0.  1.
</event>
<event>
11    1  0.8479398E-009  0.1385646E+03  0.7561462E-02  0.1109172E+00
         22   -1    0    0    0    0  0.00000000000E+00  0.00000000000E+00  0.71172502483E+03  0.71172502483E+03  0.00000000000E+00 0.  1.
         22   -1    0    0    0    0 -0.00000000000E+00 -0.00000000000E+00 -0.28734318136E+03  0.28734318136E+03  0.00000000000E+00 0.  1.
        -24    2    1    2    0    0  0.40493689512E+02  0.45788820362E+02 -0.23081076181E+03  0.25203280256E+03  0.80688108390E+02 0.  0.
         25    2    1    2    0    0 -0.24520832614E+02 -0.38141485747E+02  0.59603881241E+02  0.14579585220E+03  0.12509102164E+03 0.  0.
         24    2    1    2    0    0 -0.15972856899E+02 -0.76473346157E+01  0.59558872405E+03  0.60123955143E+03  0.80308505790E+02 0.  0.
        -13    1    5    5    0    0  0.20444314043E+01 -0.30699927650E+01  0.56776582345E+03  0.56777780410E+03  0.00000000000E+00 0.  1.
         14    1    5    5    0    0 -0.18017288303E+02 -0.45773418507E+01  0.27822900600E+02  0.33461747325E+02  0.00000000000E+00 0. -1.
         13    1    3    3    0    0 -0.21714840410E+02  0.14316050519E+02 -0.31324149622E+02  0.40714689561E+02  0.00000000000E+00 0. -1.
        -14    1    3    3    0    0  0.62208529923E+02  0.31472769843E+02 -0.19948661219E+03  0.21131811300E+03  0.00000000000E+00 0.  1.
          5    1    4    4  501    0 -0.52640473785E+02 -0.40071952483E+02 -0.13221216758E+02  0.67594776637E+02  0.41800000000E+01 0. -1.
         -5    1    4    4    0  501  0.28119641171E+02  0.19304667360E+01  0.72825097999E+02  0.78201075568E+02  0.41800000000E+01 0. -1.
</event>
<event>
11    1  0.8479398E-009  0.1345006E+03  0.7561462E-02  0.1113860E+00
         22   -1    0    0    0    0  0.00000000000E+00  0.00000000000E+00  0.60708268609E+02  0.60708268609E+02  0.00000000000E+00 0. -1.
         22   -1    0    0    0    0 -0.00000000000E+00 -0.00000000000E+00 -0.37137769234E+04  0.37137769234E+04  0.00000000000E+00 0. -1.
         24    2    1    2    0    0  0.59791697457E+01 -0.12033078065E+02 -0.34930465859E+04  0.34939421738E+04  0.77954583717E+02 0.  0.
         25    2    1    2    0    0 -0.45820695403E+02  0.33453211933E+02 -0.10359997085E+03  0.17204424782E+03  0.12509043021E+03 0.  0.
        -24    2    1    2    0    0  0.39841525658E+02 -0.21420133868E+02 -0.56422098051E+02  0.10849877041E+03  0.80884860941E+02 0.  0.
        -11    1    3    3    0    0  0.29521503718E+02  0.32186687727E+01 -0.57937411581E+03  0.58013467840E+03  0.00000000000E+00 0.  1.
         12    1    3    3    0    0 -0.23542333972E+02 -0.15251746838E+02 -0.29136724701E+04  0.29138074954E+04  0.00000000000E+00 0. -1.
         11    1    5    5    0    0  0.39095690050E+02  0.17933706274E+02 -0.43614789244E+01  0.43233242992E+02  0.00000000000E+00 0. -1.
        -12    1    5    5    0    0  0.74583560744E+00 -0.39353840142E+02 -0.52060619126E+02  0.65265527413E+02  0.00000000000E+00 0.  1.
          5    1    4    4  501    0 -0.62529689856E+02 -0.30698382043E+02 -0.64146387336E+02  0.94787046487E+02  0.41800000000E+01 0.  1.
         -5    1    4    4    0  501  0.16708994453E+02  0.64151593976E+02 -0.39453583515E+02  0.77257201331E+02  0.41800000000E+01 0.  1.
</event>
<event>
11    1  0.8479398E-009  0.1827400E+03  0.7561462E-02  0.1067448E+00
         22   -1    0    0    0    0  0.00000000000E+00  0.00000000000E+00  0.89425390687E+03  0.89425390687E+03  0.00000000000E+00 0.  1.
         22   -1    0    0    0    0 -0.00000000000E+00 -0.00000000000E+00 -0.17656610631E+04  0.17656610631E+04  0.00000000000E+00 0. -1.
         24    2    1    2    0    0 -0.12967414654E+03 -0.47043930393E+02 -0.15884577988E+04  0.15965498242E+04  0.82125798516E+02 0.  0.
         25    2    1    2    0    0  0.94087607701E+02  0.71966597815E+01 -0.13448010278E+03  0.20648632358E+03  0.12508970360E+03 0.  0.
        -24    2    1    2    0    0  0.35586538838E+02  0.39847270611E+02  0.85153074536E+03  0.85687882223E+03  0.79262216531E+02 0.  0.
        -13    1    3    3    0    0 -0.94559792579E+02 -0.63440075441E+02 -0.92869462102E+03  0.93564945180E+03  0.00000000000E+00 0.  1.
         14    1    3    3    0    0 -0.35114353960E+02  0.16396145048E+02 -0.65976317778E+03  0.66090037236E+03  0.00000000000E+00 0. -1.
         11    1    5    5    0    0  0.14899911990E+02  0.58298531493E+02  0.40027914895E+03  0.40477663375E+03  0.00000000000E+00 0. -1.
        -12    1    5    5    0    0  0.20686626848E+02 -0.18451260881E+02  0.45125159641E+03  0.45210218847E+03  0.00000000000E+00 0.  1.
          5    1    4    4  501    0  0.69237571752E+02 -0.50284284869E+02 -0.10926743286E+03  0.13884954062E+03  0.41800000000E+01 0. -1.
         -5    1    4    4    0  501  0.24850035949E+02  0.57480944650E+02 -0.25212669926E+02  0.67636782961E+02  0.41800000000E+01 0. -1.
</event>
<event>
11    1  0.8479398E-009  0.2744275E+03  0.7561462E-02  0.1011635E+00
         22   -1    0    0    0    0  0.00000000000E+00  0.00000000000E+00  0.97376870801E+03  0.97376870801E+03  0.00000000000E+00 0.  1.
         22   -1    0    0    0    0 -0.00000000000E+00 -0.00000000000E+00 -0.87331562846E+03  0.87331562846E+03  0.00000000000E+00 0. -1.
         24    2    1    2    0    0 -0.24526938720E+03 -0.22298738398E+01 -0.78737634256E+03  0.82885893167E+03  0.82967337806E+02 0.  0.
         25    2    1    2    0    0  0.23008127026E+03  0.33989224168E+02  0.21796684947E+03  0.34241564674E+03  0.12508504859E+03 0.  0.
        -24    2    1    2    0    0  0.15188116948E+02 -0.31759350328E+02  0.66986257264E+03  0.67580975806E+03  0.82241276955E+02 0.  0.
        -11    1    3    3    0    0 -0.47121309380E+02  0.27769259305E+02 -0.11671292105E+03  0.12889319416E+03  0.00000000000E+00 0.  1.
         12    1    3    3    0    0 -0.19814807782E+03 -0.29999133145E+02 -0.67066342151E+03  0.69996573751E+03  0.00000000000E+00 0. -1.
         13    1    5    5    0    0  0.30992666591E+01  0.91850384818E+01  0.79913495259E+01  0.12563122740E+02  0.00000000000E+00 0. -1.
        -14    1    5    5    0    0  0.12088850289E+02 -0.40944388810E+02  0.66187122311E+03  0.66324663532E+03  0.00000000000E+00 0.  1.
          5    1    4    4  501    0  0.19468353558E+02  0.18921048180E+02  0.93107449262E+02  0.97074674156E+02  0.41800000000E+01 0. -1.
         -5    1    4    4    0  501  0.21061291670E+03  0.15068175988E+02  0.12485940021E+03  0.24534097258E+03  0.41800000000E+01 0. -1.
</event>
<event>
11    1  0.8479398E-009  0.1541206E+03  0.7561462E-02  0.1092741E+00
         22   -1    0    0    0    0  0.00000000000E+00  0.00000000000E+00  0.21789920712E+03  0.21789920712E+03  0.00000000000E+00 0. -1.
         22   -1    0    0    0    0 -0.00000000000E+00 -0.00000000000E+00 -0.10162557526E+04  0.10162557526E+04  0.00000000000E+00 0.  1.
         24    2    1    2    0    0 -0.92765367705E+02  0.97269540026E+01 -0.88360200719E+03  0.89250607117E+03  0.84347809073E+02 0.  0.
         25    2    1    2    0    0  0.59824069813E+02 -0.55587373768E+01 -0.75489156133E+02  0.15796983697E+03  0.12508412293E+03 0.  0.
        -24    2    1    2    0    0  0.32941297892E+02 -0.41682166258E+01  0.16073461782E+03  0.18367905159E+03  0.82461345423E+02 0.  0.
        -11    1    3    3    0    0 -0.10638817686E+03  0.19928784922E+02 -0.73368744129E+03  0.74162852032E+03  0.00000000000E+00 0.  1.
         12    1    3    3    0    0  0.13622809156E+02 -0.10201830920E+02 -0.14991456590E+03  0.15087755085E+03  0.00000000000E+00 0. -1.
         11    1    5    5    0    0  0.47750674633E+02  0.11335264321E+02  0.15333559530E+03  0.16099819854E+03  0.00000000000E+00 0. -1.
        -12    1    5    5    0    0 -0.14809376741E+02 -0.15503480947E+02  0.73990225215E+01  0.22680853053E+02  0.00000000000E+00 0.  1.
          5    1    4    4  501    0  0.76932161277E+02  0.34639850483E+02 -0.19262392175E+02  0.86642881026E+02  0.41800000000E+01 0. -1.
         -5    1    4    4    0  501 -0.17108091464E+02 -0.40198587860E+02 -0.56226763958E+02  0.71326955947E+02  0.41800000000E+01 0. -1.
</event>
<event>
11    1  0.8479398E-009  0.1525222E+03  0.7561462E-02  0.1094329E+00
         22   -1    0    0    0    0  0.00000000000E+00  0.00000000000E+00  0.21779723903E+03  0.21779723903E+03  0.00000000000E+00 0.  1.
         22   -1    0    0    0    0 -0.00000000000E+00 -0.00000000000E+00 -0.18887084553E+04  0.18887084553E+04  0.00000000000E+00 0. -1.
         24    2    1    2    0    0  0.20358750821E+02 -0.51188333293E+01 -0.14331637542E+04  0.14355641530E+04  0.80283310220E+02 0.  0.
         25    2    1    2    0    0 -0.98128979353E+02  0.43022945818E+02 -0.42163597160E+03  0.45265891311E+03  0.12507169390E+03 0.  0.
        -24    2    1    2    0    0  0.77770228532E+02 -0.37904112488E+02  0.18388850952E+03  0.21828262821E+03  0.79670519376E+02 0.  0.
        -13    1    3    3    0    0  0.12327729510E+02  0.32372435729E+02 -0.34720166063E+03  0.34892540844E+03  0.00000000000E+00 0.  1.
         14    1    3    3    0    0  0.80310213113E+01 -0.37491269059E+02 -0.10859620935E+04  0.10866387445E+04  0.00000000000E+00 0. -1.
         11    1    5    5    0    0  0.25636298374E+02 -0.29753315486E+01  0.20144944967E+01  0.25886880465E+02  0.00000000000E+00 0. -1.
        -12    1    5    5    0    0  0.52133930157E+02 -0.34928780940E+02  0.18187401502E+03  0.19239574775E+03  0.00000000000E+00 0.  1.
          5    1    4    4  501    0 -0.82336350676E+02  0.22556978489E+02 -0.41748588375E+03  0.42614554726E+03  0.41800000000E+01 0. -1.
         -5    1    4    4    0  501 -0.15792628677E+02  0.20465967329E+02 -0.41500878466E+01  0.26513365844E+02  0.41800000000E+01 0. -1.
</event>
<event>
11    1  0.8479398E-009  0.2406794E+03  0.7561462E-02  0.1028985E+00
         22   -1    0    0    0    0  0.00000000000E+00  0.00000000000E+00  0.12844603079E+04  0.12844603079E+04  0.00000000000E+00 0.  1.
         22   -1    0    0    0    0 -0.00000000000E+00 -0.00000000000E+00 -0.70560665797E+03  0.70560665797E+03  0.00000000000E+00 0. -1.
         24    2    1    2    0    0 -0.11705331463E+01  0.10777891170E+02 -0.62017177035E+03  0.62531996035E+03  0.79337853418E+02 0.  0.
         25    2    1    2    0    0  0.88628021299E+02 -0.19532151254E+03  0.14393043532E+03  0.28699977619E+03  0.12508989528E+03 0.  0.
        -24    2    1    2    0    0 -0.87457488152E+02  0.18454362137E+03  0.10550949849E+04  0.10777472293E+04  0.81292697231E+02 0.  0.
        -13    1    3    3    0    0 -0.89496852501E+01  0.45940066441E+01 -0.74513583134E+01  0.12518965765E+02  0.00000000000E+00 0.  1.
         14    1    3    3    0    0  0.77791521038E+01  0.61838845259E+01 -0.61272041204E+03  0.61280099458E+03  0.00000000000E+00 0. -1.
         13    1    5    5    0    0  0.91464656277E+01  0.94199563062E+01  0.23280089773E+02  0.26727438900E+02  0.00000000000E+00 0. -1.
        -14    1    5    5    0    0 -0.96603953780E+02  0.17512366506E+03  0.10318148952E+04  0.10510197904E+04  0.00000000000E+00 0.  1.
          5    1    4    4  501    0  0.11904164631E+02 -0.22306031455E+02 -0.23126558670E+02  0.34519245223E+02  0.41800000000E+01 0.  1.
         -5    1    4    4    0  501  0.76723856668E+02 -0.17301548109E+03  0.16705699399E+03  0.25248053097E+03  0.41800000000E+01 0.  1.
</event>
<event>
11    1  0.8479398E-009  0.3835671E+03  0.7561462E-02  0.9699528E-01
         22   -1    0    0    0    0  0.00000000000E+00  0.00000000000E+00  0.17984162908E+04  0.17984162908E+04  0.00000000000E+00 0.  1.
         22   -1    0    0    0    0 -0.00000000000E+00 -0.00000000000E+00 -0.10439248099E+03  0.10439248099E+03  0.00000000000E+00 0. -1.
         24    2    1    2    0    0 -0.17003057301E+03  0.77220394880E+02  0.12125547411E+03  0.23701723263E+03  0.81245882487E+02 0.  0.
         25    2    1    2    0    0 -0.45169894860E+02  0.10649946269E+03  0.20479796460E+03  0.26640558519E+03  0.12508906652E+03 0.  0.
        -24    2    1    2    0    0  0.21520046787E+03 -0.18371985757E+03  0.13679703711E+04  0.13993859540E+04  0.82908892854E+02 0.  0.
        -13    1    3    3    0    0 -0.73553880090E+02 -0.13692153932E+01  0.72748342337E+02  0.10346192217E+03  0.00000000000E+00 0.  1.
         14    1    3    3    0    0 -0.96476692920E+02  0.78589610273E+02  0.48507131770E+02  0.13355531046E+03  0.00000000000E+00 0. -1.
         13    1    5    5    0    0  0.51767236835E+02 -0.92308656205E+02  0.42287886279E+03  0.43592117110E+03  0.00000000000E+00 0. -1.
        -14    1    5    5    0    0  0.16343323103E+03 -0.91411201367E+02  0.94509150835E+03  0.96346478290E+03  0.00000000000E+00 0.  1.
          5    1    4    4  501    0 -0.42434688851E+02  0.59950788132E+01  0.58482912242E+01  0.43454789127E+02  0.41800000000E+01 0. -1.
         -5    1    4    4    0  501 -0.27352060086E+01  0.10050438388E+03  0.19894967338E+03  0.22295079607E+03  0.41800000000E+01 0. -1.
</event>
<event>
11    1  0.8479398E-009  0.1743877E+03  0.7561462E-02  0.1074275E+00
         22   -1    0    0    0    0  0.00000000000E+00  0.00000000000E+00  0.11999276997E+04  0.11999276997E+04  0.00000000000E+00 0. -1.
         22   -1    0    0    0    0 -0.00000000000E+00 -0.00000000000E+00 -0.11820293891E+03  0.11820293891E+03  0.00000000000E+00 0. -1.
        -24    2    1    2    0    0  0.62436332653E+02  0.15387042862E+03  0.18652412300E+02  0.18520706393E+03  0.79870768170E+02 0.  0.
         25    2    1    2    0    0 -0.43226057070E+02 -0.36617558482E+02  0.13131066408E+03  0.18999816309E+03  0.12508986321E+03 0.  0.
         24    2    1    2    0    0 -0.19210275583E+02 -0.11725287013E+03  0.93176168444E+03  0.94292541162E+03  0.82530146205E+02 0.  0.
        -13    1    5    5    0    0 -0.32411577588E+02 -0.11782233718E+02  0.14661576981E+03  0.15061711506E+03  0.00000000000E+00 0.  1.
         14    1    5    5    0    0  0.13201302006E+02 -0.10547063642E+03  0.78514591464E+03  0.79230829656E+03  0.00000000000E+00 0. -1.
         11    1    3    3    0    0  0.23363000416E+02  0.77226837627E+02 -0.30347772662E+02  0.86202097096E+02  0.00000000000E+00 0. -1.
        -12    1    3    3    0    0  0.39073332237E+02  0.76643590989E+02  0.49000184962E+02  0.99004966836E+02  0.00000000000E+00 0.  1.
          5    1    4    4  501    0 -0.18961748741E+02  0.33927797157E+02  0.10287467927E+03  0.11005142149E+03  0.41800000000E+01 0. -1.
         -5    1    4    4    0  501 -0.24264308329E+02 -0.70545355639E+02  0.28435984801E+02  0.79946741600E+02  0.41800000000E+01 0. -1.
</event>
<event>
11    1  0.8479398E-009  0.4426753E+03  0.7561462E-02  0.9531609E-01
         22   -1    0    0    0    0  0.00000000000E+00  0.00000000000E+00  0.18209413980E+04  0.18209413980E+04  0.00000000000E+00 0. -1.
         22   -1    0    0    0    0 -0.00000000000E+00 -0.00000000000E+00 -0.93535435643E+02  0.93535435643E+02  0.00000000000E+00 0. -1.
        -24    2    1    2    0    0 -0.12902434053E+03  0.21357739755E+03  0.28550147491E+03  0.38755217479E+03  0.80143688581E+02 0.  0.
         25    2    1    2    0    0 -0.10375272675E+03 -0.66200965517E+02  0.28266703529E+03  0.33270952284E+03  0.12509107724E+03 0.  0.
         24    2    1    2    0    0  0.23277706728E+03 -0.14737643203E+03  0.11592374522E+04  0.11942151360E+04  0.80083361730E+02 0.  0.
        -11    1    5    5    0    0  0.36303991023E+02  0.48296948036E+01  0.10967921801E+03  0.11563233363E+03  0.00000000000E+00 0.  1.
         12    1    5    5    0    0  0.19647307625E+03 -0.15220612684E+03  0.10495582342E+04  0.10785828024E+04  0.00000000000E+00 0. -1.
         11    1    3    3    0    0 -0.12441943416E+03  0.15015054178E+03  0.24062358598E+03  0.30971776010E+03  0.00000000000E+00 0. -1.
        -12    1    3    3    0    0 -0.46049063662E+01  0.63426855768E+02  0.44877888930E+02  0.77834414689E+02  0.00000000000E+00 0.  1.
          5    1    4    4  501    0 -0.70891526583E+02 -0.44682446743E+02  0.52054666763E+02  0.98738494621E+02  0.41800000000E+01 0. -1.
         -5    1    4    4    0  501 -0.32861200164E+02 -0.21518518774E+02  0.23061236853E+03  0.23397102822E+03  0.41800000000E+01 0. -1.
</event>
<event>
11    1  0.8479398E-009  0.1546061E+03  0.7561462E-02  0.1092263E+00
         22   -1    0    0    0    0  0.00000000000E+00  0.00000000000E+00  0.43980889851E+03  0.43980889851E+03  0.00000000000E+00 0.  1.
         22   -1    0    0    0    0 -0.00000000000E+00 -0.00000000000E+00 -0.64824425352E+03  0.64824425352E+03  0.00000000000E+00 0.  1.
         24    2    1    2    0    0  0.71560776773E+02 -0.55636320900E+02 -0.58544511577E+03  0.59797442233E+03  0.81308555532E+02 0.  0.
         25    2    1    2    0    0 -0.11540160601E+03  0.73689821784E+01  0.10860876210E+03  0.20202220509E+03  0.12508107602E+03 0.  0.
        -24    2    1    2    0    0  0.43840829233E+02  0.48267338721E+02  0.26840099866E+03  0.28805652461E+03  0.81766197120E+02 0.  0.
        -13    1    3    3    0    0  0.78542917451E+02 -0.14364829419E+02 -0.37476619621E+03  0.38317755679E+03  0.00000000000E+00 0.  1.
         14    1    3    3    0    0 -0.69821406780E+01 -0.41271491481E+02 -0.21067891957E+03  0.21479686554E+03  0.00000000000E+00 0. -1.
         13    1    5    5    0    0  0.87490186941E+00  0.27038988571E+01 -0.59790111655E+01  0.66200526303E+01  0.00000000000E+00 0. -1.
        -14    1    5    5    0    0  0.42965927364E+02  0.45563439864E+02  0.27438000983E+03  0.28143647198E+03  0.00000000000E+00 0.  1.
          5    1    4    4  501    0 -0.10726440765E+03 -0.26962830743E+01  0.13490109673E+03  0.17242013046E+03  0.41800000000E+01 0. -1.
         -5    1    4    4    0  501 -0.81371983582E+01  0.10065265253E+02 -0.26292334631E+02  0.29602074625E+02  0.41800000000E+01 0. -1.
</event>
<event>
11    1  0.8479398E-009  0.1504358E+03  0.7561462E-02  0.1096434E+00
         22   -1    0    0    0    0  0.00000000000E+00  0.00000000000E+00  0.21623828450E+03  0.21623828450E+03  0.00000000000E+00 0. -1.
         22   -1    0    0    0    0 -0.00000000000E+00 -0.00000000000E+00 -0.46361983732E+03  0.46361983732E+03  0.00000000000E+00 0.  1.
         24    2    1    2    0    0 -0.74255620255E+02 -0.28605752785E+02 -0.33210226981E+03  0.35121992866E+03  0.82044710012E+02 0.  0.
         25    2    1    2    0    0  0.93408629742E+02  0.67631893519E+02 -0.37543184097E+02  0.17422987343E+03  0.12508922012E+03 0.  0.
        -24    2    1    2    0    0 -0.19153009487E+02 -0.39026140734E+02  0.12226390108E+03  0.15440831974E+03  0.83687455829E+02 0.  0.
        -11    1    3    3    0    0 -0.72197661463E+02 -0.19171057888E+02 -0.33322793435E+03  0.34149800587E+03  0.00000000000E+00 0.  1.
         12    1    3    3    0    0 -0.20579587921E+01 -0.94346948962E+01  0.11256645336E+01  0.97219227942E+01  0.00000000000E+00 0. -1.
         13    1    5    5    0    0 -0.26508533219E+02  0.20838675272E+02  0.38324996423E+02  0.51046626444E+02  0.00000000000E+00 0. -1.
        -14    1    5    5    0    0  0.73555237320E+01 -0.59864816006E+02  0.83938904661E+02  0.10336169329E+03  0.00000000000E+00 0.  1.
          5    1    4    4  501    0  0.85713840277E+02  0.93084786600E+02 -0.59122713190E+02  0.13973048174E+03  0.41800000000E+01 0.  1.
         -5    1    4    4    0  501  0.76947894657E+01 -0.25452893081E+02  0.21579529093E+02  0.34499391690E+02  0.41800000000E+01 0.  1.
</event>
<event>
11    1  0.8479398E-009  0.2396107E+03  0.7561462E-02  0.1029584E+00
         22   -1    0    0    0    0  0.00000000000E+00  0.00000000000E+00  0.29122356991E+04  0.29122356991E+04  0.00000000000E+00 0.  1.
         22   -1    0    0    0    0 -0.00000000000E+00 -0.00000000000E+00 -0.80152145343E+03  0.80152145343E+03  0.00000000000E+00 0. -1.
         24    2    1    2    0    0 -0.42751439368E+01  0.34706276843E+02 -0.50585312456E+03  0.51329718629E+03  0.79773525185E+02 0.  0.
         25    2    1    2    0    0  0.16435691761E+03 -0.16115182254E+03 -0.22807732521E+03  0.34735243967E+03  0.12510533479E+03 0.  0.
        -24    2    1    2    0    0 -0.16008177367E+03  0.12644554570E+03  0.28446446955E+04  0.28531075266E+04  0.81267856894E+02 0.  0.
        -11    1    3    3    0    0  0.91160109632E+01 -0.17698812772E+01 -0.42867073709E+01  0.10227902801E+02  0.00000000000E+00 0.  1.
         12    1    3    3    0    0 -0.13391154900E+02  0.36476158120E+02 -0.50156641719E+03  0.50306928349E+03  0.00000000000E+00 0. -1.
         13    1    5    5    0    0 -0.69593189482E+02  0.15416426118E+02  0.67894076252E+03  0.68267227660E+03  0.00000000000E+00 0. -1.
        -14    1    5    5    0    0 -0.90488584192E+02  0.11102911958E+03  0.21657039329E+04  0.21704352500E+04  0.00000000000E+00 0.  1.
          5    1    4    4  501    0  0.20340433973E+02 -0.81013122588E+02 -0.13279003301E+03  0.15693159195E+03  0.41800000000E+01 0.  1.
         -5    1    4    4    0  501  0.14401648364E+03 -0.80138699951E+02 -0.95287292194E+02  0.19042084771E+03  0.41800000000E+01 0.  1.
</event>
<event>
11    1  0.1269896E-008  0.1534265E+03  0.7561462E-02  0.1093428E+00
         22   -1    0    0    0    0  0.00000000000E+00  0.00000000000E+00  0.24962149970E+03  0.24962149970E+03  0.00000000000E+00 0.  1.
         22   -1    0    0    0    0 -0.00000000000E+00 -0.00000000000E+00 -0.15647727823E+04  0.15647727823E+04  0.00000000000E+00 0.  1.
        -24    2    1    2    0    0 -0.65801774616E+02 -0.27202906973E+00 -0.11768714301E+04  0.11814557868E+04  0.80507550925E+02 0.  0.
         25    2    1    2    0    0  0.62883650046E+02  0.89110145047E+02 -0.35116948076E+03  0.38840754244E+03  0.12508174694E+03 0.  0.
         24    2    1    2    0    0  0.29181245698E+01 -0.88838115978E+02  0.21288962821E+03  0.24453095275E+03  0.81071985011E+02 0.  0.
        -13    1    5    5    0    0 -0.39188438035E+01 -0.57545706111E+02  0.20295969521E+03  0.21099645378E+03  0.00000000000E+00 0.  1.
         14    1    5    5    0    0  0.68369683733E+01 -0.31292409867E+02  0.99299329974E+01  0.33534498970E+02  0.00000000000E+00 0. -1.
         13    1    3    3    0    0 -0.48391439024E+02  0.27601798299E+02 -0.39672249462E+03  0.40061493779E+03  0.00000000000E+00 0. -1.
        -14    1    3    3    0    0 -0.17410335592E+02 -0.27873827368E+02 -0.78014893545E+03  0.78084084903E+03  0.00000000000E+00 0.  1.
          5    1    4    4  501    0  0.87851897246E+02  0.21392482090E+02 -0.23188447004E+03  0.24892463515E+03  0.41800000000E+01 0. -1.
         -5    1    4    4    0  501 -0.24968247200E+02  0.67717662958E+02 -0.11928501072E+03  0.13948290729E+03  0.41800000000E+01 0. -1.
</event>
<event>
11    1  0.8479398E-009  0.1709398E+03  0.7561462E-02  0.1077217E+00
         22   -1    0    0    0    0  0.00000000000E+00  0.00000000000E+00  0.53809160826E+03  0.53809160826E+03  0.00000000000E+00 0.  1.
         22   -1    0    0    0    0 -0.00000000000E+00 -0.00000000000E+00 -0.13941600997E+03  0.13941600997E+03  0.00000000000E+00 0. -1.
         24    2    1    2    0    0  0.53078723726E+02 -0.91846440571E+01  0.11738787987E+02  0.96991837024E+02  0.79799177358E+02 0.  0.
         25    2    1    2    0    0 -0.16114551635E+03  0.25921098616E+02  0.41977048459E+02  0.20988182010E+03  0.12509406468E+03 0.  0.
        -24    2    1    2    0    0  0.10806679262E+03 -0.16736454559E+02  0.34495976184E+03  0.37063396110E+03  0.80085924188E+02 0.  0.
        -11    1    3    3    0    0  0.15705650759E+02 -0.36792626051E+02 -0.15763291639E+02  0.42998211135E+02  0.00000000000E+00 0.  1.
         12    1    3    3    0    0  0.37373072967E+02  0.27607981994E+02  0.27502079626E+02  0.53993625888E+02  0.00000000000E+00 0. -1.
         11    1    5    5    0    0  0.40643003194E+02  0.10816508159E+01  0.37320209709E+02  0.55188963841E+02  0.00000000000E+00 0. -1.
        -12    1    5    5    0    0  0.67423789427E+02 -0.17818105375E+02  0.30763955214E+03  0.31544499726E+03  0.00000000000E+00 0.  1.
          5    1    4    4  501    0 -0.10029734673E+03 -0.36968593896E+02  0.56657449410E+02  0.12105277225E+03  0.41800000000E+01 0. -1.
         -5    1    4    4    0  501 -0.60848169617E+02  0.62889692513E+02 -0.14680400950E+02  0.88829047851E+02  0.41800000000E+01 0. -1.
</event>
<event>
11    1  0.8479398E-009  0.1470548E+03  0.7561462E-02  0.1099927E+00
         22   -1    0    0    0    0  0.00000000000E+00  0.00000000000E+00  0.64900460349E+03  0.64900460349E+03  0.00000000000E+00 0. -1.
         22   -1    0    0    0    0 -0.00000000000E+00 -0.00000000000E+00 -0.15260031854E+04  0.15260031854E+04  0.00000000000E+00 0. -1.
        -24    2    1    2    0    0  0.14963627688E+02  0.73873002318E+02 -0.14122297447E+04  0.14164377255E+04  0.78878690481E+02 0.  0.
         25    2    1    2    0    0  0.59759998743E+02 -0.47665628544E+02 -0.55652318890E+02  0.15677972956E+03  0.12505772031E+03 0.  0.
         24    2    1    2    0    0 -0.74723626431E+02 -0.26207373773E+02  0.59088348167E+03  0.60179033382E+03  0.82084530712E+02 0.  0.
        -11    1    5    5    0    0 -0.20993070401E+02 -0.10740216392E+02  0.30151298794E+02  0.38277435546E+02  0.00000000000E+00 0.  1.
         12    1    5    5    0    0 -0.53730556029E+02 -0.15467157381E+02  0.56073218288E+03  0.56351289828E+03  0.00000000000E+00 0. -1.
         13    1    3    3    0    0  0.23104988225E+02  0.77818749147E+02 -0.13909229139E+04  0.13932896865E+04  0.00000000000E+00 0. -1.
        -14    1    3    3    0    0 -0.81413605376E+01 -0.39457468291E+01 -0.21306830754E+02  0.23148038928E+02  0.00000000000E+00 0.  1.
          5    1    4    4  501    0 -0.14711441293E+02 -0.55372475125E+02 -0.58166594740E+02  0.81751835759E+02  0.41800000000E+01 0. -1.
         -5    1    4    4    0  501  0.74471440036E+02  0.77068465810E+01  0.25142758492E+01  0.75027893801E+02  0.41800000000E+01 0. -1.
</event>
<event>
11    1  0.8479398E-009  0.1647876E+03  0.7561462E-02  0.1082659E+00
         22   -1    0    0    0    0  0.00000000000E+00  0.00000000000E+00  0.88909804725E+02  0.88909804725E+02  0.00000000000E+00 0. -1.
         22   -1    0    0    0    0 -0.00000000000E+00 -0.00000000000E+00 -0.15556739695E+04  0.15556739695E+04  0.00000000000E+00 0. -1.
         24    2    1    2    0    0 -0.98932943013E+02  0.13949855026E+02 -0.11232106092E+04  0.11305715771E+04  0.81287715749E+02 0.  0.
         25    2    1    2    0    0  0.16749175454E+03  0.77392867132E+01 -0.34814144415E+03  0.40615720553E+03  0.12509127096E+03 0.  0.
        -24    2    1    2    0    0 -0.68558811524E+02 -0.21689141740E+02  0.45878885270E+01  0.10785499161E+03  0.80255348651E+02 0.  0.
        -11    1    3    3    0    0 -0.34216068243E+02 -0.30336755441E+02 -0.27855031694E+03  0.28227882868E+03  0.00000000000E+00 0.  1.
         12    1    3    3    0    0 -0.64716874770E+02  0.44286610468E+02 -0.84466029224E+03  0.84829274843E+03  0.00000000000E+00 0. -1.
         11    1    5    5    0    0 -0.73614387215E+02 -0.43013744679E+02  0.81621103490E+01  0.85649753541E+02  0.00000000000E+00 0. -1.
        -12    1    5    5    0    0  0.50555756903E+01  0.21324602940E+02 -0.35742218220E+01  0.22205238069E+02  0.00000000000E+00 0.  1.
          5    1    4    4  501    0  0.13950501183E+03  0.29739504854E+02 -0.34093773583E+03  0.36959721128E+03  0.41800000000E+01 0.  1.
         -5    1    4    4    0  501  0.27986742708E+02 -0.22000218141E+02 -0.72037083168E+01  0.36559994244E+02  0.41800000000E+01 0.  1.
</event>
<event>
11    1  0.8479398E-009  0.1604532E+03  0.7561462E-02  0.1086652E+00
         22   -1    0    0    0    0  0.00000000000E+00  0.00000000000E+00  0.23767464002E+03  0.23767464002E+03  0.00000000000E+00 0.  1.
         22   -1    0    0    0    0 -0.00000000000E+00 -0.00000000000E+00 -0.62152875262E+03  0.62152875262E+03  0.00000000000E+00 0.  1.
         24    2    1    2    0    0  0.18901987030E+02 -0.10648474198E+02 -0.49620765739E+03  0.50304874979E+03  0.79783020098E+02 0.  0.
         25    2    1    2    0    0 -0.10004092740E+03  0.62137804923E+02 -0.21273483992E+02  0.17311599545E+03  0.12508913943E+03 0.  0.
        -24    2    1    2    0    0  0.81138940372E+02 -0.51489330724E+02  0.13362702877E+03  0.18303864740E+03  0.80076743187E+02 0.  0.
        -13    1    3    3    0    0 -0.10885987667E+02 -0.10517315721E+00 -0.42506369792E+03  0.42520308451E+03  0.00000000000E+00 0.  1.
         14    1    3    3    0    0  0.29787974697E+02 -0.10543301041E+02 -0.71143959465E+02  0.77845665272E+02  0.00000000000E+00 0. -1.
         11    1    5    5    0    0  0.31961505127E+01  0.16976626334E+02  0.53988420878E+01  0.18098859513E+02  0.00000000000E+00 0. -1.
        -12    1    5    5    0    0  0.77942789859E+02 -0.68465957058E+02  0.12822818669E+03  0.16493978789E+03  0.00000000000E+00 0.  1.
          5    1    4    4  501    0 -0.38088640331E+02 -0.37426624196E+02 -0.14930976047E+02  0.55604884378E+02  0.41800000000E+01 0. -1.
         -5    1    4    4    0  501 -0.61952287070E+02  0.99564429118E+02 -0.63425079447E+01  0.11751111107E+03  0.41800000000E+01 0. -1.
</event>
<event>
11    1  0.8479398E-009  0.2522419E+03  0.7561462E-02  0.1022712E+00
         22   -1    0    0    0    0  0.00000000000E+00  0.00000000000E+00  0.24625766875E+04  0.24625766875E+04  0.00000000000E+00 0. -1.
         22   -1    0    0    0    0 -0.00000000000E+00 -0.00000000000E+00 -0.11741840396E+03  0.11741840396E+03  0.00000000000E+00 0.  1.
        -24    2    1    2    0    0  0.13285947271E+03 -0.16385854605E+03  0.42295250350E+02  0.22964905607E+03  0.80302790428E+02 0.  0.
         25    2    1    2    0    0 -0.18381539992E+03  0.22384678275E+03  0.11663392890E+04  0.12082593973E+04  0.12509176926E+03 0.  0.
         24    2    1    2    0    0  0.50955927207E+02 -0.59988236703E+02  0.11365237442E+04  0.11420866381E+04  0.80502004336E+02 0.  0.
        -13    1    5    5    0    0 -0.21765512101E+02 -0.81472296676E+01  0.24692364964E+03  0.24801492620E+03  0.00000000000E+00 0.  1.
         14    1    5    5    0    0  0.72721439308E+02 -0.51841007035E+02  0.88960009457E+03  0.89407171189E+03  0.00000000000E+00 0. -1.
         13    1    3    3    0    0  0.70888816049E+02 -0.44456429693E+02 -0.12092391281E+02  0.84544806516E+02  0.00000000000E+00 0. -1.
        -14    1    3    3    0    0  0.61970656663E+02 -0.11940211635E+03  0.54387641632E+02  0.14510424955E+03  0.00000000000E+00 0.  1.
          5    1    4    4  501    0 -0.12049443939E+03  0.59586729511E+02  0.61287200986E+03  0.62745442952E+03  0.41800000000E+01 0. -1.
         -5    1    4    4    0  501 -0.63320960526E+02  0.16426005324E+03  0.55346727913E+03  0.58080496778E+03  0.41800000000E+01 0. -1.
</event>
<event>
11    1  0.8479398E-009  0.1308523E+03  0.7561462E-02  0.1118226E+00
         22   -1    0    0    0    0  0.00000000000E+00  0.00000000000E+00  0.27434599360E+03  0.27434599360E+03  0.00000000000E+00 0. -1.
         22   -1    0    0    0    0 -0.00000000000E+00 -0.00000000000E+00 -0.23305226804E+03  0.23305226804E+03  0.00000000000E+00 0. -1.
        -24    2    1    2    0    0  0.41243161772E+02  0.64366355761E+01 -0.84963580116E+02  0.12252893594E+03  0.77795253884E+02 0.  0.
         25    2    1    2    0    0 -0.32174701784E+02 -0.34433278121E+01 -0.87980120731E+02  0.15631693290E+03  0.12508962358E+03 0.  0.
         24    2    1    2    0    0 -0.90684599878E+01 -0.29933077640E+01  0.21423742641E+03  0.22855239279E+03  0.79040018444E+02 0.  0.
        -13    1    5    5    0    0  0.30916876084E+02  0.15497366614E+02  0.76807385924E+02  0.84234174367E+02  0.00000000000E+00 0.  1.
         14    1    5    5    0    0 -0.39985336072E+02 -0.18490674378E+02  0.13743004049E+03  0.14431821842E+03  0.00000000000E+00 0. -1.
         13    1    3    3    0    0  0.49693944154E+02  0.24803246409E+02 -0.85898301089E+02  0.10228981986E+03  0.00000000000E+00 0. -1.
        -14    1    3    3    0    0 -0.84507823823E+01 -0.18366610833E+02  0.93472097265E+00  0.20239116079E+02  0.00000000000E+00 0.  1.
          5    1    4    4  501    0  0.47761542278E+01  0.57450859918E+02 -0.37092293737E+02  0.68678407154E+02  0.41800000000E+01 0.  1.
         -5    1    4    4    0  501 -0.36950856012E+02 -0.60894187730E+02 -0.50887826994E+02  0.87638525749E+02  0.41800000000E+01 0.  1.
</event>
<event>
11    1  0.8479398E-009  0.1451821E+03  0.7561462E-02  0.1101906E+00
         22   -1    0    0    0    0  0.00000000000E+00  0.00000000000E+00  0.32883517483E+03  0.32883517483E+03  0.00000000000E+00 0.  1.
         22   -1    0    0    0    0 -0.00000000000E+00 -0.00000000000E+00 -0.35663217179E+03  0.35663217179E+03  0.00000000000E+00 0.  1.
        -24    2    1    2    0    0  0.17358033456E+02  0.47692303164E+02 -0.24973991313E+03  0.26760346209E+03  0.81643931850E+02 0.  0.
         25    2    1    2    0    0 -0.63101633965E+02 -0.97259167432E+02  0.56707452325E+00  0.17055446473E+03  0.12508933611E+03 0.  0.
         24    2    1    2    0    0  0.45743600509E+02  0.49566864268E+02  0.22137584164E+03  0.24730941979E+03  0.87208570885E+02 0.  0.
        -13    1    5    5    0    0  0.64376850000E+02  0.24876039960E+02  0.19432559801E+03  0.20621744403E+03  0.00000000000E+00 0.  1.
         14    1    5    5    0    0 -0.18633249491E+02  0.24690824308E+02  0.27050243624E+02  0.41091975759E+02  0.00000000000E+00 0. -1.
         11    1    3    3    0    0  0.12556477947E+02 -0.19164702807E+02 -0.29280013101E+02  0.37178893734E+02  0.00000000000E+00 0. -1.
        -12    1    3    3    0    0  0.48015555090E+01  0.66857005971E+02 -0.22045990003E+03  0.23042456836E+03  0.00000000000E+00 0.  1.
          5    1    4    4  501    0 -0.64697972041E+02 -0.11405063172E+03  0.31640796868E+02  0.13495179365E+03  0.41800000000E+01 0.  1.
         -5    1    4    4    0  501  0.15963380760E+01  0.16791464288E+02 -0.31073722344E+02  0.35602671087E+02  0.41800000000E+01 0.  1.
</event>
<event>
11    1  0.8479398E-009  0.3217044E+03  0.7561462E-02  0.9914020E-01
         22   -1    0    0    0    0  0.00000000000E+00  0.00000000000E+00  0.15098004605E+03  0.15098004605E+03  0.00000000000E+00 0.  1.
         22   -1    0    0    0    0 -0.00000000000E+00 -0.00000000000E+00 -0.24850605958E+04  0.24850605958E+04  0.00000000000E+00 0.  1.
         24    2    1    2    0    0 -0.87539890661E+01 -0.18411389282E+02 -0.11548799132E+04  0.11578433685E+04  0.80237399848E+02 0.  0.
         25    2    1    2    0    0 -0.24574492237E+03  0.16978198335E+03 -0.11193187691E+04  0.11652196790E+04  0.12508359063E+03 0.  0.
        -24    2    1    2    0    0  0.25449891143E+03 -0.15137059406E+03 -0.59881867376E+02  0.31297759437E+03  0.81770311664E+02 0.  0.
        -11    1    3    3    0    0 -0.14047855657E+02  0.18618729520E+02 -0.89308732522E+03  0.89339183442E+03  0.00000000000E+00 0.  1.
         12    1    3    3    0    0  0.52938665913E+01 -0.37030118802E+02 -0.26179258802E+03  0.26445153405E+03  0.00000000000E+00 0. -1.
         11    1    5    5    0    0  0.11746119188E+03 -0.23610081695E+02 -0.25475530664E+02  0.12248906163E+03  0.00000000000E+00 0. -1.
        -12    1    5    5    0    0  0.13703771955E+03 -0.12776051237E+03 -0.34406336711E+02  0.19048853274E+03  0.00000000000E+00 0.  1.
          5    1    4    4  501    0 -0.46820363401E+02  0.67736295388E+02 -0.15779275113E+03  0.17803476304E+03  0.41800000000E+01 0. -1.
         -5    1    4    4    0  501 -0.19892455896E+03  0.10204568796E+03 -0.96152601797E+03  0.98718491592E+03  0.41800000000E+01 0. -1.
</event>
<event>
11    1  0.8479398E-009  0.1410736E+03  0.7561462E-02  0.1106365E+00
         22   -1    0    0    0    0  0.00000000000E+00  0.00000000000E+00  0.62983869834E+03  0.62983869834E+03  0.00000000000E+00 0.  1.
         22   -1    0    0    0    0 -0.00000000000E+00 -0.00000000000E+00 -0.33384636123E+03  0.33384636123E+03  0.00000000000E+00 0.  1.
         24    2    1    2    0    0  0.16962991715E+02 -0.38525882292E+02 -0.27155273484E+03  0.28617909278E+03  0.79909940880E+02 0.  0.
         25    2    1    2    0    0  0.22784909034E+02 -0.18090458223E+02  0.33214099677E+02  0.13265128438E+03  0.12508704998E+03 0.  0.
        -24    2    1    2    0    0 -0.39747900749E+02  0.56616340515E+02  0.53433097228E+03  0.54485468241E+03  0.81066215966E+02 0.  0.
        -11    1    3    3    0    0 -0.13496493960E+01  0.10071238849E+02 -0.18473408101E+03  0.18501332950E+03  0.00000000000E+00 0.  1.
         12    1    3    3    0    0  0.18312641111E+02 -0.48597121141E+02 -0.86818653832E+02  0.10116576328E+03  0.00000000000E+00 0. -1.
         11    1    5    5    0    0 -0.77681448794E+00  0.54190801446E+02  0.16982287953E+03  0.17826120389E+03  0.00000000000E+00 0. -1.
        -12    1    5    5    0    0 -0.38971086261E+02  0.24255390687E+01  0.36450809276E+03  0.36659347851E+03  0.00000000000E+00 0.  1.
          5    1    4    4  501    0 -0.27000881942E+02 -0.24340712333E+02 -0.33131782261E+02  0.49362995232E+02  0.41800000000E+01 0. -1.
         -5    1    4    4    0  501  0.49785790976E+02  0.62502541102E+01  0.66345881938E+02  0.83288289150E+02  0.41800000000E+01 0. -1.
</event>
<event>
11    1  0.8479398E-009  0.1686772E+03  0.7561462E-02  0.1079189E+00
         22   -1    0    0    0    0  0.00000000000E+00  0.00000000000E+00  0.96364745122E+03  0.96364745122E+03  0.00000000000E+00 0.  1.
         22   -1    0    0    0    0 -0.00000000000E+00 -0.00000000000E+00 -0.24015041024E+04  0.24015041024E+04  0.00000000000E+00 0.  1.
        -24    2    1    2    0    0 -0.13534815291E+02 -0.11223810340E+03 -0.23632370479E+04  0.23674926212E+04  0.85740208616E+02 0.  0.
         25    2    1    2    0    0 -0.12428195703E+02  0.12739871914E+03  0.20488092339E+03  0.27204513038E+03  0.12508983375E+03 0.  0.
         24    2    1    2    0    0  0.25963010994E+02 -0.15160615743E+02  0.72049947334E+03  0.72561380213E+03  0.80572802760E+02 0.  0.
        -13    1    5    5    0    0 -0.19750706495E+02 -0.18194643920E+02  0.48238822071E+03  0.48313510632E+03  0.00000000000E+00 0.  1.
         14    1    5    5    0    0  0.45713717489E+02  0.30340281766E+01  0.23811125263E+03  0.24247869581E+03  0.00000000000E+00 0. -1.
         11    1    3    3    0    0  0.31278221811E+02 -0.30829196589E+02 -0.49447687709E+03  0.49642335611E+03  0.00000000000E+00 0. -1.
        -12    1    3    3    0    0 -0.44813037102E+02 -0.81408906808E+02 -0.18687601709E+04  0.18710692650E+04  0.00000000000E+00 0.  1.
          5    1    4    4  501    0 -0.50021650810E+01  0.22854957181E+02 -0.15224546928E+02  0.28224633787E+02  0.41800000000E+01 0.  1.
         -5    1    4    4    0  501 -0.74260306224E+01  0.10454376196E+03  0.22010547031E+03  0.24382049659E+03  0.41800000000E+01 0.  1.
</event>
<event>
11    1  0.8479398E-009  0.1623240E+03  0.7561462E-02  0.1084912E+00
         22   -1    0    0    0    0  0.00000000000E+00  0.00000000000E+00  0.25790759028E+03  0.25790759028E+03  0.00000000000E+00 0. -1.
         22   -1    0    0    0    0 -0.00000000000E+00 -0.00000000000E+00 -0.12466427639E+04  0.12466427639E+04  0.00000000000E+00 0. -1.
        -24    2    1    2    0    0 -0.49254957030E+02  0.57622727377E+02 -0.11245614137E+04  0.11300003316E+04  0.80721414500E+02 0.  0.
         25    2    1    2    0    0  0.10803190138E+03  0.31457395320E+02 -0.19309926420E+02  0.16934695098E+03  0.12508020272E+03 0.  0.
         24    2    1    2    0    0 -0.58776944345E+02 -0.89080122697E+02  0.15513616648E+03  0.20520307161E+03  0.81554110898E+02 0.  0.
        -11    1    5    5    0    0 -0.22532498759E+02  0.73667401035E+01  0.69236537765E+01  0.24696545136E+02  0.00000000000E+00 0.  1.
         12    1    5    5    0    0 -0.36244445586E+02 -0.96446862801E+02  0.14821251270E+03  0.18050652648E+03  0.00000000000E+00 0. -1.
         13    1    3    3    0    0 -0.50293620219E+02  0.80328315166E+01 -0.80529208756E+03  0.80690106017E+03  0.00000000000E+00 0. -1.
        -14    1    3    3    0    0  0.10386631889E+01  0.49589895861E+02 -0.31926932614E+03  0.32309927144E+03  0.00000000000E+00 0.  1.
          5    1    4    4  501    0  0.13014257027E+03  0.47507348897E+02 -0.25724713070E+02  0.14097258620E+03  0.41800000000E+01 0. -1.
         -5    1    4    4    0  501 -0.22110668898E+02 -0.16049953577E+02  0.64147866495E+01  0.28374364781E+02  0.41800000000E+01 0. -1.
</event>
<event>
11    1  0.8479398E-009  0.1813453E+03  0.7561462E-02  0.1068560E+00
         22   -1    0    0    0    0  0.00000000000E+00  0.00000000000E+00  0.20476154860E+03  0.20476154860E+03  0.00000000000E+00 0.  1.
         22   -1    0    0    0    0 -0.00000000000E+00 -0.00000000000E+00 -0.20277741903E+04  0.20277741903E+04  0.00000000000E+00 0.  1.
         24    2    1    2    0    0  0.27613720069E+02  0.11894622811E+02 -0.18764239032E+04  0.18784330532E+04  0.81486633403E+02 0.  0.
         25    2    1    2    0    0 -0.67825794776E+02  0.11362298180E+03  0.77556114730E+02  0.19792337517E+03  0.12509272991E+03 0.  0.
        -24    2    1    2    0    0  0.40212074706E+02 -0.12551760461E+03 -0.24144853252E+02  0.15617931051E+03  0.80232930103E+02 0.  0.
        -13    1    3    3    0    0  0.36404474881E+02 -0.12031475632E+02 -0.16701703306E+04  0.16706103602E+04  0.00000000000E+00 0.  1.
         14    1    3    3    0    0 -0.87907548120E+01  0.23926098443E+02 -0.20625357255E+03  0.20782269305E+03  0.00000000000E+00 0. -1.
         13    1    5    5    0    0  0.26210480502E+02 -0.39705769803E+02 -0.46371334418E+02  0.66436722522E+02  0.00000000000E+00 0. -1.
        -14    1    5    5    0    0  0.14001594205E+02 -0.85811834811E+02  0.22226481166E+02  0.89742587989E+02  0.00000000000E+00 0.  1.
          5    1    4    4  501    0 -0.87190151950E+02  0.24709032433E+02  0.44195439722E+02  0.10091267598E+03  0.41800000000E+01 0. -1.
         -5    1    4    4    0  501  0.19364357174E+02  0.88913949370E+02  0.33360675008E+02  0.97010699195E+02  0.41800000000E+01 0. -1.
</event>
<event>
11    1  0.8479398E-009  0.1462373E+03  0.7561462E-02  0.1100787E+00
         22   -1    0    0    0    0  0.00000000000E+00  0.00000000000E+00  0.41805905786E+03  0.41805905786E+03  0.00000000000E+00 0.  1.
         22   -1    0    0    0    0 -0.00000000000E+00 -0.00000000000E+00 -0.20903603502E+03  0.20903603502E+03  0.00000000000E+00 0.  1.
         24    2    1    2    0    0 -0.20534372090E+02  0.55030187548E+02 -0.12823802145E+03  0.16238504062E+03  0.80460731372E+02 0.  0.
         25    2    1    2    0    0 -0.39950438818E+02  0.50249014624E+00  0.21257654370E+02  0.13302814045E+03  0.12509319816E+03 0.  0.
        -24    2    1    2    0    0  0.60484810909E+02 -0.55532677695E+02  0.31600338992E+03  0.33168191181E+03  0.58416243791E+02 0.  0.
        -13    1    3    3    0    0 -0.44145625481E+02  0.60498341917E+02 -0.89636429458E+02  0.11680571523E+03  0.00000000000E+00 0.  1.
         14    1    3    3    0    0  0.23611253391E+02 -0.54681543685E+01 -0.38601591990E+02  0.45579325390E+02  0.00000000000E+00 0. -1.
         11    1    5    5    0    0  0.12472479748E+02  0.10594316257E+02  0.87221525806E+02  0.88743432726E+02  0.00000000000E+00 0. -1.
        -12    1    5    5    0    0  0.48012331161E+02 -0.66126993951E+02  0.22878186411E+03  0.24293847908E+03  0.00000000000E+00 0.  1.
          5    1    4    4  501    0  0.35307973154E+02 -0.26709740557E+01 -0.25892593880E+02  0.44064564998E+02  0.41800000000E+01 0. -1.
         -5    1    4    4    0  501 -0.75258411972E+02  0.31734642020E+01  0.47150248250E+02  0.88963575454E+02  0.41800000000E+01 0. -1.
</event>
<event>
11    1  0.8479398E-009  0.1904491E+03  0.7561462E-02  0.1061491E+00
         22   -1    0    0    0    0  0.00000000000E+00  0.00000000000E+00  0.42869236501E+03  0.42869236501E+03  0.00000000000E+00 0. -1.
         22   -1    0    0    0    0 -0.00000000000E+00 -0.00000000000E+00 -0.16665008946E+04  0.16665008946E+04  0.00000000000E+00 0.  1.
        -24    2    1    2    0    0 -0.12791156239E+03  0.63735225847E+02 -0.15587943617E+04  0.15679642213E+04  0.90820650065E+02 0.  0.
         25    2    1    2    0    0  0.13286025952E+03 -0.91172372019E+02  0.93583034305E+01  0.20421000001E+03  0.12509954549E+03 0.  0.
         24    2    1    2    0    0 -0.49486971270E+01  0.27437146172E+02  0.31162752867E+03  0.32301903828E+03  0.80326184252E+02 0.  0.
        -11    1    5    5    0    0  0.35960120120E+02  0.35136149703E+01  0.10555926386E+03  0.11157165373E+03  0.00000000000E+00 0.  1.
         12    1    5    5    0    0 -0.40908817247E+02  0.23923531202E+02  0.20606826481E+03  0.21144738456E+03  0.00000000000E+00 0. -1.
         13    1    3    3    0    0 -0.38444016472E+02  0.46967545732E+02 -0.31183096686E+03  0.31768293100E+03  0.00000000000E+00 0. -1.
        -14    1    3    3    0    0 -0.89467545923E+02  0.16767680115E+02 -0.12469633949E+04  0.12502812903E+04  0.00000000000E+00 0.  1.
          5    1    4    4  501    0  0.12693730948E+03 -0.93045516460E+02  0.48198613021E+02  0.16465456984E+03  0.41800000000E+01 0. -1.
         -5    1    4    4    0  501  0.59229500426E+01  0.18731444411E+01 -0.38840309590E+02  0.39555430176E+02  0.41800000000E+01 0. -1.
</event>
<event>
11    1  0.8479398E-009  0.1530959E+03  0.7561462E-02  0.1093757E+00
         22   -1    0    0    0    0  0.00000000000E+00  0.00000000000E+00  0.97960332824E+03  0.97960332824E+03  0.00000000000E+00 0.  1.
         22   -1    0    0    0    0 -0.00000000000E+00 -0.00000000000E+00 -0.54093816531E+03  0.54093816531E+03  0.00000000000E+00 0.  1.
        -24    2    1    2    0    0 -0.21330571028E+02 -0.83869895806E+02 -0.39696926188E+03  0.41442589186E+03  0.81701115588E+02 0.  0.
         25    2    1    2    0    0  0.65127916810E+02  0.83218703788E+02 -0.82596978020E+02  0.18340387071E+03  0.12509085020E+03 0.  0.
         24    2    1    2    0    0 -0.43797345782E+02  0.65119201739E+00  0.91823140283E+03  0.92271173098E+03  0.79557512531E+02 0.  0.
        -11    1    5    5    0    0 -0.33480657769E+02 -0.53001981947E+01  0.90169896959E+03  0.90233590104E+03  0.00000000000E+00 0.  1.
         12    1    5    5    0    0 -0.10316688012E+02  0.59513902121E+01  0.16532433240E+02  0.20375829942E+02  0.00000000000E+00 0. -1.
         13    1    3    3    0    0 -0.38940716084E+01 -0.23152717914E+02 -0.28420186951E+03  0.28516997523E+03  0.00000000000E+00 0. -1.
        -14    1    3    3    0    0 -0.17436499420E+02 -0.60717177891E+02 -0.11276739237E+03  0.12925591664E+03  0.00000000000E+00 0.  1.
          5    1    4    4  501    0  0.82722584231E+02  0.99555538494E+02 -0.90260222390E+02  0.15785661637E+03  0.41800000000E+01 0. -1.
         -5    1    4    4    0  501 -0.17594667421E+02 -0.16336834706E+02  0.76632443699E+01  0.25547254336E+02  0.41800000000E+01 0. -1.
</event>
<event>
11    1  0.8479398E-009  0.2829531E+03  0.7561462E-02  0.1007676E+00
         22   -1    0    0    0    0  0.00000000000E+00  0.00000000000E+00  0.68342584441E+03  0.68342584441E+03  0.00000000000E+00 0.  1.
         22   -1    0    0    0    0 -0.00000000000E+00 -0.00000000000E+00 -0.40969319661E+03  0.40969319661E+03  0.00000000000E+00 0. -1.
         24    2    1    2    0    0  0.73613377497E+02  0.23473499848E+03 -0.25521178505E+03  0.36420274884E+03  0.83613026337E+02 0.  0.
         25    2    1    2    0    0 -0.57913758593E+02 -0.28837826842E+03  0.17949370832E+03  0.36658561289E+03  0.12510392128E+03 0.  0.
        -24    2    1    2    0    0 -0.15699618905E+02  0.53643269937E+02  0.34945072453E+03  0.36233067930E+03  0.77740811960E+02 0.  0.
        -13    1    3    3    0    0  0.54291032528E+02  0.84698841204E+02 -0.59645722092E+02  0.11695735153E+03  0.00000000000E+00 0.  1.
         14    1    3    3    0    0  0.19322344969E+02  0.15003615728E+03 -0.19556606296E+03  0.24724539730E+03  0.00000000000E+00 0. -1.
         13    1    5    5    0    0 -0.17129486538E+02 -0.10811308689E+02  0.28477287544E+02  0.34946525013E+02  0.00000000000E+00 0. -1.
        -14    1    5    5    0    0  0.14298676336E+01  0.64454578626E+02  0.32097343699E+03  0.32738415429E+03  0.00000000000E+00 0.  1.
          5    1    4    4  501    0 -0.36289189893E+02 -0.25016382491E+03  0.92788658791E+02  0.26930661372E+03  0.41800000000E+01 0. -1.
         -5    1    4    4    0  501 -0.21624568699E+02 -0.38214443509E+02  0.86705049533E+02  0.97278999165E+02  0.41800000000E+01 0. -1.
</event>
<event>
11    1  0.8479398E-009  0.1470917E+03  0.7561462E-02  0.1099888E+00
         22   -1    0    0    0    0  0.00000000000E+00  0.00000000000E+00  0.27471595670E+03  0.27471595670E+03  0.00000000000E+00 0.  1.
         22   -1    0    0    0    0 -0.00000000000E+00 -0.00000000000E+00 -0.35957699499E+03  0.35957699499E+03  0.00000000000E+00 0. -1.
        -24    2    1    2    0    0  0.50313341540E+01  0.72259744256E+02 -0.17218019577E+03  0.20226219876E+03  0.77570563169E+02 0.  0.
         25    2    1    2    0    0  0.54072945229E+02 -0.88574358652E+02 -0.11931542213E+03  0.20162704964E+03  0.12509195327E+03 0.  0.
         24    2    1    2    0    0 -0.59104279383E+02  0.16314614396E+02  0.20663457961E+03  0.23040370329E+03  0.81415812444E+02 0.  0.
        -13    1    5    5    0    0  0.13480552034E+02  0.23079382996E+01  0.98322904910E+02  0.99269559747E+02  0.00000000000E+00 0.  1.
         14    1    5    5    0    0 -0.72584831417E+02  0.14006676097E+02  0.10831167470E+03  0.13113414355E+03  0.00000000000E+00 0. -1.
         11    1    3    3    0    0 -0.24353965790E+02  0.58025406578E+02 -0.15034199345E+03  0.16298091439E+03  0.00000000000E+00 0. -1.
        -12    1    3    3    0    0  0.29385299944E+02  0.14234337678E+02 -0.21838202311E+02  0.39281284374E+02  0.00000000000E+00 0.  1.
          5    1    4    4  501    0  0.53000644562E+02 -0.11159163077E+03 -0.12676210525E+03  0.17705328042E+03  0.41800000000E+01 0.  1.
         -5    1    4    4    0  501  0.10723006671E+01  0.23017272116E+02  0.74466831131E+01  0.24573769222E+02  0.41800000000E+01 0.  1.
</event>
<event>
11    1  0.8479398E-009  0.1680152E+03  0.7561462E-02  0.1079772E+00
         22   -1    0    0    0    0  0.00000000000E+00  0.00000000000E+00  0.35559106056E+03  0.35559106056E+03  0.00000000000E+00 0.  1.
         22   -1    0    0    0    0 -0.00000000000E+00 -0.00000000000E+00 -0.49862002277E+03  0.49862002277E+03  0.00000000000E+00 0. -1.
        -24    2    1    2    0    0  0.64807019323E+02  0.93350295147E+02 -0.44215674696E+03  0.46372448333E+03  0.81385380735E+02 0.  0.
         25    2    1    2    0    0 -0.52711135940E+02 -0.72524041963E+02  0.12914712164E+03  0.20090925634E+03  0.12508936703E+03 0.  0.
         24    2    1    2    0    0 -0.12095883383E+02 -0.20826253184E+02  0.16998066311E+03  0.18957734365E+03  0.80412064877E+02 0.  0.
        -13    1    5    5    0    0 -0.13551459904E+02 -0.51167830910E+02  0.11884626576E+03  0.13010082194E+03  0.00000000000E+00 0.  1.
         14    1    5    5    0    0  0.14555765214E+01  0.30341577726E+02  0.51134397354E+02  0.59476521709E+02  0.00000000000E+00 0. -1.
         11    1    3    3    0    0  0.18196193052E+02  0.78195614794E+02 -0.35268620099E+03  0.36170873916E+03  0.00000000000E+00 0. -1.
        -12    1    3    3    0    0  0.46610826271E+02  0.15154680352E+02 -0.89470545973E+02  0.10201574417E+03  0.00000000000E+00 0.  1.
          5    1    4    4  501    0 -0.17071664828E+02 -0.10184951783E+03  0.10950042841E+03  0.15057417523E+03  0.41800000000E+01 0.  1.
         -5    1    4    4    0  501 -0.35639471112E+02  0.29325475872E+02  0.19646693222E+02  0.50335081114E+02  0.41800000000E+01 0.  1.
</event>
<event>
11    1  0.8479398E-009  0.1816756E+03  0.7561462E-02  0.1068295E+00
         22   -1    0    0    0    0  0.00000000000E+00  0.00000000000E+00  0.11507024859E+04  0.11507024859E+04  0.00000000000E+00 0.  1.
         22   -1    0    0    0    0 -0.00000000000E+00 -0.00000000000E+00 -0.55061196883E+03  0.55061196883E+03  0.00000000000E+00 0.  1.
        -24    2    1    2    0    0 -0.71042332786E+02  0.11058730065E+03 -0.47383830652E+03  0.49825107213E+03  0.80341932017E+02 0.  0.
         25    2    1    2    0    0  0.80028117616E+02 -0.10930691389E+03  0.72301551190E+02  0.19805714442E+03  0.12508643859E+03 0.  0.
         24    2    1    2    0    0 -0.89857848296E+01 -0.12803867620E+01  0.10016272724E+04  0.10050062381E+04  0.81841079233E+02 0.  0.
        -13    1    5    5    0    0  0.13464276676E+02 -0.14964563498E+02  0.89355747077E+03  0.89378419010E+03  0.00000000000E+00 0.  1.
         14    1    5    5    0    0 -0.22450061505E+02  0.13684176736E+02  0.10806980159E+03  0.11122204804E+03  0.00000000000E+00 0. -1.
         13    1    3    3    0    0 -0.44662216367E+02  0.66046852601E+02 -0.14600750421E+03  0.16635832289E+03  0.00000000000E+00 0. -1.
        -14    1    3    3    0    0 -0.26380116419E+02  0.44540448050E+02 -0.32783080231E+03  0.33189274924E+03  0.00000000000E+00 0.  1.
          5    1    4    4  501    0 -0.24976987900E+02 -0.23223720780E+02 -0.14014564857E+02  0.37108914826E+02  0.41800000000E+01 0.  1.
         -5    1    4    4    0  501  0.10500510552E+03 -0.86083193109E+02  0.86316116047E+02  0.16094822959E+03  0.41800000000E+01 0.  1.
</event>
<event>
11    1  0.8479398E-009  0.2266293E+03  0.7561462E-02  0.1037142E+00
         22   -1    0    0    0    0  0.00000000000E+00  0.00000000000E+00  0.16116754975E+04  0.16116754975E+04  0.00000000000E+00 0.  1.
         22   -1    0    0    0    0 -0.00000000000E+00 -0.00000000000E+00 -0.12468968837E+03  0.12468968837E+03  0.00000000000E+00 0.  1.
         24    2    1    2    0    0  0.16378231699E+03 -0.92520569206E+02  0.13428976287E+02  0.20491762967E+03  0.80163548207E+02 0.  0.
         25    2    1    2    0    0 -0.18844993605E+03  0.57038736548E+02  0.47746525807E+03  0.53140135013E+03  0.12509007310E+03 0.  0.
        -24    2    1    2    0    0  0.24667619064E+02  0.35481832658E+02  0.99609157480E+03  0.10000462061E+04  0.77630774067E+02 0.  0.
        -11    1    3    3    0    0  0.10460702993E+03 -0.84001865174E+02 -0.21204032093E+02  0.13582545800E+03  0.00000000000E+00 0.  1.
         12    1    3    3    0    0  0.59175287059E+02 -0.85187040320E+01  0.34633008380E+02  0.69092171672E+02  0.00000000000E+00 0. -1.
         13    1    5    5    0    0  0.22827106988E+02  0.56907016664E+02  0.54419645195E+03  0.54763972069E+03  0.00000000000E+00 0. -1.
        -14    1    5    5    0    0  0.18405120761E+01 -0.21425184007E+02  0.45189512285E+03  0.45240648542E+03  0.00000000000E+00 0.  1.
          5    1    4    4  501    0  0.94882897048E+01 -0.89362273559E+01  0.92534032289E+02  0.93540917958E+02  0.41800000000E+01 0.  1.
         -5    1    4    4    0  501 -0.19793822576E+03  0.65974963904E+02  0.38493122578E+03  0.43786043217E+03  0.41800000000E+01 0.  1.
</event>
<event>
11    1  0.8479398E-009  0.1405746E+03  0.7561462E-02  0.1106918E+00
         22   -1    0    0    0    0  0.00000000000E+00  0.00000000000E+00  0.10995491305E+04  0.10995491305E+04  0.00000000000E+00 0. -1.
         22   -1    0    0    0    0 -0.00000000000E+00 -0.00000000000E+00 -0.25385175295E+03  0.25385175295E+03  0.00000000000E+00 0.  1.
        -24    2    1    2    0    0 -0.15882889005E+02  0.22949751934E+02 -0.21750610140E+03  0.23310038816E+03  0.79043845658E+02 0.  0.
         25    2    1    2    0    0 -0.49490598611E+02 -0.12856671528E+02  0.15347029700E+03  0.20448725796E+03  0.12508914123E+03 0.  0.
         24    2    1    2    0    0  0.65373487617E+02 -0.10093080406E+02  0.90973318194E+03  0.91581323731E+03  0.81999147230E+02 0.  0.
        -13    1    5    5    0    0 -0.37510550627E+01  0.25483821162E+02  0.16000551326E+03  0.16206560347E+03  0.00000000000E+00 0.  1.
         14    1    5    5    0    0  0.69124542679E+02 -0.35576901568E+02  0.74972766868E+03  0.75374763383E+03  0.00000000000E+00 0. -1.
         13    1    3    3    0    0 -0.45842525372E+02  0.22594382771E+02 -0.10660075316E+03  0.11821913483E+03  0.00000000000E+00 0. -1.
        -14    1    3    3    0    0  0.29959636366E+02  0.35536916269E+00 -0.11090534825E+03  0.11488125334E+03  0.00000000000E+00 0.  1.
          5    1    4    4  501    0 -0.96297468734E+01  0.58159180435E+01 -0.21170803913E+02  0.24335822687E+02  0.41800000000E+01 0.  1.
         -5    1    4    4    0  501 -0.39860851738E+02 -0.18672589571E+02  0.17464110091E+03  0.18015143527E+03  0.41800000000E+01 0.  1.
</event>
<event>
11    1  0.8479398E-009  0.3785301E+03  0.7561462E-02  0.9715320E-01
         22   -1    0    0    0    0  0.00000000000E+00  0.00000000000E+00  0.10998827804E+04  0.10998827804E+04  0.00000000000E+00 0. -1.
         22   -1    0    0    0    0 -0.00000000000E+00 -0.00000000000E+00 -0.21837380643E+04  0.21837380643E+04  0.00000000000E+00 0. -1.
         24    2    1    2    0    0  0.11565615862E+03 -0.77781783900E+02 -0.16770123815E+04  0.16845496929E+04  0.76881645600E+02 0.  0.
         25    2    1    2    0    0 -0.19621523264E+03  0.41883481235E+03 -0.34745784069E+03  0.59185859827E+03  0.12508649701E+03 0.  0.
        -24    2    1    2    0    0  0.80559074029E+02 -0.34105302845E+03  0.94061493830E+03  0.10072125535E+04  0.83148861139E+02 0.  0.
        -11    1    3    3    0    0  0.31787128085E+02 -0.11932251417E+02 -0.14892243771E+03  0.15274387906E+03  0.00000000000E+00 0.  1.
         12    1    3    3    0    0  0.83869030530E+02 -0.65849532483E+02 -0.15280899437E+04  0.15318058139E+04  0.00000000000E+00 0. -1.
         13    1    5    5    0    0  0.57370240554E+02 -0.29863085895E+03  0.87016367649E+03  0.92176816950E+03  0.00000000000E+00 0. -1.
        -14    1    5    5    0    0  0.23188833475E+02 -0.42422169501E+02  0.70451261806E+02  0.85444383977E+02  0.00000000000E+00 0.  1.
          5    1    4    4  501    0 -0.13054880570E+02  0.75634575731E+02 -0.11605138541E+03  0.13919919327E+03  0.41800000000E+01 0.  1.
         -5    1    4    4    0  501 -0.18316035207E+03  0.34320023662E+03 -0.23140645528E+03  0.45265940500E+03  0.41800000000E+01 0.  1.
</event>
<event>
11    1  0.8479398E-009  0.1687204E+03  0.7561462E-02  0.1079151E+00
         22   -1    0    0    0    0  0.00000000000E+00  0.00000000000E+00  0.22243238999E+04  0.22243238999E+04  0.00000000000E+00 0.  1.
         22   -1    0    0    0    0 -0.00000000000E+00 -0.00000000000E+00 -0.73409298765E+03  0.73409298765E+03  0.00000000000E+00 0. -1.
         24    2    1    2    0    0 -0.89144133676E+02 -0.63946068203E+02 -0.60991016398E+03  0.62493763247E+03  0.80751842955E+02 0.  0.
         25    2    1    2    0    0  0.84063268066E+02  0.15578924189E+03 -0.12673656830E+02  0.21713241239E+03  0.12509573137E+03 0.  0.
        -24    2    1    2    0    0  0.50808656093E+01 -0.91843173685E+02  0.21128147330E+04  0.21163468427E+04  0.80479056589E+02 0.  0.
        -11    1    3    3    0    0 -0.25821023184E+02 -0.59847429231E+02 -0.20578318914E+03  0.21585912294E+03  0.00000000000E+00 0.  1.
         12    1    3    3    0    0 -0.63323110492E+02 -0.40986389718E+01 -0.40412697485E+03  0.40907850953E+03  0.00000000000E+00 0. -1.
         13    1    5    5    0    0  0.40597264883E-01  0.14933735132E+02  0.31978491247E+03  0.32013342271E+03  0.00000000000E+00 0. -1.
        -14    1    5    5    0    0  0.50402683444E+01 -0.10677690882E+03  0.17930298206E+04  0.17962134199E+04  0.00000000000E+00 0.  1.
          5    1    4    4  501    0 -0.23459622713E+02  0.26979954391E+02 -0.32024439239E+02  0.48179964148E+02  0.41800000000E+01 0. -1.
         -5    1    4    4    0  501  0.10752289078E+03  0.12880928750E+03  0.19350782408E+02  0.16895244824E+03  0.41800000000E+01 0. -1.
</event>
<event>
11    1  0.8479398E-009  0.1372021E+03  0.7561462E-02  0.1110724E+00
         22   -1    0    0    0    0  0.00000000000E+00  0.00000000000E+00  0.20418637341E+04  0.20418637341E+04  0.00000000000E+00 0. -1.
         22   -1    0    0    0    0 -0.00000000000E+00 -0.00000000000E+00 -0.24082629604E+03  0.24082629604E+03  0.00000000000E+00 0. -1.
        -24    2    1    2    0    0  0.84399787132E+01  0.54726688690E+02 -0.15300616835E+03  0.18243790566E+03  0.82501261652E+02 0.  0.
         25    2    1    2    0    0 -0.60613547980E+02 -0.48772464266E+02  0.34662535892E+01  0.14735004539E+03  0.12508903027E+03 0.  0.
         24    2    1    2    0    0  0.52173569267E+02 -0.59542244242E+01  0.19505773528E+04  0.19529020790E+04  0.79479475520E+02 0.  0.
        -13    1    5    5    0    0 -0.13769898707E+02 -0.11001321241E+02  0.13832509919E+03  0.13944343744E+03  0.00000000000E+00 0.  1.
         14    1    5    5    0    0  0.65943467973E+02  0.50470968163E+01  0.18122522536E+04  0.18134586416E+04  0.00000000000E+00 0. -1.
         11    1    3    3    0    0 -0.17735602710E+02  0.17554417432E+02 -0.12828155868E+03  0.13068614109E+03  0.00000000000E+00 0. -1.
        -12    1    3    3    0    0  0.26175581423E+02  0.37172271257E+02 -0.24724609666E+02  0.51751764573E+02  0.00000000000E+00 0.  1.
          5    1    4    4  501    0 -0.99350946331E+02 -0.40911982900E+02  0.39733534701E+01  0.10759953912E+03  0.41800000000E+01 0.  1.
         -5    1    4    4    0  501  0.38737398351E+02 -0.78604813651E+01 -0.50709988087E+00  0.39750506268E+02  0.41800000000E+01 0.  1.
</event>
<event>
11    1  0.8479398E-009  0.1558657E+03  0.7561462E-02  0.1091032E+00
         22   -1    0    0    0    0  0.00000000000E+00  0.00000000000E+00  0.64385548500E+03  0.64385548500E+03  0.00000000000E+00 0. -1.
         22   -1    0    0    0    0 -0.00000000000E+00 -0.00000000000E+00 -0.21422651965E+03  0.21422651965E+03  0.00000000000E+00 0. -1.
        -24    2    1    2    0    0 -0.86089445981E+02 -0.40837795790E+02 -0.64309664310E+02  0.13989812558E+03  0.79728503963E+02 0.  0.
         25    2    1    2    0    0  0.74855617489E+02  0.50443113663E+02 -0.53440099383E+02  0.16325173715E+03  0.12508962498E+03 0.  0.
         24    2    1    2    0    0  0.11233828493E+02 -0.96053178735E+01  0.54737872905E+03  0.55493214191E+03  0.90043034604E+02 0.  0.
        -13    1    5    5    0    0  0.35763338421E+02  0.28524199788E+02  0.29155463526E+03  0.29512158798E+03  0.00000000000E+00 0.  1.
         14    1    5    5    0    0 -0.24529509928E+02 -0.38129517661E+02  0.25582409379E+03  0.25981055394E+03  0.00000000000E+00 0. -1.
         11    1    3    3    0    0 -0.48252505934E+02 -0.60316431371E+02 -0.58610668142E+02  0.96961779286E+02  0.00000000000E+00 0. -1.
        -12    1    3    3    0    0 -0.37836940047E+02  0.19478635581E+02 -0.56989961690E+01  0.42936346299E+02  0.00000000000E+00 0.  1.
          5    1    4    4  501    0  0.96185126020E+02  0.37478405742E+02 -0.76861676194E+02  0.12876878128E+03  0.41800000000E+01 0. -1.
         -5    1    4    4    0  501 -0.21329508531E+02  0.12964707922E+02  0.23421576812E+02  0.34482955877E+02  0.41800000000E+01 0. -1.
</event>
<event>
11    1  0.8479398E-009  0.1593690E+03  0.7561462E-02  0.1087672E+00
         22   -1    0    0    0    0  0.00000000000E+00  0.00000000000E+00  0.63776928032E+03  0.63776928032E+03  0.00000000000E+00 0. -1.
         22   -1    0    0    0    0 -0.00000000000E+00 -0.00000000000E+00 -0.29053024331E+03  0.29053024331E+03  0.00000000000E+00 0. -1.
         24    2    1    2    0    0  0.50367684834E+02 -0.83412569816E+02 -0.15111638707E+03  0.19734574820E+03  0.81330322831E+02 0.  0.
         25    2    1    2    0    0 -0.34027253370E+02  0.97856341905E+02 -0.54861191143E+02  0.17144160453E+03  0.12509498730E+03 0.  0.
        -24    2    1    2    0    0 -0.16340431464E+02 -0.14443772089E+02  0.55321661523E+03  0.55951217090E+03  0.80806025581E+02 0.  0.
        -11    1    3    3    0    0 -0.65981244129E+01 -0.63606152239E+02 -0.57576856773E+02  0.86048662303E+02  0.00000000000E+00 0.  1.
         12    1    3    3    0    0  0.56965809247E+02 -0.19806417577E+02 -0.93539530296E+02  0.11129708589E+03  0.00000000000E+00 0. -1.
         11    1    5    5    0    0  0.22185516196E+02  0.12427122095E+02  0.35065739122E+03  0.35157820824E+03  0.00000000000E+00 0. -1.
        -12    1    5    5    0    0 -0.38525947659E+02 -0.26870894184E+02  0.20255922401E+03  0.20793396267E+03  0.00000000000E+00 0.  1.
          5    1    4    4  501    0  0.45789931941E+02  0.43276619969E+02 -0.36491874927E+02  0.72929507325E+02  0.41800000000E+01 0.  1.
         -5    1    4    4    0  501 -0.79817185311E+02  0.54579721936E+02 -0.18369316216E+02  0.98512097206E+02  0.41800000000E+01 0.  1.
</event>
<event>
11    1  0.8479398E-009  0.1360073E+03  0.7561462E-02  0.1112101E+00
         22   -1    0    0    0    0  0.00000000000E+00  0.00000000000E+00  0.10480997244E+04  0.10480997244E+04  0.00000000000E+00 0. -1.
         22   -1    0    0    0    0 -0.00000000000E+00 -0.00000000000E+00 -0.26871236662E+03  0.26871236662E+03  0.00000000000E+00 0. -1.
         24    2    1    2    0    0  0.53557797129E+02 -0.48410870441E+01 -0.24169031771E+03  0.26019598384E+03  0.79974161949E+02 0.  0.
         25    2    1    2    0    0 -0.43476726401E+02 -0.36264487845E+02  0.29957006624E+03  0.32953669344E+03  0.12508744510E+03 0.  0.
        -24    2    1    2    0    0 -0.10081070727E+02  0.41105574890E+02  0.72150760921E+03  0.72707941370E+03  0.79246119192E+02 0.  0.
        -13    1    3    3    0    0  0.41428965820E+02 -0.12910632081E+02 -0.43404878598E+02  0.61376111931E+02  0.00000000000E+00 0.  1.
         14    1    3    3    0    0  0.12128831309E+02  0.80695450364E+01 -0.19828543911E+03  0.19881987191E+03  0.00000000000E+00 0. -1.
         11    1    5    5    0    0 -0.12342628425E+02  0.36458587432E+02  0.72084166130E+03  0.72186859589E+03  0.00000000000E+00 0. -1.
        -12    1    5    5    0    0  0.22615576977E+01  0.46469874570E+01  0.66594791581E+00  0.52108178123E+01  0.00000000000E+00 0.  1.
          5    1    4    4  501    0 -0.74542486053E+02 -0.61754325683E+02  0.20942648986E+03  0.23075334455E+03  0.41800000000E+01 0.  1.
         -5    1    4    4    0  501  0.31065759652E+02  0.25489837838E+02  0.90143576382E+02  0.98783348894E+02  0.41800000000E+01 0.  1.
</event>
<event>
11    1  0.8479398E-009  0.2090930E+03  0.7561462E-02  0.1048273E+00
         22   -1    0    0    0    0  0.00000000000E+00  0.00000000000E+00  0.12228940053E+04  0.12228940053E+04  0.00000000000E+00 0. -1.
         22   -1    0    0    0    0 -0.00000000000E+00 -0.00000000000E+00 -0.12807874551E+03  0.12807874551E+03  0.00000000000E+00 0. -1.
         24    2    1    2    0    0  0.47816314206E+02 -0.16503478966E+03 -0.34009653793E+01  0.18908433366E+03  0.78857066711E+02 0.  0.
         25    2    1    2    0    0 -0.12009362416E+02  0.15436862775E+03  0.30711730219E+03  0.36596218721E+03  0.12503354406E+03 0.  0.
        -24    2    1    2    0    0 -0.35806951790E+02  0.10666161903E+02  0.79109892299E+03  0.79592622996E+03  0.79152717996E+02 0.  0.
        -11    1    3    3    0    0 -0.86187065598E+01 -0.18323600808E+02 -0.23036903192E+02  0.30671409456E+02  0.00000000000E+00 0.  1.
         12    1    3    3    0    0  0.56435020766E+02 -0.14671118885E+03  0.19635937813E+02  0.15841292421E+03  0.00000000000E+00 0. -1.
         13    1    5    5    0    0 -0.51596316651E+02  0.11374434830E+02  0.75052725020E+03  0.75238468283E+03  0.00000000000E+00 0. -1.
        -14    1    5    5    0    0  0.15789364861E+02 -0.70827292727E+00  0.40571672795E+02  0.43541547132E+02  0.00000000000E+00 0.  1.
          5    1    4    4  501    0 -0.35068117617E+02  0.16629603524E+03  0.28377091236E+03  0.33079834841E+03  0.41800000000E+01 0. -1.
         -5    1    4    4    0  501  0.23058755201E+02 -0.11927407486E+02  0.23346389834E+02  0.35163838798E+02  0.41800000000E+01 0. -1.
</event>
<event>
11    1  0.8479398E-009  0.1358073E+03  0.7561462E-02  0.1112333E+00
         22   -1    0    0    0    0  0.00000000000E+00  0.00000000000E+00  0.10634590970E+04  0.10634590970E+04  0.00000000000E+00 0. -1.
         22   -1    0    0    0    0 -0.00000000000E+00 -0.00000000000E+00 -0.47855753695E+03  0.47855753695E+03  0.00000000000E+00 0. -1.
        -24    2    1    2    0    0 -0.53234140396E+02  0.58442701572E+00 -0.46157220482E+03  0.47148059130E+03  0.80067674228E+02 0.  0.
         25    2    1    2    0    0  0.22531462857E+02  0.22368151345E+02  0.48180359729E+03  0.49878346651E+03  0.12506893738E+03 0.  0.
         24    2    1    2    0    0  0.30702677540E+02 -0.22952578361E+02  0.56467016756E+03  0.57175257612E+03  0.81111866608E+02 0.  0.
        -11    1    5    5    0    0 -0.67226047396E+01  0.15987419924E+02  0.32404809644E+02  0.36754084105E+02  0.00000000000E+00 0.  1.
         12    1    5    5    0    0  0.37425282279E+02 -0.38939998284E+02  0.53226535792E+03  0.53499849202E+03  0.00000000000E+00 0. -1.
         13    1    3    3    0    0 -0.58382491056E+02  0.26066305177E+02 -0.39259066343E+03  0.39776299041E+03  0.00000000000E+00 0. -1.
        -14    1    3    3    0    0  0.51483506599E+01 -0.25481878161E+02 -0.68981541385E+02  0.73717600890E+02  0.00000000000E+00 0.  1.
          5    1    4    4  501    0  0.69562508214E+02  0.37098664352E+02  0.27177255724E+03  0.28300715312E+03  0.41800000000E+01 0. -1.
         -5    1    4    4    0  501 -0.47031045357E+02 -0.14730513007E+02  0.21003104005E+03  0.21577631340E+03  0.41800000000E+01 0. -1.
</event>
<event>
11    1  0.8479398E-009  0.1366494E+03  0.7561462E-02  0.1111359E+00
         22   -1    0    0    0    0  0.00000000000E+00  0.00000000000E+00  0.15578598500E+03  0.15578598500E+03  0.00000000000E+00 0. -1.
         22   -1    0    0    0    0 -0.00000000000E+00 -0.00000000000E+00 -0.13026250578E+04  0.13026250578E+04  0.00000000000E+00 0. -1.
         24    2    1    2    0    0  0.23004248504E+02  0.51361499906E+02 -0.11584568312E+04  0.11625100423E+04  0.78994742991E+02 0.  0.
         25    2    1    2    0    0 -0.24949298207E+02 -0.25125922998E+02 -0.94035681298E+02  0.16046770686E+03  0.12511353285E+03 0.  0.
        -24    2    1    2    0    0  0.19450497034E+01 -0.26235576908E+02  0.10565343969E+03  0.13543329372E+03  0.80544639892E+02 0.  0.
        -11    1    3    3    0    0  0.14205774741E+02 -0.17624856192E+02 -0.47120126734E+03  0.47174471268E+03  0.00000000000E+00 0.  1.
         12    1    3    3    0    0  0.87984737625E+01  0.68986356098E+02 -0.68725556389E+03  0.69076532959E+03  0.00000000000E+00 0. -1.
         13    1    5    5    0    0 -0.16005474820E+02 -0.46796987763E+01  0.10607604503E+03  0.10737877879E+03  0.00000000000E+00 0. -1.
        -14    1    5    5    0    0  0.17950524523E+02 -0.21555878132E+02 -0.42260534123E+00  0.28054514930E+02  0.00000000000E+00 0.  1.
          5    1    4    4  501    0 -0.50014022535E+02  0.25353756333E+02 -0.86898945130E+02  0.10350417612E+03  0.41800000000E+01 0. -1.
         -5    1    4    4    0  501  0.25064724328E+02 -0.50479679331E+02 -0.71367361672E+01  0.56963530738E+02  0.41800000000E+01 0. -1.
</event>
<event>
11    1  0.8479398E-009  0.1476062E+03  0.7561462E-02  0.1099350E+00
         22   -1    0    0    0    0  0.00000000000E+00  0.00000000000E+00  0.44790357592E+03  0.44790357592E+03  0.00000000000E+00 0. -1.
         22   -1    0    0    0    0 -0.00000000000E+00 -0.00000000000E+00 -0.45797130292E+03  0.45797130292E+03  0.00000000000E+00 0. -1.
        -24    2    1    2    0    0 -0.38281665795E+02 -0.77986398048E+01 -0.32320368437E+03  0.33513508744E+03  0.79552501700E+02 0.  0.
         25    2    1    2    0    0  0.84545051031E+02 -0.54120799228E+02 -0.67573709965E+02  0.17404200816E+03  0.12508991871E+03 0.  0.
         24    2    1    2    0    0 -0.46263385237E+02  0.61919439033E+02  0.38070966734E+03  0.39669778323E+03  0.80342782340E+02 0.  0.
        -11    1    5    5    0    0  0.20264163810E+01  0.52064961923E+02  0.27719069134E+03  0.28204529067E+03  0.00000000000E+00 0.  1.
         12    1    5    5    0    0 -0.48289801618E+02  0.98544771103E+01  0.10351897599E+03  0.11465249256E+03  0.00000000000E+00 0. -1.
         11    1    3    3    0    0 -0.13650858209E+02  0.12044980243E+02 -0.28480683405E+03  0.28538808699E+03  0.00000000000E+00 0. -1.
        -12    1    3    3    0    0 -0.24630807586E+02 -0.19843620048E+02 -0.38396850324E+02  0.49747000449E+02  0.00000000000E+00 0.  1.
          5    1    4    4  501    0  0.10531449266E+03 -0.71581522810E+02 -0.71829659621E+02  0.14626014212E+03  0.41800000000E+01 0. -1.
         -5    1    4    4    0  501 -0.20769441624E+02  0.17460723581E+02  0.42559496564E+01  0.27781866043E+02  0.41800000000E+01 0. -1.
</event>
<event>
11    1  0.8479398E-009  0.1981597E+03  0.7561462E-02  0.1055833E+00
         22   -1    0    0    0    0  0.00000000000E+00  0.00000000000E+00  0.47324884380E+03  0.47324884380E+03  0.00000000000E+00 0.  1.
         22   -1    0    0    0    0 -0.00000000000E+00 -0.00000000000E+00 -0.32821045742E+03  0.32821045742E+03  0.00000000000E+00 0. -1.
        -24    2    1    2    0    0 -0.82910706869E+02 -0.11201405387E+03 -0.18217734739E+03  0.24310575365E+03  0.80563564836E+02 0.  0.
         25    2    1    2    0    0  0.15152529968E+03  0.18576636318E+03  0.82359894178E+02  0.28266526830E+03  0.12508974218E+03 0.  0.
         24    2    1    2    0    0 -0.68614592814E+02 -0.73752309315E+02  0.24485583959E+03  0.27568827927E+03  0.76826295404E+02 0.  0.
        -11    1    5    5    0    0 -0.52855523118E+02 -0.80452407415E+02  0.23888882077E+03  0.25755419793E+03  0.00000000000E+00 0.  1.
         12    1    5    5    0    0 -0.15759069696E+02  0.67000981002E+01  0.59670188231E+01  0.18134081335E+02  0.00000000000E+00 0. -1.
         11    1    3    3    0    0 -0.55846336483E+02 -0.96661749130E+02 -0.18013670046E+03  0.21192342460E+03  0.00000000000E+00 0. -1.
        -12    1    3    3    0    0 -0.27064370386E+02 -0.15352304739E+02 -0.20406469347E+01  0.31182329052E+02  0.00000000000E+00 0.  1.
          5    1    4    4  501    0  0.85798440976E+02  0.83218023225E+02 -0.22727250504E+02  0.12173993666E+03  0.41800000000E+01 0.  1.
         -5    1    4    4    0  501  0.65726858707E+02  0.10254833996E+03  0.10508714468E+03  0.16092533163E+03  0.41800000000E+01 0.  1.
</event>
<event>
11    1  0.8479398E-009  0.1553057E+03  0.7561462E-02  0.1091577E+00
         22   -1    0    0    0    0  0.00000000000E+00  0.00000000000E+00  0.14146096548E+04  0.14146096548E+04  0.00000000000E+00 0.  1.
         22   -1    0    0    0    0 -0.00000000000E+00 -0.00000000000E+00 -0.30436672685E+03  0.30436672685E+03  0.00000000000E+00 0. -1.
         24    2    1    2    0    0 -0.16261467996E+02  0.15161773343E+02 -0.28168101414E+03  0.29408909731E+03  0.81546849826E+02 0.  0.
         25    2    1    2    0    0 -0.21531861024E+02  0.74322584929E+02  0.42652147274E+03  0.45117079862E+03  0.12508818947E+03 0.  0.
        -24    2    1    2    0    0  0.37793329020E+02 -0.89484358273E+02  0.96540246932E+03  0.97371648569E+03  0.81768457540E+02 0.  0.
        -13    1    3    3    0    0 -0.15457058184E+02  0.48351194012E+02 -0.15334463172E+03  0.16152812352E+03  0.00000000000E+00 0.  1.
         14    1    3    3    0    0 -0.80440981167E+00 -0.33189420669E+02 -0.12833638242E+03  0.13256097379E+03  0.00000000000E+00 0. -1.
         13    1    5    5    0    0 -0.16742534211E+02 -0.14234358000E+02  0.66816573531E+02  0.70337642112E+02  0.00000000000E+00 0. -1.
        -14    1    5    5    0    0  0.54535863232E+02 -0.75250000273E+02  0.89858589579E+03  0.90337884358E+03  0.00000000000E+00 0.  1.
          5    1    4    4  501    0  0.45010007839E+02  0.36990175702E+02  0.27883518312E+03  0.28488718057E+03  0.41800000000E+01 0. -1.
         -5    1    4    4    0  501 -0.66541868863E+02  0.37332409227E+02  0.14768628962E+03  0.16628361805E+03  0.41800000000E+01 0. -1.
</event>
<event>
11    1  0.8479398E-009  0.1276682E+03  0.7561462E-02  0.1122168E+00
         22   -1    0    0    0    0  0.00000000000E+00  0.00000000000E+00  0.17187313793E+03  0.17187313793E+03  0.00000000000E+00 0. -1.
         22   -1    0    0    0    0 -0.00000000000E+00 -0.00000000000E+00 -0.13461163884E+04  0.13461163884E+04  0.00000000000E+00 0. -1.
         24    2    1    2    0    0  0.23184048857E+02 -0.17683908959E+01 -0.10697753997E+04  0.10730999632E+04  0.81138756134E+02 0.  0.
         25    2    1    2    0    0 -0.48471963995E+02  0.21450530158E+01 -0.24825015419E+03  0.28218963896E+03  0.12509484696E+03 0.  0.
        -24    2    1    2    0    0  0.25287915138E+02 -0.37666211996E+00  0.14378230342E+03  0.16269992423E+03  0.71821264539E+02 0.  0.
        -13    1    3    3    0    0 -0.10341208300E+00  0.12425320293E+02 -0.24518864076E+02  0.27487705871E+02  0.00000000000E+00 0.  1.
         14    1    3    3    0    0  0.23287460940E+02 -0.14193711189E+02 -0.10452565357E+04  0.10456122573E+04  0.00000000000E+00 0. -1.
         13    1    5    5    0    0  0.29882442957E+02  0.26194773353E+02  0.12113185826E+03  0.12748354260E+03  0.00000000000E+00 0. -1.
        -14    1    5    5    0    0 -0.45945278194E+01 -0.26571435473E+02  0.22650445163E+02  0.35216381629E+02  0.00000000000E+00 0.  1.
          5    1    4    4  501    0 -0.64547252808E+02  0.29057857550E+02 -0.64880532562E+02  0.96112761047E+02  0.41800000000E+01 0.  1.
         -5    1    4    4    0  501  0.16075288813E+02 -0.26912804534E+02 -0.18336962163E+03  0.18607687792E+03  0.41800000000E+01 0.  1.
</event>
<event>
11    1  0.8479398E-009  0.1381598E+03  0.7561462E-02  0.1109631E+00
         22   -1    0    0    0    0  0.00000000000E+00  0.00000000000E+00  0.38378123205E+02  0.38378123205E+02  0.00000000000E+00 0. -1.
         22   -1    0    0    0    0 -0.00000000000E+00 -0.00000000000E+00 -0.27165478149E+04  0.27165478149E+04  0.00000000000E+00 0. -1.
         24    2    1    2    0    0  0.43490581988E+02 -0.24015387011E+01 -0.20100909273E+04  0.20121484876E+04  0.79867404601E+02 0.  0.
         25    2    1    2    0    0  0.19558977976E+02 -0.85514065305E+01 -0.61188840673E+03  0.62490817104E+03  0.12508844779E+03 0.  0.
        -24    2    1    2    0    0 -0.63049559964E+02  0.10952945232E+02 -0.56190357704E+02  0.11786927943E+03  0.81489856508E+02 0.  0.
        -11    1    3    3    0    0 -0.17753574750E+02 -0.56023433819E+01 -0.16645352871E+03  0.16749135168E+03  0.00000000000E+00 0.  1.
         12    1    3    3    0    0  0.61244156738E+02  0.32008046809E+01 -0.18436373986E+04  0.18446571360E+04  0.00000000000E+00 0. -1.
         11    1    5    5    0    0 -0.49436024974E+02 -0.86806717580E+01  0.66588571107E+01  0.50632153869E+02  0.00000000000E+00 0. -1.
        -12    1    5    5    0    0 -0.13613534990E+02  0.19633616990E+02 -0.62849214815E+02  0.67237125562E+02  0.00000000000E+00 0.  1.
          5    1    4    4  501    0  0.18812400329E+02 -0.44932775659E+02 -0.55562859894E+03  0.55777546835E+03  0.41800000000E+01 0. -1.
         -5    1    4    4    0  501  0.74657764695E+00  0.36381369128E+02 -0.56259807788E+02  0.67132702688E+02  0.41800000000E+01 0. -1.
</event>
<event>
11    1  0.8479398E-009  0.5221764E+03  0.7561462E-02  0.9345288E-01
         22   -1    0    0    0    0  0.00000000000E+00  0.00000000000E+00  0.12649216660E+04  0.12649216660E+04  0.00000000000E+00 0. -1.
         22   -1    0    0    0    0 -0.00000000000E+00 -0.00000000000E+00 -0.26418683902E+04  0.26418683902E+04  0.00000000000E+00 0. -1.
        -24    2    1    2    0    0  0.11666712433E+03  0.16812089162E+02 -0.24112675091E+04  0.24154110716E+04  0.78139492823E+02 0.  0.
         25    2    1    2    0    0 -0.11242930103E+03  0.49491308612E+03  0.33399799190E+03  0.62030627260E+03  0.12508358279E+03 0.  0.
         24    2    1    2    0    0 -0.42378233037E+01 -0.51172517529E+03  0.70032279294E+03  0.87107271196E+03  0.80218707568E+02 0.  0.
        -11    1    5    5    0    0  0.13937909430E+02 -0.17621148864E+02  0.43397956309E+02  0.48868730476E+02  0.00000000000E+00 0.  1.
         12    1    5    5    0    0 -0.18175732734E+02 -0.49410402642E+03  0.65692483663E+03  0.82220398148E+03  0.00000000000E+00 0. -1.
         13    1    3    3    0    0  0.12762895518E+03  0.94465273738E+01 -0.21417522863E+04  0.21455724744E+04  0.00000000000E+00 0. -1.
        -14    1    3    3    0    0 -0.10961830844E+02  0.73655617879E+01 -0.26951522282E+03  0.26983859725E+03  0.00000000000E+00 0.  1.
          5    1    4    4  501    0 -0.10881141452E+03  0.47202550457E+03  0.34459679891E+03  0.59448501000E+03  0.41800000000E+01 0.  1.
         -5    1    4    4    0  501 -0.36178865084E+01  0.22887581556E+02 -0.10598807008E+02  0.25821262600E+02  0.41800000000E+01 0.  1.
</event>
<event>
11    1  0.8479398E-009  0.4841139E+03  0.7561462E-02  0.9429737E-01
         22   -1    0    0    0    0  0.00000000000E+00  0.00000000000E+00  0.12794847473E+04  0.12794847473E+04  0.00000000000E+00 0.  1.
         22   -1    0    0    0    0 -0.00000000000E+00 -0.00000000000E+00 -0.40966242345E+03  0.40966242345E+03  0.00000000000E+00 0.  1.
        -24    2    1    2    0    0 -0.33693114389E+03  0.32025980841E+03 -0.92603122360E+02  0.48071161392E+03  0.80121013982E+02 0.  0.
         25    2    1    2    0    0  0.35553666467E+03 -0.31526976924E+03  0.38259162919E+03  0.62275555181E+03  0.12508707070E+03 0.  0.
         24    2    1    2    0    0 -0.18605520782E+02 -0.49900391654E+01  0.57983381698E+03  0.58568000499E+03  0.80266724298E+02 0.  0.
        -11    1    5    5    0    0 -0.37366146216E+02  0.14089902503E+02  0.15696127552E+03  0.16196171229E+03  0.00000000000E+00 0.  1.
         12    1    5    5    0    0  0.18760625435E+02 -0.19079941669E+02  0.42287254146E+03  0.42371829270E+03  0.00000000000E+00 0. -1.
         11    1    3    3    0    0 -0.26865452786E+03  0.23465823145E+03 -0.39100459864E+02  0.35884340162E+03  0.00000000000E+00 0. -1.
        -12    1    3    3    0    0 -0.68276616033E+02  0.85601576957E+02 -0.53502662496E+02  0.12186821230E+03  0.00000000000E+00 0.  1.
          5    1    4    4  501    0  0.31673141891E+03 -0.32066580385E+03  0.36310683628E+03  0.57879996237E+03  0.41800000000E+01 0. -1.
         -5    1    4    4    0  501  0.38805245762E+02  0.53960346103E+01  0.19484792913E+02  0.43955589440E+02  0.41800000000E+01 0. -1.
</event>
<event>
11    1  0.8479398E-009  0.1353093E+03  0.7561462E-02  0.1112912E+00
         22   -1    0    0    0    0  0.00000000000E+00  0.00000000000E+00  0.57345510871E+03  0.57345510871E+03  0.00000000000E+00 0. -1.
         22   -1    0    0    0    0 -0.00000000000E+00 -0.00000000000E+00 -0.33501289135E+03  0.33501289135E+03  0.00000000000E+00 0. -1.
         24    2    1    2    0    0 -0.22798127637E+02 -0.46203667665E+02 -0.30365153959E+03  0.31808879473E+03  0.79509057995E+02 0.  0.
         25    2    1    2    0    0 -0.12477823764E+02  0.66798082673E+02  0.35925370005E+03  0.38643080313E+03  0.12509142528E+03 0.  0.
        -24    2    1    2    0    0  0.35275951401E+02 -0.20594415009E+02  0.18284005690E+03  0.20394840219E+03  0.80597404871E+02 0.  0.
        -13    1    3    3    0    0 -0.15834774919E+01 -0.60480376462E+01  0.37900224162E+01  0.73109801157E+01  0.00000000000E+00 0.  1.
         14    1    3    3    0    0 -0.21214650145E+02 -0.40155630018E+02 -0.30744156201E+03  0.31077781461E+03  0.00000000000E+00 0. -1.
         11    1    5    5    0    0  0.22910137546E+02 -0.49599442809E+02  0.14338882862E+03  0.15344489338E+03  0.00000000000E+00 0. -1.
        -12    1    5    5    0    0  0.12365813855E+02  0.29005027800E+02  0.39451228279E+02  0.50503508816E+02  0.00000000000E+00 0.  1.
          5    1    4    4  501    0 -0.42033363868E+02  0.70255755865E+02  0.34219482606E+03  0.35187703291E+03  0.41800000000E+01 0. -1.
         -5    1    4    4    0  501  0.29555540104E+02 -0.34576731923E+01  0.17058873992E+02  0.34553770223E+02  0.41800000000E+01 0. -1.
</event>
<event>
11    1  0.8479398E-009  0.1897536E+03  0.7561462E-02  0.1062016E+00
         22   -1    0    0    0    0  0.00000000000E+00  0.00000000000E+00  0.61863923922E+03  0.61863923922E+03  0.00000000000E+00 0.  1.
         22   -1    0    0    0    0 -0.00000000000E+00 -0.00000000000E+00 -0.28432454388E+03  0.28432454388E+03  0.00000000000E+00 0.  1.
         24    2    1    2    0    0 -0.48315647950E+02  0.10611692399E+03 -0.83207737698E+02  0.16446272640E+03  0.80803820265E+02 0.  0.
         25    2    1    2    0    0  0.68284741075E+02 -0.18986373810E+03 -0.62691654625E+02  0.24553770224E+03  0.12508986671E+03 0.  0.
        -24    2    1    2    0    0 -0.19969093125E+02  0.83746814107E+02  0.48021408767E+03  0.49296335445E+03  0.70675351327E+02 0.  0.
        -11    1    3    3    0    0 -0.10178547945E+02  0.10301855435E+03 -0.58313986062E+02  0.11881475644E+03  0.00000000000E+00 0.  1.
         12    1    3    3    0    0 -0.38137100006E+02  0.30983696457E+01 -0.24893751636E+02  0.45647969964E+02  0.00000000000E+00 0. -1.
         11    1    5    5    0    0 -0.14732822003E+02  0.25816124785E+01  0.16916665735E+02  0.22580840258E+02  0.00000000000E+00 0. -1.
        -12    1    5    5    0    0 -0.52362711217E+01  0.81165201628E+02  0.46329742193E+03  0.47038251419E+03  0.00000000000E+00 0.  1.
          5    1    4    4  501    0  0.64806232786E+02 -0.64736509378E+02  0.22059718634E+02  0.94312072613E+02  0.41800000000E+01 0.  1.
         -5    1    4    4    0  501  0.34785082890E+01 -0.12512722872E+03 -0.84751373258E+02  0.15122562963E+03  0.41800000000E+01 0.  1.
</event>
<event>
11    1  0.8479398E-009  0.1316839E+03  0.7561462E-02  0.1117217E+00
         22   -1    0    0    0    0  0.00000000000E+00  0.00000000000E+00  0.84519081211E+03  0.84519081211E+03  0.00000000000E+00 0. -1.
         22   -1    0    0    0    0 -0.00000000000E+00 -0.00000000000E+00 -0.17669779482E+03  0.17669779482E+03  0.00000000000E+00 0. -1.
         24    2    1    2    0    0  0.21589512591E+02  0.30741396995E+01 -0.97381371131E+02  0.12588347973E+03  0.76733054400E+02 0.  0.
         25    2    1    2    0    0 -0.52802920318E+02  0.22783511738E+02  0.13609010455E+02  0.13834783299E+03  0.12509069080E+03 0.  0.
        -24    2    1    2    0    0  0.31213407727E+02 -0.25857651438E+02  0.75226537796E+03  0.75765729421E+03  0.80613160393E+02 0.  0.
        -11    1    3    3    0    0  0.27219590959E+02  0.21464514290E+02 -0.95289153534E+01  0.35950406583E+02  0.00000000000E+00 0.  1.
         12    1    3    3    0    0 -0.56300783683E+01 -0.18390374591E+02 -0.87852455778E+02  0.89933073150E+02  0.00000000000E+00 0. -1.
         11    1    5    5    0    0  0.19545775206E+02 -0.50821444196E+02  0.62885351758E+03  0.63120646629E+03  0.00000000000E+00 0. -1.
        -12    1    5    5    0    0  0.11667632521E+02  0.24963792759E+02  0.12341186039E+03  0.12645082792E+03  0.00000000000E+00 0.  1.
          5    1    4    4  501    0  0.40851898401E+02  0.32251191761E-01  0.11896409624E+01  0.41082432848E+02  0.41800000000E+01 0.  1.
         -5    1    4    4    0  501 -0.93654818719E+02  0.22751260546E+02  0.12419369492E+02  0.97265400140E+02  0.41800000000E+01 0.  1.
</event>
<event>
11    1  0.8479398E-009  0.1355949E+03  0.7561462E-02  0.1112580E+00
         22   -1    0    0    0    0  0.00000000000E+00  0.00000000000E+00  0.41248474724E+03  0.41248474724E+03  0.00000000000E+00 0.  1.
         22   -1    0    0    0    0 -0.00000000000E+00 -0.00000000000E+00 -0.57442275057E+03  0.57442275057E+03  0.00000000000E+00 0. -1.
         24    2    1    2    0    0 -0.33152738915E+01  0.39962054974E+02 -0.52649262741E+03  0.53413197166E+03  0.80588582029E+02 0.  0.
         25    2    1    2    0    0  0.20220842407E+02  0.16556565555E+02  0.76770803405E+02  0.14907981552E+03  0.12509209731E+03 0.  0.
        -24    2    1    2    0    0 -0.16905568516E+02 -0.56518620529E+02  0.28778382067E+03  0.30369571063E+03  0.77015612078E+02 0.  0.
        -11    1    3    3    0    0  0.27513365204E+02 -0.11622595146E+02 -0.16639296704E+03  0.16905232759E+03  0.00000000000E+00 0.  1.
         12    1    3    3    0    0 -0.30828639096E+02  0.51584650120E+02 -0.36009966037E+03  0.36507964407E+03  0.00000000000E+00 0. -1.
         13    1    5    5    0    0  0.18464816195E+02 -0.27561434459E-01  0.17948358352E+02  0.25750607066E+02  0.00000000000E+00 0. -1.
        -14    1    5    5    0    0 -0.35370384711E+02 -0.56491059094E+02  0.26983546232E+03  0.27794510357E+03  0.00000000000E+00 0.  1.
          5    1    4    4  501    0 -0.36471033814E+01  0.67165332227E+02  0.22587857584E+02  0.71078596824E+02  0.41800000000E+01 0.  1.
         -5    1    4    4    0  501  0.23867945789E+02 -0.50608766672E+02  0.54182945821E+02  0.78001218696E+02  0.41800000000E+01 0.  1.
</event>
<event>
11    1  0.8479398E-009  0.1314086E+03  0.7561462E-02  0.1117550E+00
         22   -1    0    0    0    0  0.00000000000E+00  0.00000000000E+00  0.14842610854E+03  0.14842610854E+03  0.00000000000E+00 0. -1.
         22   -1    0    0    0    0 -0.00000000000E+00 -0.00000000000E+00 -0.14127883799E+04  0.14127883799E+04  0.00000000000E+00 0. -1.
        -24    2    1    2    0    0  0.38988989154E+02  0.69472375601E+01 -0.11536860539E+04  0.11572101983E+04  0.81089621460E+02 0.  0.
         25    2    1    2    0    0 -0.43240035725E+02 -0.24685592433E+02 -0.22465909622E+03  0.26191252610E+03  0.12508949855E+03 0.  0.
         24    2    1    2    0    0  0.42510465705E+01  0.17738354873E+02  0.11398287876E+03  0.14209176404E+03  0.82856817012E+02 0.  0.
        -13    1    5    5    0    0  0.40881637124E+02 -0.56260526452E+01  0.51654830846E+02  0.66114917168E+02  0.00000000000E+00 0.  1.
         14    1    5    5    0    0 -0.36630590554E+02  0.23364407518E+02  0.62328047916E+02  0.75976846868E+02  0.00000000000E+00 0. -1.
         11    1    3    3    0    0  0.36292829030E+02  0.69756037691E+01 -0.11539127063E+04  0.11545043795E+04  0.00000000000E+00 0. -1.
        -12    1    3    3    0    0  0.26961601243E+01 -0.28366208967E-01  0.22665241953E+00  0.27058187997E+01  0.00000000000E+00 0.  1.
          5    1    4    4  501    0 -0.81571492291E+02 -0.31063293929E+02 -0.19210979419E+03  0.21105089909E+03  0.41800000000E+01 0. -1.
         -5    1    4    4    0  501  0.38331456566E+02  0.63777014953E+01 -0.32549302032E+02  0.50861627005E+02  0.41800000000E+01 0. -1.
</event>
<event>
11    1  0.8479398E-009  0.1530521E+03  0.7561462E-02  0.1093800E+00
         22   -1    0    0    0    0  0.00000000000E+00  0.00000000000E+00  0.32041436981E+03  0.32041436981E+03  0.00000000000E+00 0. -1.
         22   -1    0    0    0    0 -0.00000000000E+00 -0.00000000000E+00 -0.28639888294E+04  0.28639888294E+04  0.00000000000E+00 0.  1.
         24    2    1    2    0    0  0.10923060950E+02  0.45717610062E+02 -0.26821240883E+04  0.26835246752E+04  0.72839853636E+02 0.  0.
         25    2    1    2    0    0  0.42721520813E+02  0.28054220022E+02 -0.14143815369E+03  0.19561056782E+03  0.12508627152E+03 0.  0.
        -24    2    1    2    0    0 -0.53644581763E+02 -0.73771830084E+02  0.27998778241E+03  0.30526795616E+03  0.80469514057E+02 0.  0.
        -11    1    3    3    0    0  0.29177600641E+02  0.57821167127E+02 -0.19783544018E+04  0.19794142464E+04  0.00000000000E+00 0.  1.
         12    1    3    3    0    0 -0.18254539691E+02 -0.12103557065E+02 -0.70376968652E+03  0.70411042882E+03  0.00000000000E+00 0. -1.
         11    1    5    5    0    0 -0.69742028669E+02 -0.78080170031E+02  0.23393192210E+03  0.25629008504E+03  0.00000000000E+00 0. -1.
        -12    1    5    5    0    0  0.16097446906E+02  0.43083399472E+01  0.46055860320E+02  0.48977871123E+02  0.00000000000E+00 0.  1.
          5    1    4    4  501    0 -0.47647615142E+01  0.70258723684E+02 -0.85626907134E+02  0.11094336768E+03  0.41800000000E+01 0. -1.
         -5    1    4    4    0  501  0.47486282327E+02 -0.42204503662E+02 -0.55811246554E+02  0.84667200145E+02  0.41800000000E+01 0. -1.
</event>
<event>
11    1  0.1075370E-008  0.3052560E+03  0.7561462E-02  0.9979910E-01
         22   -1    0    0    0    0  0.00000000000E+00  0.00000000000E+00  0.19512032999E+04  0.19512032999E+04  0.00000000000E+00 0. -1.
         22   -1    0    0    0    0 -0.00000000000E+00 -0.00000000000E+00 -0.19135711180E+04  0.19135711180E+04  0.00000000000E+00 0.  1.
        -24    2    1    2    0    0  0.39728907231E+02  0.58015901423E+02 -0.11066816296E+04  0.11118147375E+04  0.80271728482E+02 0.  0.
         25    2    1    2    0    0  0.23747143409E+03 -0.88712953286E+02 -0.76826120554E+03  0.81861819329E+03  0.12509115220E+03 0.  0.
         24    2    1    2    0    0 -0.27720034132E+03  0.30697051862E+02  0.19125750170E+04  0.19343414871E+04  0.77145672123E+02 0.  0.
        -11    1    5    5    0    0 -0.52925530414E+02  0.28046954768E+02  0.27281343280E+03  0.27931149736E+03  0.00000000000E+00 0.  1.
         12    1    5    5    0    0 -0.22427481090E+03  0.26500970939E+01  0.16397615842E+04  0.16550299897E+04  0.00000000000E+00 0. -1.
         13    1    3    3    0    0  0.30687624692E+02  0.11918113362E+02 -0.13347078035E+03  0.13747080033E+03  0.00000000000E+00 0. -1.
        -14    1    3    3    0    0  0.90412825385E+01  0.46097788061E+02 -0.97321084927E+03  0.97434393721E+03  0.00000000000E+00 0.  1.
          5    1    4    4  501    0  0.15881417725E+01  0.19063397200E+02 -0.97686495590E+02  0.99629609694E+02  0.41800000000E+01 0. -1.
         -5    1    4    4    0  501  0.23588329231E+03 -0.10777635049E+03 -0.67057470995E+03  0.71898858360E+03  0.41800000000E+01 0. -1.
</event>
<event>
11    1  0.8479398E-009  0.1356668E+03  0.7561462E-02  0.1112496E+00
         22   -1    0    0    0    0  0.00000000000E+00  0.00000000000E+00  0.77903625928E+03  0.77903625928E+03  0.00000000000E+00 0. -1.
         22   -1    0    0    0    0 -0.00000000000E+00 -0.00000000000E+00 -0.17962886528E+04  0.17962886528E+04  0.00000000000E+00 0. -1.
        -24    2    1    2    0    0  0.52364306583E+02  0.82816538077E+01 -0.17391857099E+04  0.17419123065E+04  0.81737039066E+02 0.  0.
         25    2    1    2    0    0 -0.25768033330E+02  0.13234154224E+02  0.24675337595E+02  0.13075436579E+03  0.12509475412E+03 0.  0.
         24    2    1    2    0    0 -0.26596273253E+02 -0.21515808032E+02  0.69725797880E+03  0.70265823980E+03  0.79935106282E+02 0.  0.
        -11    1    5    5    0    0  0.16252085216E+02  0.12511117450E+02  0.67996445914E+02  0.71022355570E+02  0.00000000000E+00 0.  1.
         12    1    5    5    0    0 -0.42848358468E+02 -0.34026925482E+02  0.62926153289E+03  0.63163588423E+03  0.00000000000E+00 0. -1.
         13    1    3    3    0    0  0.69242522368E+02 -0.12479536875E+02 -0.13196317607E+04  0.13215060535E+04  0.00000000000E+00 0. -1.
        -14    1    3    3    0    0 -0.16878215785E+02  0.20761190683E+02 -0.41955394928E+03  0.42040625300E+03  0.00000000000E+00 0.  1.
          5    1    4    4  501    0  0.18600424905E+02 -0.10786565585E+02  0.63360303188E+02  0.67039736156E+02  0.41800000000E+01 0. -1.
         -5    1    4    4    0  501 -0.44368458235E+02  0.24020719809E+02 -0.38684965593E+02  0.63714629632E+02  0.41800000000E+01 0. -1.
</event>
<event>
11    1  0.8479398E-009  0.1974569E+03  0.7561462E-02  0.1056337E+00
         22   -1    0    0    0    0  0.00000000000E+00  0.00000000000E+00  0.69439710273E+03  0.69439710273E+03  0.00000000000E+00 0. -1.
         22   -1    0    0    0    0 -0.00000000000E+00 -0.00000000000E+00 -0.47473770405E+03  0.47473770405E+03  0.00000000000E+00 0. -1.
         24    2    1    2    0    0 -0.69939448853E+02  0.72903197862E+02 -0.26241288244E+03  0.29268323234E+03  0.81219153254E+02 0.  0.
         25    2    1    2    0    0  0.14286814109E+03 -0.20018976697E+03 -0.82062348337E+02  0.28786813885E+03  0.12508632144E+03 0.  0.
        -24    2    1    2    0    0 -0.72928692239E+02  0.12728656911E+03  0.56413462946E+03  0.58858343558E+03  0.81621784224E+02 0.  0.
        -11    1    3    3    0    0 -0.23744469878E+02  0.42008667486E+02 -0.37799874049E+02  0.61297295796E+02  0.00000000000E+00 0.  1.
         12    1    3    3    0    0 -0.46194978975E+02  0.30894530375E+02 -0.22461300839E+03  0.23138593654E+03  0.00000000000E+00 0. -1.
         13    1    5    5    0    0 -0.64871713754E+02  0.13744376369E+03  0.48089704176E+03  0.50434223717E+03  0.00000000000E+00 0. -1.
        -14    1    5    5    0    0 -0.80569784851E+01 -0.10157194573E+02  0.83237587703E+02  0.84241198416E+02  0.00000000000E+00 0.  1.
          5    1    4    4  501    0  0.12119659398E+03 -0.10653367736E+03 -0.18157905552E-01  0.16141719714E+03  0.41800000000E+01 0. -1.
         -5    1    4    4    0  501  0.21671547117E+02 -0.93656089618E+02 -0.82044190432E+02  0.12645094171E+03  0.41800000000E+01 0. -1.
</event>
<event>
11    1  0.8479398E-009  0.2308181E+03  0.7561462E-02  0.1034645E+00
         22   -1    0    0    0    0  0.00000000000E+00  0.00000000000E+00  0.13239659400E+04  0.13239659400E+04  0.00000000000E+00 0. -1.
         22   -1    0    0    0    0 -0.00000000000E+00 -0.00000000000E+00 -0.17977771816E+03  0.17977771816E+03  0.00000000000E+00 0. -1.
        -24    2    1    2    0    0 -0.72135935956E+02  0.18679445304E+03 -0.68506128718E+02  0.22523438277E+03  0.77082271416E+02 0.  0.
         25    2    1    2    0    0  0.49143915561E+02 -0.15872124657E+03  0.32210154624E+03  0.38341099303E+03  0.12508806873E+03 0.  0.
         24    2    1    2    0    0  0.22992020394E+02 -0.28073206467E+02  0.89059280427E+03  0.89509828232E+03  0.82028373554E+02 0.  0.
        -13    1    5    5    0    0 -0.72008014976E+00  0.22683177374E+02  0.49929222718E+03  0.49980773620E+03  0.00000000000E+00 0.  1.
         14    1    5    5    0    0  0.23712100544E+02 -0.50756383841E+02  0.39130057709E+03  0.39529054611E+03  0.00000000000E+00 0. -1.
         11    1    3    3    0    0 -0.65526821766E+02  0.11562529227E+03 -0.76445254337E+02  0.15331943612E+03  0.00000000000E+00 0. -1.
        -12    1    3    3    0    0 -0.66091141896E+01  0.71169160769E+02  0.79391256190E+01  0.71914946642E+02  0.00000000000E+00 0.  1.
          5    1    4    4  501    0  0.60526907855E+02 -0.58833041928E+02  0.62859618308E+02  0.10532633769E+03  0.41800000000E+01 0. -1.
         -5    1    4    4    0  501 -0.11382992294E+02 -0.99888204642E+02  0.25924192793E+03  0.27808465534E+03  0.41800000000E+01 0. -1.
</event>
<event>
11    1  0.8479398E-009  0.2467077E+03  0.7561462E-02  0.1025668E+00
         22   -1    0    0    0    0  0.00000000000E+00  0.00000000000E+00  0.23346909279E+03  0.23346909279E+03  0.00000000000E+00 0. -1.
         22   -1    0    0    0    0 -0.00000000000E+00 -0.00000000000E+00 -0.27276088614E+04  0.27276088614E+04  0.00000000000E+00 0. -1.
        -24    2    1    2    0    0 -0.13792364532E+03  0.15145136297E+03 -0.17648857204E+04  0.17783581499E+04  0.75997736625E+02 0.  0.
         25    2    1    2    0    0  0.18747806550E+03 -0.14528629821E+03 -0.92587961599E+03  0.96392776706E+03  0.12509014074E+03 0.  0.
         24    2    1    2    0    0 -0.49554420178E+02 -0.61650647601E+01  0.19662556774E+03  0.21879203727E+03  0.81943230963E+02 0.  0.
        -11    1    5    5    0    0  0.13267864831E+01  0.17368084064E+02  0.35949983869E+01  0.17785801073E+02  0.00000000000E+00 0.  1.
         12    1    5    5    0    0 -0.50881206661E+02 -0.23533148824E+02  0.19303056935E+03  0.20100623620E+03  0.00000000000E+00 0. -1.
         13    1    3    3    0    0 -0.81684184701E+02  0.13215409138E+03 -0.14090448539E+04  0.14175840047E+04  0.00000000000E+00 0. -1.
        -14    1    3    3    0    0 -0.56239460619E+02  0.19297271595E+02 -0.35584086644E+03  0.36077414520E+03  0.00000000000E+00 0.  1.
          5    1    4    4  501    0  0.17985468570E+03 -0.73646285444E+02 -0.62607341515E+03  0.65555844659E+03  0.41800000000E+01 0.  1.
         -5    1    4    4    0  501  0.76233797956E+01 -0.71640012769E+02 -0.29980620084E+03  0.30836932047E+03  0.41800000000E+01 0.  1.
</event>
<event>
11    1  0.8479398E-009  0.1399767E+03  0.7561462E-02  0.1107584E+00
         22   -1    0    0    0    0  0.00000000000E+00  0.00000000000E+00  0.19557744126E+04  0.19557744126E+04  0.00000000000E+00 0.  1.
         22   -1    0    0    0    0 -0.00000000000E+00 -0.00000000000E+00 -0.41913853129E+03  0.41913853129E+03  0.00000000000E+00 0.  1.
         24    2    1    2    0    0  0.56970536813E+02  0.28993384715E+02 -0.37445862136E+03  0.38823143665E+03  0.80113237776E+02 0.  0.
         25    2    1    2    0    0 -0.49220663259E+02  0.24203163131E+01  0.86188826720E+02  0.15970212398E+03  0.12509085870E+03 0.  0.
        -24    2    1    2    0    0 -0.77498735543E+01 -0.31413701028E+02  0.18249056759E+04  0.18269793832E+04  0.80784030676E+02 0.  0.
        -13    1    3    3    0    0  0.40160540616E+02  0.11322446573E+02 -0.35384801222E+03  0.35629970891E+03  0.00000000000E+00 0.  1.
         14    1    3    3    0    0  0.16809996197E+02  0.17670938142E+02 -0.20610609142E+02  0.31931727736E+02  0.00000000000E+00 0. -1.
         11    1    5    5    0    0 -0.15757611207E+02 -0.23732060850E+02  0.19828690451E+03  0.20032276336E+03  0.00000000000E+00 0. -1.
        -12    1    5    5    0    0  0.80077376529E+01 -0.76816401785E+01  0.16266187714E+04  0.16266566199E+04  0.00000000000E+00 0.  1.
          5    1    4    4  501    0 -0.84879964053E+02  0.87926375903E+01  0.25957345939E+02  0.89292636772E+02  0.41800000000E+01 0.  1.
         -5    1    4    4    0  501  0.35659300794E+02 -0.63723212772E+01  0.60231480781E+02  0.70409487206E+02  0.41800000000E+01 0.  1.
</event>
<event>
11    1  0.8479398E-009  0.1832969E+03  0.7561462E-02  0.1067007E+00
         22   -1    0    0    0    0  0.00000000000E+00  0.00000000000E+00  0.10997778719E+04  0.10997778719E+04  0.00000000000E+00 0. -1.
         22   -1    0    0    0    0 -0.00000000000E+00 -0.00000000000E+00 -0.17354436901E+03  0.17354436901E+03  0.00000000000E+00 0. -1.
        -24    2    1    2    0    0  0.15098279464E+03 -0.26403742198E+02 -0.88252777137E+02  0.19609221666E+03  0.84679648560E+02 0.  0.
         25    2    1    2    0    0 -0.60501786850E+02  0.36683152273E+02  0.16130389044E+03  0.21603780083E+03  0.12508903407E+03 0.  0.
         24    2    1    2    0    0 -0.90481007793E+02 -0.10279410075E+02  0.85318238961E+03  0.86119222344E+03  0.73752130374E+02 0.  0.
        -13    1    5    5    0    0 -0.81549675047E+02 -0.18870605338E+02  0.44394333228E+03  0.45176557142E+03  0.00000000000E+00 0.  1.
         14    1    5    5    0    0 -0.89313327453E+01  0.85911952627E+01  0.40923905733E+03  0.40942665202E+03  0.00000000000E+00 0. -1.
         13    1    3    3    0    0  0.15935169378E+03 -0.14090755547E+02 -0.83561132496E+02  0.18048261569E+03  0.00000000000E+00 0. -1.
        -14    1    3    3    0    0 -0.83688991330E+01 -0.12312986651E+02 -0.46916446409E+01  0.15609600968E+02  0.00000000000E+00 0.  1.
          5    1    4    4  501    0 -0.85439023107E+02  0.13290763666E+01  0.56356939130E+02  0.10244593746E+03  0.41800000000E+01 0.  1.
         -5    1    4    4    0  501  0.24937236257E+02  0.35354075906E+02  0.10494695131E+03  0.11359186338E+03  0.41800000000E+01 0.  1.
</event>
<event>
11    1  0.8479398E-009  0.1395624E+03  0.7561462E-02  0.1108048E+00
         22   -1    0    0    0    0  0.00000000000E+00  0.00000000000E+00  0.14807800734E+03  0.14807800734E+03  0.00000000000E+00 0. -1.
         22   -1    0    0    0    0 -0.00000000000E+00 -0.00000000000E+00 -0.14389701758E+04  0.14389701758E+04  0.00000000000E+00 0. -1.
        -24    2    1    2    0    0 -0.53236477885E+02  0.30450370189E+02 -0.12964886458E+04  0.13006999871E+04  0.84713046122E+02 0.  0.
         25    2    1    2    0    0  0.42513921212E+02 -0.74881427840E+02 -0.70259598628E+02  0.16732826392E+03  0.12509066702E+03 0.  0.
         24    2    1    2    0    0  0.10722556672E+02  0.44431057650E+02  0.75856075916E+02  0.11901993215E+03  0.79514199303E+02 0.  0.
        -11    1    5    5    0    0  0.12018809681E+02  0.25698808306E+02 -0.10797213156E+02  0.30355565329E+02  0.00000000000E+00 0.  1.
         12    1    5    5    0    0 -0.12962530086E+01  0.18732249345E+02  0.86653289072E+02  0.88664366824E+02  0.00000000000E+00 0. -1.
         13    1    3    3    0    0 -0.43941473329E+02 -0.23457658671E+02 -0.59435656190E+03  0.59644013740E+03  0.00000000000E+00 0. -1.
        -14    1    3    3    0    0 -0.92950045556E+01  0.53908028860E+02 -0.70213208385E+03  0.70425984967E+03  0.00000000000E+00 0.  1.
          5    1    4    4  501    0 -0.60607323284E+01  0.31841627849E+02 -0.26593404877E+02  0.42134348498E+02  0.41800000000E+01 0. -1.
         -5    1    4    4    0  501  0.48574653541E+02 -0.10672305569E+03 -0.43666193752E+02  0.12519391542E+03  0.41800000000E+01 0. -1.
</event>
<event>
11    1  0.8479398E-009  0.1727089E+03  0.7561462E-02  0.1075698E+00
         22   -1    0    0    0    0  0.00000000000E+00  0.00000000000E+00  0.10057860075E+03  0.10057860075E+03  0.00000000000E+00 0. -1.
         22   -1    0    0    0    0 -0.00000000000E+00 -0.00000000000E+00 -0.14651134030E+04  0.14651134030E+04  0.00000000000E+00 0. -1.
        -24    2    1    2    0    0  0.60918458451E+02  0.79513450858E+02 -0.11018829995E+04  0.11092712479E+04  0.79392125260E+02 0.  0.
         25    2    1    2    0    0  0.13440060543E+02  0.41559588525E+02 -0.26056604542E+03  0.29231951522E+03  0.12509276688E+03 0.  0.
         24    2    1    2    0    0 -0.74358518994E+02 -0.12107303938E+03 -0.20857573467E+01  0.16410124056E+03  0.82079209046E+02 0.  0.
        -13    1    5    5    0    0 -0.15673889146E+02 -0.71025991243E+01 -0.28428285788E+02  0.33230786150E+02  0.00000000000E+00 0.  1.
         14    1    5    5    0    0 -0.58684629848E+02 -0.11397044026E+03  0.26342528442E+02  0.13087045441E+03  0.00000000000E+00 0. -1.
         13    1    3    3    0    0  0.76549134034E+02  0.64297548754E+02 -0.10051524475E+04  0.10101115718E+04  0.00000000000E+00 0. -1.
        -14    1    3    3    0    0 -0.15630675583E+02  0.15215902104E+02 -0.96730551922E+02  0.99159676135E+02  0.00000000000E+00 0.  1.
          5    1    4    4  501    0  0.34275162785E+02 -0.12023988877E+02 -0.21701535033E+03  0.22007384618E+03  0.41800000000E+01 0. -1.
         -5    1    4    4    0  501 -0.20835102242E+02  0.53583577402E+02 -0.43550695090E+02  0.72245669043E+02  0.41800000000E+01 0. -1.
</event>
<event>
11    1  0.8479398E-009  0.1355901E+03  0.7561462E-02  0.1112585E+00
         22   -1    0    0    0    0  0.00000000000E+00  0.00000000000E+00  0.88113669587E+03  0.88113669587E+03  0.00000000000E+00 0.  1.
         22   -1    0    0    0    0 -0.00000000000E+00 -0.00000000000E+00 -0.15176633579E+03  0.15176633579E+03  0.00000000000E+00 0.  1.
         24    2    1    2    0    0  0.51115397943E+02  0.21133234756E+01 -0.11272317367E+03  0.14772672933E+03  0.80618996720E+02 0.  0.
         25    2    1    2    0    0 -0.70997628128E+02  0.11090564489E+01  0.25850725122E+03  0.29582761115E+03  0.12508430510E+03 0.  0.
        -24    2    1    2    0    0  0.19882230186E+02 -0.32223799246E+01  0.58358628254E+03  0.58934869119E+03  0.79707238246E+02 0.  0.
        -11    1    3    3    0    0  0.24034449176E+02 -0.28533302239E+02 -0.12278942142E+02  0.39275647722E+02  0.00000000000E+00 0.  1.
         12    1    3    3    0    0  0.27080948767E+02  0.30646625715E+02 -0.10044423153E+03  0.10845108161E+03  0.00000000000E+00 0. -1.
         13    1    5    5    0    0  0.34076955075E+02  0.15708801253E+02  0.13440590635E+03  0.13954552292E+03  0.00000000000E+00 0. -1.
        -14    1    5    5    0    0 -0.14194724890E+02 -0.18931181178E+02  0.44918037619E+03  0.44980316827E+03  0.00000000000E+00 0.  1.
          5    1    4    4  501    0 -0.57288868928E+02 -0.32512236408E+02  0.46612211502E+02  0.80803655119E+02  0.41800000000E+01 0.  1.
         -5    1    4    4    0  501 -0.13708759200E+02  0.33621292857E+02  0.21189503971E+03  0.21502395603E+03  0.41800000000E+01 0.  1.
</event>
<event>
11    1  0.8479398E-009  0.1928286E+03  0.7561462E-02  0.1059714E+00
         22   -1    0    0    0    0  0.00000000000E+00  0.00000000000E+00  0.24245729536E+03  0.24245729536E+03  0.00000000000E+00 0.  1.
         22   -1    0    0    0    0 -0.00000000000E+00 -0.00000000000E+00 -0.60592931689E+03  0.60592931689E+03  0.00000000000E+00 0. -1.
         24    2    1    2    0    0 -0.23861453085E+02 -0.19197390592E+02 -0.38801023941E+03  0.39843733869E+03  0.85220057650E+02 0.  0.
         25    2    1    2    0    0 -0.12695548388E+03  0.23266178288E+02 -0.12849659571E+03  0.22094885484E+03  0.12509201178E+03 0.  0.
        -24    2    1    2    0    0  0.15081693696E+03 -0.40687876953E+01  0.15303481359E+03  0.22900041872E+03  0.79115321482E+02 0.  0.
        -11    1    3    3    0    0  0.17250064333E+02 -0.36262606964E+01 -0.15898165155E+02  0.23737441762E+02  0.00000000000E+00 0.  1.
         12    1    3    3    0    0 -0.41111517418E+02 -0.15571129896E+02 -0.37211207426E+03  0.37469989693E+03  0.00000000000E+00 0. -1.
         11    1    5    5    0    0  0.23181324247E+02 -0.11193900923E+02 -0.44906601401E+01  0.26131269395E+02  0.00000000000E+00 0. -1.
        -12    1    5    5    0    0  0.12763561271E+03  0.71251132275E+01  0.15752547373E+03  0.20286914932E+03  0.00000000000E+00 0.  1.
          5    1    4    4  501    0 -0.46526578264E+02  0.57111891046E+02 -0.11098616489E+02  0.74613284821E+02  0.41800000000E+01 0.  1.
         -5    1    4    4    0  501 -0.80428905612E+02 -0.33845712758E+02 -0.11739797922E+03  0.14633557002E+03  0.41800000000E+01 0.  1.
</event>
<event>
11    1  0.8479398E-009  0.1475768E+03  0.7561462E-02  0.1099381E+00
         22   -1    0    0    0    0  0.00000000000E+00  0.00000000000E+00  0.51443225124E+03  0.51443225124E+03  0.00000000000E+00 0.  1.
         22   -1    0    0    0    0 -0.00000000000E+00 -0.00000000000E+00 -0.54046380539E+03  0.54046380539E+03  0.00000000000E+00 0. -1.
        -24    2    1    2    0    0 -0.72579603485E+02  0.58385903240E+02 -0.40049305554E+03  0.41887055632E+03  0.79882056053E+02 0.  0.
         25    2    1    2    0    0 -0.60047068492E+01 -0.39941441083E+02 -0.89005004191E+02  0.15874592932E+03  0.12508798537E+03 0.  0.
         24    2    1    2    0    0  0.78584310334E+02 -0.18444462157E+02  0.46346650558E+03  0.47727957099E+03  0.80491583829E+02 0.  0.
        -13    1    5    5    0    0  0.82896061584E+02  0.61268489009E+01  0.40915056738E+03  0.41750866110E+03  0.00000000000E+00 0.  1.
         14    1    5    5    0    0 -0.43117512495E+01 -0.24571311058E+02  0.54315938200E+02  0.59770909885E+02  0.00000000000E+00 0. -1.
         11    1    3    3    0    0 -0.52338917503E+02  0.77947020523E+02 -0.28843501309E+03  0.30333126622E+03  0.00000000000E+00 0. -1.
        -12    1    3    3    0    0 -0.20240685982E+02 -0.19561117284E+02 -0.11205804245E+03  0.11553929010E+03  0.00000000000E+00 0.  1.
          5    1    4    4  501    0  0.17372654981E+02 -0.36602860140E+02  0.21230214399E+02  0.45932264422E+02  0.41800000000E+01 0. -1.
         -5    1    4    4    0  501 -0.23377361830E+02 -0.33385809428E+01 -0.11023521859E+03  0.11281366489E+03  0.41800000000E+01 0. -1.
</event>
<event>
11    1  0.8479398E-009  0.1333380E+03  0.7561462E-02  0.1115234E+00
         22   -1    0    0    0    0  0.00000000000E+00  0.00000000000E+00  0.28470182125E+03  0.28470182125E+03  0.00000000000E+00 0. -1.
         22   -1    0    0    0    0 -0.00000000000E+00 -0.00000000000E+00 -0.86474384001E+03  0.86474384001E+03  0.00000000000E+00 0. -1.
        -24    2    1    2    0    0  0.85322831811E+01  0.44391291246E+02 -0.78640372961E+03  0.79222530590E+03  0.84538291668E+02 0.  0.
         25    2    1    2    0    0 -0.40941398328E+02 -0.67587060889E+02  0.18802515144E+02  0.14914444404E+03  0.12508525779E+03 0.  0.
         24    2    1    2    0    0  0.32409115147E+02  0.23195769643E+02  0.18755919571E+03  0.20807591132E+03  0.80800609554E+02 0.  0.
        -11    1    5    5    0    0 -0.61367227009E+01 -0.23068591057E+02  0.92645580474E+02  0.95671431683E+02  0.00000000000E+00 0.  1.
         12    1    5    5    0    0  0.38545837848E+02  0.46264360700E+02  0.94913615235E+02  0.11240447964E+03  0.00000000000E+00 0. -1.
         13    1    3    3    0    0  0.31712483386E+02  0.29959407060E+02 -0.70530770422E+03  0.70665564832E+03  0.00000000000E+00 0. -1.
        -14    1    3    3    0    0 -0.23180200205E+02  0.14431884186E+02 -0.81096025392E+02  0.85569657573E+02  0.00000000000E+00 0.  1.
          5    1    4    4  501    0 -0.34498857159E+02 -0.90753895307E+02  0.50197375370E+02  0.10937865218E+03  0.41800000000E+01 0. -1.
         -5    1    4    4    0  501 -0.64425411690E+01  0.23166834418E+02 -0.31394860226E+02  0.39765791861E+02  0.41800000000E+01 0. -1.
</event>
<event>
11    1  0.8479398E-009  0.1317682E+03  0.7561462E-02  0.1117115E+00
         22   -1    0    0    0    0  0.00000000000E+00  0.00000000000E+00  0.72694108358E+03  0.72694108358E+03  0.00000000000E+00 0. -1.
         22   -1    0    0    0    0 -0.00000000000E+00 -0.00000000000E+00 -0.10878201784E+03  0.10878201784E+03  0.00000000000E+00 0. -1.
         24    2    1    2    0    0 -0.47927352880E+02 -0.81191273890E+01 -0.51247170451E+02  0.10824417427E+03  0.82021810522E+02 0.  0.
         25    2    1    2    0    0  0.27191982710E+01 -0.53403868187E+01  0.13173420906E+03  0.18176180922E+03  0.12509012625E+03 0.  0.
        -24    2    1    2    0    0  0.45208154609E+02  0.13459514208E+02  0.53767202713E+03  0.54571711792E+03  0.80566917980E+02 0.  0.
        -13    1    3    3    0    0 -0.54323383867E+02  0.57929959749E+01  0.13236819585E+00  0.54631550943E+02  0.00000000000E+00 0.  1.
         14    1    3    3    0    0  0.63960309866E+01 -0.13912123364E+02 -0.51379538646E+02  0.53612623331E+02  0.00000000000E+00 0. -1.
         11    1    5    5    0    0  0.66513960306E+02  0.30468098220E+01  0.32667044892E+03  0.33338712057E+03  0.00000000000E+00 0. -1.
        -12    1    5    5    0    0 -0.21305805697E+02  0.10412704386E+02  0.21100157821E+03  0.21232999735E+03  0.00000000000E+00 0.  1.
          5    1    4    4  501    0  0.20229999278E+02  0.55785975209E+02  0.79937635409E+02  0.99643493795E+02  0.41800000000E+01 0.  1.
         -5    1    4    4    0  501 -0.17510801007E+02 -0.61126362028E+02  0.51796573653E+02  0.82118315429E+02  0.41800000000E+01 0.  1.
</event>
<event>
11    1  0.8479398E-009  0.1317500E+03  0.7561462E-02  0.1117137E+00
         22   -1    0    0    0    0  0.00000000000E+00  0.00000000000E+00  0.59304803527E+03  0.59304803527E+03  0.00000000000E+00 0.  1.
         22   -1    0    0    0    0 -0.00000000000E+00 -0.00000000000E+00 -0.20258431321E+03  0.20258431321E+03  0.00000000000E+00 0.  1.
        -24    2    1    2    0    0  0.20626509492E+02 -0.35708929082E+02 -0.16938315047E+03  0.19309757799E+03  0.83038800887E+02 0.  0.
         25    2    1    2    0    0 -0.51436152900E+02  0.21442596198E+02  0.32467431503E+03  0.35237267265E+03  0.12509047458E+03 0.  0.
         24    2    1    2    0    0  0.30809643408E+02  0.14266332884E+02  0.23517255750E+03  0.25016209784E+03  0.78244367301E+02 0.  0.
        -13    1    5    5    0    0  0.30007342947E+00 -0.23218415158E+02  0.15360876210E+03  0.15535390771E+03  0.00000000000E+00 0.  1.
         14    1    5    5    0    0  0.30509569978E+02  0.37484748041E+02  0.81563795393E+02  0.94808190126E+02  0.00000000000E+00 0. -1.
         13    1    3    3    0    0 -0.35730241142E+01 -0.57504563936E+02 -0.12852069880E+03  0.14084428066E+03  0.00000000000E+00 0. -1.
        -14    1    3    3    0    0  0.24199533606E+02  0.21795634854E+02 -0.40862451677E+02  0.52253297337E+02  0.00000000000E+00 0.  1.
          5    1    4    4  501    0 -0.61414975896E+02  0.50893135610E+02  0.11295321737E+03  0.13833948182E+03  0.41800000000E+01 0. -1.
         -5    1    4    4    0  501  0.99788229960E+01 -0.29450539412E+02  0.21172109766E+03  0.21403319083E+03  0.41800000000E+01 0. -1.
</event>
<event>
11    1  0.8479398E-009  0.1428874E+03  0.7561462E-02  0.1104376E+00
         22   -1    0    0    0    0  0.00000000000E+00  0.00000000000E+00  0.93740411062E+02  0.93740411062E+02  0.00000000000E+00 0.  1.
         22   -1    0    0    0    0 -0.00000000000E+00 -0.00000000000E+00 -0.12388648248E+04  0.12388648248E+04  0.00000000000E+00 0.  1.
        -24    2    1    2    0    0  0.32839371160E+02 -0.33671364287E+02 -0.53111194942E+03  0.53925232760E+03  0.80628685566E+02 0.  0.
         25    2    1    2    0    0 -0.29863069945E+02  0.10104889472E+03 -0.65917627098E+03  0.67916566669E+03  0.12509981823E+03 0.  0.
         24    2    1    2    0    0 -0.29763012151E+01 -0.67377530435E+02  0.45163806611E+02  0.11418724162E+03  0.80314175236E+02 0.  0.
        -13    1    5    5    0    0  0.28645617101E+02 -0.25673505714E+02  0.48311981393E+02  0.61755548907E+02  0.00000000000E+00 0.  1.
         14    1    5    5    0    0 -0.31621918316E+02 -0.41704024721E+02 -0.31481747812E+01  0.52431692709E+02  0.00000000000E+00 0. -1.
         13    1    3    3    0    0 -0.10529237614E+02  0.17683723072E+02 -0.22006976796E+03  0.22103004700E+03  0.00000000000E+00 0. -1.
        -14    1    3    3    0    0  0.43368608774E+02 -0.51355087359E+02 -0.31104218146E+03  0.31822228060E+03  0.00000000000E+00 0.  1.
          5    1    4    4  501    0 -0.60759377986E+02  0.11044364485E+03 -0.58000784215E+03  0.59356218719E+03  0.41800000000E+01 0.  1.
         -5    1    4    4    0  501  0.30896308041E+02 -0.93947501258E+01 -0.79168428827E+02  0.85603479505E+02  0.41800000000E+01 0.  1.
</event>
<event>
11    1  0.8479398E-009  0.2492876E+03  0.7561462E-02  0.1024279E+00
         22   -1    0    0    0    0  0.00000000000E+00  0.00000000000E+00  0.11533712360E+04  0.11533712360E+04  0.00000000000E+00 0.  1.
         22   -1    0    0    0    0 -0.00000000000E+00 -0.00000000000E+00 -0.80692519803E+03  0.80692519803E+03  0.00000000000E+00 0.  1.
        -24    2    1    2    0    0  0.72366439543E+01  0.21461744109E+03 -0.75720441006E+03  0.79151340678E+03  0.83797013507E+02 0.  0.
         25    2    1    2    0    0  0.89084127498E+01 -0.25411589108E+03  0.70402783802E+03  0.75891806369E+03  0.12508870757E+03 0.  0.
         24    2    1    2    0    0 -0.16145056704E+02  0.39498449992E+02  0.39962261003E+03  0.40986496358E+03  0.80437973085E+02 0.  0.
        -11    1    5    5    0    0 -0.22695558564E+02  0.16902254666E+02  0.37404088364E+03  0.37510979356E+03  0.00000000000E+00 0.  1.
         12    1    5    5    0    0  0.65505018595E+01  0.22596195326E+02  0.25581726391E+02  0.34755170018E+02  0.00000000000E+00 0. -1.
         13    1    3    3    0    0 -0.25785538211E+01  0.49320796632E+02 -0.77262179292E+02  0.91698605601E+02  0.00000000000E+00 0. -1.
        -14    1    3    3    0    0  0.98151977755E+01  0.16529664446E+03 -0.67994223077E+03  0.69981480118E+03  0.00000000000E+00 0.  1.
          5    1    4    4  501    0 -0.58115902120E+01 -0.16862311931E+03  0.28704432599E+03  0.33298565800E+03  0.41800000000E+01 0. -1.
         -5    1    4    4    0  501  0.14720002962E+02 -0.85492771769E+02  0.41698351203E+03  0.42593240569E+03  0.41800000000E+01 0. -1.
</event>
<event>
11    1  0.8479398E-009  0.1671219E+03  0.7561462E-02  0.1080564E+00
         22   -1    0    0    0    0  0.00000000000E+00  0.00000000000E+00  0.12751672397E+03  0.12751672397E+03  0.00000000000E+00 0.  1.
         22   -1    0    0    0    0 -0.00000000000E+00 -0.00000000000E+00 -0.11338782584E+04  0.11338782584E+04  0.00000000000E+00 0.  1.
         24    2    1    2    0    0 -0.24040077419E+02 -0.12808043272E+02 -0.85912339328E+03  0.86434753044E+03  0.90893768769E+02 0.  0.
         25    2    1    2    0    0  0.23828154079E+00  0.11952315650E+03 -0.18676765512E+03  0.25458992454E+03  0.12509208992E+03 0.  0.
        -24    2    1    2    0    0  0.23801795878E+02 -0.10671511323E+03  0.39529513946E+02  0.14245752741E+03  0.82322073371E+02 0.  0.
        -11    1    3    3    0    0 -0.46030660837E+02  0.10313468631E+02 -0.72287513706E+03  0.72441262631E+03  0.00000000000E+00 0.  1.
         12    1    3    3    0    0  0.21990583419E+02 -0.23121511902E+02 -0.13624825621E+03  0.13993490413E+03  0.00000000000E+00 0. -1.
         11    1    5    5    0    0  0.67212501987E+01 -0.10512247762E+03  0.68628228121E+01  0.10556045112E+03  0.00000000000E+00 0. -1.
        -12    1    5    5    0    0  0.17080545679E+02 -0.15926356154E+01  0.32666691134E+02  0.36897076287E+02  0.00000000000E+00 0.  1.
          5    1    4    4  501    0 -0.54663847692E+02  0.99750112184E+02 -0.13386335350E+03  0.17571309267E+03  0.41800000000E+01 0.  1.
         -5    1    4    4    0  501  0.54902129233E+02  0.19773044319E+02 -0.52904301619E+02  0.78876831869E+02  0.41800000000E+01 0.  1.
</event>
<event>
11    1  0.8479398E-009  0.1333060E+03  0.7561462E-02  0.1115272E+00
         22   -1    0    0    0    0  0.00000000000E+00  0.00000000000E+00  0.38935397606E+03  0.38935397606E+03  0.00000000000E+00 0. -1.
         22   -1    0    0    0    0 -0.00000000000E+00 -0.00000000000E+00 -0.52102613103E+03  0.52102613103E+03  0.00000000000E+00 0.  1.
         24    2    1    2    0    0  0.14938287157E+02  0.19842672503E+02 -0.48213207022E+03  0.48992202725E+03  0.83398894340E+02 0.  0.
         25    2    1    2    0    0  0.26094806978E+02  0.14122806306E+02  0.14398408182E+03  0.19302880662E+03  0.12509321228E+03 0.  0.
        -24    2    1    2    0    0 -0.41033094135E+02 -0.33965478809E+02  0.20647583342E+03  0.22742927321E+03  0.79084992002E+02 0.  0.
        -13    1    3    3    0    0 -0.27336936652E+02 -0.15341809851E+02 -0.20523429512E+03  0.20761453496E+03  0.00000000000E+00 0.  1.
         14    1    3    3    0    0  0.42275223809E+02  0.35184482355E+02 -0.27689777510E+03  0.28230749229E+03  0.00000000000E+00 0. -1.
         11    1    5    5    0    0 -0.20838737069E+02 -0.36072999039E+02  0.20249850780E+03  0.20673935253E+03  0.00000000000E+00 0. -1.
        -12    1    5    5    0    0 -0.20194357065E+02  0.21075202296E+01  0.39773256254E+01  0.20689920685E+02  0.00000000000E+00 0.  1.
          5    1    4    4  501    0 -0.25584515585E+02 -0.43453407247E+02  0.48808823725E+02  0.70303198451E+02  0.41800000000E+01 0. -1.
         -5    1    4    4    0  501  0.51679322562E+02  0.57576213552E+02  0.95175258096E+02  0.12272560817E+03  0.41800000000E+01 0. -1.
</event>
<event>
11    1  0.8479398E-009  0.2271809E+03  0.7561462E-02  0.1036810E+00
         22   -1    0    0    0    0  0.00000000000E+00  0.00000000000E+00  0.49931958831E+03  0.49931958831E+03  0.00000000000E+00 0. -1.
         22   -1    0    0    0    0 -0.00000000000E+00 -0.00000000000E+00 -0.33456016170E+04  0.33456016170E+04  0.00000000000E+00 0. -1.
         24    2    1    2    0    0 -0.30480334419E+02  0.12137183752E+03 -0.29463411922E+04  0.29502766935E+04  0.86867562379E+02 0.  0.
         25    2    1    2    0    0 -0.55846624375E+02  0.55537018051E+02 -0.35932013774E+03  0.38853220871E+03  0.12507241898E+03 0.  0.
        -24    2    1    2    0    0  0.86326958793E+02 -0.17690885557E+03  0.45937930131E+03  0.50611230309E+03  0.79820009237E+02 0.  0.
        -11    1    3    3    0    0 -0.78778841519E+01  0.51734708001E+02 -0.47911197061E+03  0.48196143150E+03  0.00000000000E+00 0.  1.
         12    1    3    3    0    0 -0.22602450267E+02  0.69637129515E+02 -0.24672292216E+04  0.24683152620E+04  0.00000000000E+00 0. -1.
         11    1    5    5    0    0 -0.82376505030E+01 -0.66642181602E+02  0.14658155132E+03  0.16123024047E+03  0.00000000000E+00 0. -1.
        -12    1    5    5    0    0  0.94564609296E+02 -0.11026667396E+03  0.31279774998E+03  0.34488206262E+03  0.00000000000E+00 0.  1.
          5    1    4    4  501    0  0.11041241920E+02 -0.33984441853E+02 -0.87613254410E+02  0.94712227613E+02  0.41800000000E+01 0. -1.
         -5    1    4    4    0  501 -0.66887866294E+02  0.89521459904E+02 -0.27170688333E+03  0.29381998110E+03  0.41800000000E+01 0. -1.
</event>
<event>
11    1  0.8479398E-009  0.1645105E+03  0.7561462E-02  0.1082910E+00
         22   -1    0    0    0    0  0.00000000000E+00  0.00000000000E+00  0.30707419883E+03  0.30707419883E+03  0.00000000000E+00 0. -1.
         22   -1    0    0    0    0 -0.00000000000E+00 -0.00000000000E+00 -0.60502003186E+03  0.60502003186E+03  0.00000000000E+00 0.  1.
         24    2    1    2    0    0 -0.52004028184E+02 -0.96262731803E+02 -0.53172601434E+03  0.54995127034E+03  0.87993823329E+02 0.  0.
         25    2    1    2    0    0  0.36468417659E+02  0.69520675180E+02  0.46389563021E+02  0.15480024494E+03  0.12509218405E+03 0.  0.
        -24    2    1    2    0    0  0.15535610525E+02  0.26742056624E+02  0.18739061828E+03  0.20734271541E+03  0.83182119642E+02 0.  0.
        -13    1    3    3    0    0 -0.23256109677E+02 -0.14274919993E+02 -0.31902878266E+03  0.32019366662E+03  0.00000000000E+00 0.  1.
         14    1    3    3    0    0 -0.28747918506E+02 -0.81987811810E+02 -0.21269723168E+03  0.22975760372E+03  0.00000000000E+00 0. -1.
         11    1    5    5    0    0 -0.12893638769E+02 -0.21571888028E+02  0.10306124340E+03  0.10608115839E+03  0.00000000000E+00 0. -1.
        -12    1    5    5    0    0  0.28429249294E+02  0.48313944651E+02  0.84329374879E+02  0.10126155702E+03  0.00000000000E+00 0.  1.
          5    1    4    4  501    0 -0.40499952811E+02  0.52964489548E+02  0.34110861979E+02  0.75010043565E+02  0.41800000000E+01 0.  1.
         -5    1    4    4    0  501  0.76968370470E+02  0.16556185632E+02  0.12278701041E+02  0.79790201370E+02  0.41800000000E+01 0.  1.
</event>
<event>
11    1  0.8479398E-009  0.2351262E+03  0.7561462E-02  0.1032135E+00
         22   -1    0    0    0    0  0.00000000000E+00  0.00000000000E+00  0.18220212722E+04  0.18220212722E+04  0.00000000000E+00 0. -1.
         22   -1    0    0    0    0 -0.00000000000E+00 -0.00000000000E+00 -0.13075989848E+03  0.13075989848E+03  0.00000000000E+00 0.  1.
        -24    2    1    2    0    0 -0.31400794248E+02  0.41583884698E+00 -0.84606318897E+02  0.12039482612E+03  0.79690038013E+02 0.  0.
         25    2    1    2    0    0 -0.15288958720E+03 -0.10602919245E+03  0.87356596862E+03  0.90188040248E+03  0.12511332192E+03 0.  0.
         24    2    1    2    0    0  0.18429038145E+03  0.10561335360E+03  0.90230172402E+03  0.93050594211E+03  0.81091195430E+02 0.  0.
        -11    1    5    5    0    0  0.57258454663E+02  0.71455043775E+02  0.28516010209E+03  0.29950064730E+03  0.00000000000E+00 0.  1.
         12    1    5    5    0    0  0.12703192678E+03  0.34158309823E+02  0.61714162193E+03  0.63100529481E+03  0.00000000000E+00 0. -1.
         13    1    3    3    0    0 -0.21290643720E+02  0.37743817736E+02 -0.61860123405E+02  0.75528551919E+02  0.00000000000E+00 0. -1.
        -14    1    3    3    0    0 -0.10110150528E+02 -0.37327978889E+02 -0.22746195492E+02  0.44866274204E+02  0.00000000000E+00 0.  1.
          5    1    4    4  501    0 -0.76381558567E+02  0.28502870115E+01  0.48817945865E+03  0.49414463760E+03  0.41800000000E+01 0.  1.
         -5    1    4    4    0  501 -0.76508028631E+02 -0.10887947946E+03  0.38538650997E+03  0.40773576487E+03  0.41800000000E+01 0.  1.
</event>
<event>
11    1  0.8479398E-009  0.1351861E+03  0.7561462E-02  0.1113056E+00
         22   -1    0    0    0    0  0.00000000000E+00  0.00000000000E+00  0.81202857617E+03  0.81202857617E+03  0.00000000000E+00 0. -1.
         22   -1    0    0    0    0 -0.00000000000E+00 -0.00000000000E+00 -0.26808368794E+03  0.26808368794E+03  0.00000000000E+00 0. -1.
        -24    2    1    2    0    0 -0.42326468711E+01 -0.27887713607E+02 -0.21441647358E+03  0.23043943004E+03  0.79575542119E+02 0.  0.
         25    2    1    2    0    0 -0.26658893943E+02 -0.15315030083E+02  0.55904395377E+02  0.14042546610E+03  0.12509501723E+03 0.  0.
         24    2    1    2    0    0  0.30891540814E+02  0.43202743690E+02  0.70245696644E+03  0.70924736797E+03  0.82251291248E+02 0.  0.
        -13    1    5    5    0    0  0.74394837639E+00  0.16907995667E+02  0.22702104242E+02  0.28316414210E+02  0.00000000000E+00 0.  1.
         14    1    5    5    0    0  0.30147592438E+02  0.26294748022E+02  0.67975486220E+03  0.68093095376E+03  0.00000000000E+00 0. -1.
         13    1    3    3    0    0 -0.38794104834E+02 -0.28833046790E+02 -0.10291586443E+03  0.11370137338E+03  0.00000000000E+00 0. -1.
        -14    1    3    3    0    0  0.34561457963E+02  0.94533318344E+00 -0.11150060915E+03  0.11673805665E+03  0.00000000000E+00 0.  1.
          5    1    4    4  501    0 -0.46861949904E+02  0.44295501320E+02  0.37517478363E+02  0.74720595345E+02  0.41800000000E+01 0.  1.
         -5    1    4    4    0  501  0.20203055961E+02 -0.59610531402E+02  0.18386917014E+02  0.65704870759E+02  0.41800000000E+01 0.  1.
</event>
<event>
11    1  0.8479398E-009  0.1594145E+03  0.7561462E-02  0.1087629E+00
         22   -1    0    0    0    0  0.00000000000E+00  0.00000000000E+00  0.92260847667E+03  0.92260847667E+03  0.00000000000E+00 0. -1.
         22   -1    0    0    0    0 -0.00000000000E+00 -0.00000000000E+00 -0.34485860424E+03  0.34485860424E+03  0.00000000000E+00 0.  1.
         24    2    1    2    0    0  0.21420450533E+01 -0.68829498740E+01 -0.31540510964E+03  0.32560913545E+03  0.80554097030E+02 0.  0.
         25    2    1    2    0    0  0.92605761397E+02  0.34874413602E+02  0.57382573177E+03  0.59558024426E+03  0.12509118727E+03 0.  0.
        -24    2    1    2    0    0 -0.94747806451E+02 -0.27991463728E+02  0.31932925029E+03  0.34627770120E+03  0.90423489137E+02 0.  0.
        -11    1    3    3    0    0 -0.12364648607E+02  0.12851786882E+02 -0.28916409376E+03  0.28971352416E+03  0.00000000000E+00 0.  1.
         12    1    3    3    0    0  0.14506693660E+02 -0.19734736756E+02 -0.26241015880E+02  0.35895611294E+02  0.00000000000E+00 0. -1.
         13    1    5    5    0    0 -0.74122436150E+02 -0.45448658372E+02  0.30178490945E+03  0.31406026120E+03  0.00000000000E+00 0. -1.
        -14    1    5    5    0    0 -0.20625370301E+02  0.17457194644E+02  0.17544340836E+02  0.32217440002E+02  0.00000000000E+00 0.  1.
          5    1    4    4  501    0 -0.29036867801E+02  0.14324144015E+01  0.16896879673E+03  0.17150253109E+03  0.41800000000E+01 0. -1.
         -5    1    4    4    0  501  0.12164262920E+03  0.33441999200E+02  0.40485693504E+03  0.42407771316E+03  0.41800000000E+01 0. -1.
</event>
<event>
11    1  0.8479398E-009  0.1392139E+03  0.7561462E-02  0.1108439E+00
         22   -1    0    0    0    0  0.00000000000E+00  0.00000000000E+00  0.14460965677E+04  0.14460965677E+04  0.00000000000E+00 0.  1.
         22   -1    0    0    0    0 -0.00000000000E+00 -0.00000000000E+00 -0.64308430189E+03  0.64308430189E+03  0.00000000000E+00 0.  1.
        -24    2    1    2    0    0  0.42434745604E+02  0.27810574456E+02 -0.57366939233E+03  0.58139075762E+03  0.79652405222E+02 0.  0.
         25    2    1    2    0    0  0.14264802827E+02 -0.52520944666E+02  0.91877652910E+01  0.13672302925E+03  0.12508731937E+03 0.  0.
         24    2    1    2    0    0 -0.56699548430E+02  0.24710370209E+02  0.13674938929E+04  0.13710670828E+04  0.77200758724E+02 0.  0.
        -11    1    5    5    0    0 -0.48017188341E+02  0.43839764618E+02  0.12513869467E+04  0.12530749641E+04  0.00000000000E+00 0.  1.
         12    1    5    5    0    0 -0.86823600894E+01 -0.19129394408E+02  0.11610694621E+03  0.11799211866E+03  0.00000000000E+00 0. -1.
         11    1    3    3    0    0  0.18434283239E+02  0.20065212521E+02 -0.48608178569E+02  0.55724236880E+02  0.00000000000E+00 0. -1.
        -12    1    3    3    0    0  0.24000462365E+02  0.77453619350E+01 -0.52506121376E+03  0.52566652074E+03  0.00000000000E+00 0.  1.
          5    1    4    4  501    0  0.22212636205E+02 -0.92118999155E+01 -0.54192555695E+02  0.59435391813E+02  0.41800000000E+01 0. -1.
         -5    1    4    4    0  501 -0.79478333785E+01 -0.43309044750E+02  0.63380320985E+02  0.77287637438E+02  0.41800000000E+01 0. -1.
</event>
<event>
11    1  0.8479398E-009  0.1370480E+03  0.7561462E-02  0.1110900E+00
         22   -1    0    0    0    0  0.00000000000E+00  0.00000000000E+00  0.19292138262E+03  0.19292138262E+03  0.00000000000E+00 0. -1.
         22   -1    0    0    0    0 -0.00000000000E+00 -0.00000000000E+00 -0.18033354399E+04  0.18033354399E+04  0.00000000000E+00 0.  1.
        -24    2    1    2    0    0  0.35188111104E+02 -0.42136953894E+02 -0.15997588583E+04  0.16027083788E+04  0.80199854539E+02 0.  0.
         25    2    1    2    0    0 -0.75641232567E+02  0.38233864709E+02 -0.15931893764E+03  0.21957524063E+03  0.12508931981E+03 0.  0.
         24    2    1    2    0    0  0.40453121463E+02  0.39030891844E+01  0.14866373861E+03  0.17397320316E+03  0.80709845118E+02 0.  0.
        -13    1    5    5    0    0  0.11520892182E+02  0.71071010209E+01 -0.72565164721E+01  0.15358999736E+02  0.00000000000E+00 0.  1.
         14    1    5    5    0    0  0.28932229282E+02 -0.32040118365E+01  0.15592025508E+03  0.15861420342E+03  0.00000000000E+00 0. -1.
         13    1    3    3    0    0  0.38576129252E+01 -0.59712033839E+02 -0.86107142511E+03  0.86314796374E+03  0.00000000000E+00 0. -1.
        -14    1    3    3    0    0  0.31330498179E+02  0.17575079945E+02 -0.73868743317E+03  0.73956041503E+03  0.00000000000E+00 0.  1.
          5    1    4    4  501    0 -0.79503694700E+02  0.64641733605E+02 -0.16272806399E+03  0.19234678684E+03  0.41800000000E+01 0. -1.
         -5    1    4    4    0  501  0.38624621329E+01 -0.26407868896E+02  0.34091263537E+01  0.27228453791E+02  0.41800000000E+01 0. -1.
</event>
<event>
11    1  0.8479398E-009  0.1549874E+03  0.7561462E-02  0.1091889E+00
         22   -1    0    0    0    0  0.00000000000E+00  0.00000000000E+00  0.31270081940E+04  0.31270081940E+04  0.00000000000E+00 0. -1.
         22   -1    0    0    0    0 -0.00000000000E+00 -0.00000000000E+00 -0.39819731881E+02  0.39819731881E+02  0.00000000000E+00 0. -1.
         24    2    1    2    0    0 -0.73544870108E+02  0.55424150271E+02  0.12689123104E+03  0.17532125707E+03  0.78456830880E+02 0.  0.
         25    2    1    2    0    0  0.75098999803E+02 -0.49740114908E+02  0.38067638642E+03  0.41070325635E+03  0.12509482321E+03 0.  0.
        -24    2    1    2    0    0 -0.15541296948E+01 -0.56840353623E+01  0.25796208447E+04  0.25808034125E+04  0.77896264574E+02 0.  0.
        -11    1    3    3    0    0 -0.20926889298E+02  0.27575355762E+02 -0.59234350908E+00  0.34622042284E+02  0.00000000000E+00 0.  1.
         12    1    3    3    0    0 -0.52617980810E+02  0.27848794508E+02  0.12748357455E+03  0.14069921478E+03  0.00000000000E+00 0. -1.
         11    1    5    5    0    0  0.23458207186E+02  0.35273748558E+01  0.22441337647E+04  0.22442591392E+04  0.00000000000E+00 0. -1.
        -12    1    5    5    0    0 -0.25012336880E+02 -0.92114102181E+01  0.33548707998E+03  0.33654427332E+03  0.00000000000E+00 0.  1.
          5    1    4    4  501    0  0.43564435804E+02  0.74165062705E+01  0.31463363007E+03  0.31774936382E+03  0.41800000000E+01 0.  1.
         -5    1    4    4    0  501  0.31534563999E+02 -0.57156621179E+02  0.66042756352E+02  0.92953892537E+02  0.41800000000E+01 0.  1.
</event>
<event>
11    1  0.8479398E-009  0.1492301E+03  0.7561462E-02  0.1097668E+00
         22   -1    0    0    0    0  0.00000000000E+00  0.00000000000E+00  0.10220985300E+04  0.10220985300E+04  0.00000000000E+00 0. -1.
         22   -1    0    0    0    0 -0.00000000000E+00 -0.00000000000E+00 -0.12765670096E+03  0.12765670096E+03  0.00000000000E+00 0. -1.
        -24    2    1    2    0    0  0.47691513025E+01  0.47926855882E+02 -0.56929558593E+02  0.11024665488E+03  0.81201120387E+02 0.  0.
         25    2    1    2    0    0  0.22544015929E+02 -0.12051843738E+03  0.15061832937E+03  0.23101199487E+03  0.12509090386E+03 0.  0.
         24    2    1    2    0    0 -0.27313167231E+02  0.72591581501E+02  0.80075305825E+03  0.80849658118E+03  0.80285208378E+02 0.  0.
        -11    1    5    5    0    0  0.73060843541E+01 -0.93167816320E+01  0.24982147468E+02  0.27645776905E+02  0.00000000000E+00 0.  1.
         12    1    5    5    0    0 -0.34619251585E+02  0.81908363133E+02  0.77577091078E+03  0.78085080428E+03  0.00000000000E+00 0. -1.
         13    1    3    3    0    0 -0.14230232122E+02  0.66365359171E+02 -0.42720786606E+02  0.80199289351E+02  0.00000000000E+00 0. -1.
        -14    1    3    3    0    0  0.18999383424E+02 -0.18438503288E+02 -0.14208771987E+02  0.30047365531E+02  0.00000000000E+00 0.  1.
          5    1    4    4  501    0 -0.25818330642E+02 -0.42742420472E+02 -0.50378436867E+01  0.50362217722E+02  0.41800000000E+01 0.  1.
         -5    1    4    4    0  501  0.48362346570E+02 -0.77776016911E+02  0.15565617305E+03  0.18064977714E+03  0.41800000000E+01 0.  1.
</event>
<event>
11    1  0.8479398E-009  0.3330480E+03  0.7561462E-02  0.9870998E-01
         22   -1    0    0    0    0  0.00000000000E+00  0.00000000000E+00  0.32206676122E+04  0.32206676122E+04  0.00000000000E+00 0. -1.
         22   -1    0    0    0    0 -0.00000000000E+00 -0.00000000000E+00 -0.96373023353E+03  0.96373023353E+03  0.00000000000E+00 0.  1.
         24    2    1    2    0    0 -0.24808739798E+01  0.72636288651E+02 -0.90343861419E+03  0.90990728577E+03  0.80297907390E+02 0.  0.
         25    2    1    2    0    0  0.27863617406E+03  0.76800825454E+02  0.47674486824E+03  0.57137448077E+03  0.12508654444E+03 0.  0.
        -24    2    1    2    0    0 -0.27615530008E+03 -0.14943711411E+03  0.26836311246E+04  0.27031160792E+04  0.79795511899E+02 0.  0.
        -11    1    3    3    0    0 -0.14098594627E+02  0.81212110585E+02 -0.86373827173E+03  0.86766236482E+03  0.00000000000E+00 0.  1.
         12    1    3    3    0    0  0.11617720647E+02 -0.85758219344E+01 -0.39700342456E+02  0.42244920949E+02  0.00000000000E+00 0. -1.
         11    1    5    5    0    0 -0.22184993424E+02 -0.16658498138E+02  0.49857403162E+03  0.49934531589E+03  0.00000000000E+00 0. -1.
        -12    1    5    5    0    0 -0.25397030665E+03 -0.13277861597E+03  0.21850570930E+04  0.22037707633E+04  0.00000000000E+00 0.  1.
          5    1    4    4  501    0  0.63275991608E+02 -0.17276113710E+02  0.44557274490E+02  0.79404901164E+02  0.41800000000E+01 0.  1.
         -5    1    4    4    0  501  0.21536018245E+03  0.94076939164E+02  0.43218759375E+03  0.49196957961E+03  0.41800000000E+01 0.  1.
</event>
<event>
11    1  0.8479398E-009  0.1508254E+03  0.7561462E-02  0.1096038E+00
         22   -1    0    0    0    0  0.00000000000E+00  0.00000000000E+00  0.66982000858E+03  0.66982000858E+03  0.00000000000E+00 0.  1.
         22   -1    0    0    0    0 -0.00000000000E+00 -0.00000000000E+00 -0.37216043063E+03  0.37216043063E+03  0.00000000000E+00 0. -1.
        -24    2    1    2    0    0 -0.99113988505E+01 -0.42596507424E+02 -0.33380823227E+03  0.34528031519E+03  0.76667215003E+02 0.  0.
         25    2    1    2    0    0  0.37072723567E+02  0.11075884627E+03  0.27552250294E+03  0.32434882851E+03  0.12509038359E+03 0.  0.
         24    2    1    2    0    0 -0.27161324717E+02 -0.68162338846E+02  0.35594530727E+03  0.37235129551E+03  0.81022117404E+02 0.  0.
        -13    1    5    5    0    0 -0.25456732931E+02 -0.13641524857E+02  0.26300596145E+03  0.26458698421E+03  0.00000000000E+00 0.  1.
         14    1    5    5    0    0 -0.17045917853E+01 -0.54520813989E+02  0.92939345813E+02  0.10776431131E+03  0.00000000000E+00 0. -1.
         13    1    3    3    0    0  0.25023447888E+02 -0.16718839521E+02 -0.24009367983E+03  0.24197245222E+03  0.00000000000E+00 0. -1.
        -14    1    3    3    0    0 -0.34934846739E+02 -0.25877667904E+02 -0.93714552433E+02  0.10330786297E+03  0.00000000000E+00 0.  1.
          5    1    4    4  501    0  0.65415002278E+02  0.14995508832E+02  0.78060387837E+02  0.10302856088E+03  0.41800000000E+01 0. -1.
         -5    1    4    4    0  501 -0.28342278711E+02  0.95763337439E+02  0.19746211511E+03  0.22132026763E+03  0.41800000000E+01 0. -1.
</event>
<event>
11    1  0.8479398E-009  0.2700572E+03  0.7561462E-02  0.1013726E+00
         22   -1    0    0    0    0  0.00000000000E+00  0.00000000000E+00  0.11418604141E+04  0.11418604141E+04  0.00000000000E+00 0.  1.
         22   -1    0    0    0    0 -0.00000000000E+00 -0.00000000000E+00 -0.83374543847E+03  0.83374543847E+03  0.00000000000E+00 0. -1.
        -24    2    1    2    0    0 -0.21440271637E+03  0.89374429956E+02 -0.59813349657E+03  0.64689437524E+03  0.82172619989E+02 0.  0.
         25    2    1    2    0    0  0.23106771054E+03 -0.14732578105E+03 -0.10002770512E+03  0.31740840723E+03  0.12508150371E+03 0.  0.
         24    2    1    2    0    0 -0.16664994166E+02  0.57951351093E+02  0.10062761773E+04  0.10113030701E+04  0.80660234594E+02 0.  0.
        -11    1    5    5    0    0 -0.33977892456E+02  0.62893630093E+02  0.54403556279E+03  0.54871194579E+03  0.00000000000E+00 0.  1.
         12    1    5    5    0    0  0.17312898291E+02 -0.49422789997E+01  0.46224061454E+03  0.46259112432E+03  0.00000000000E+00 0. -1.
         11    1    3    3    0    0 -0.11304186951E+03  0.90261551408E+02 -0.33410002373E+03  0.36407202280E+03  0.00000000000E+00 0. -1.
        -12    1    3    3    0    0 -0.10136084687E+03 -0.88712145186E+00 -0.26403347284E+03  0.28282235244E+03  0.00000000000E+00 0.  1.
          5    1    4    4  501    0  0.19239199498E+02 -0.74719128962E+02 -0.25803999647E+02  0.81464187395E+02  0.41800000000E+01 0. -1.
         -5    1    4    4    0  501  0.21182851104E+03 -0.72606652087E+02 -0.74223705473E+02  0.23594421983E+03  0.41800000000E+01 0. -1.
</event>
<event>
11    1  0.8479398E-009  0.1767281E+03  0.7561462E-02  0.1072321E+00
         22   -1    0    0    0    0  0.00000000000E+00  0.00000000000E+00  0.10437519512E+04  0.10437519512E+04  0.00000000000E+00 0.  1.
         22   -1    0    0    0    0 -0.00000000000E+00 -0.00000000000E+00 -0.14432923798E+04  0.14432923798E+04  0.00000000000E+00 0.  1.
         24    2    1    2    0    0 -0.22021788381E+02 -0.87496982393E+01 -0.14051491365E+04  0.14076649185E+04  0.80714995641E+02 0.  0.
         25    2    1    2    0    0  0.50304004389E+02 -0.11347920831E+03  0.23101051116E+03  0.29054836445E+03  0.12507786472E+03 0.  0.
        -24    2    1    2    0    0 -0.28282216008E+02  0.12222890655E+03  0.77459819683E+03  0.78883104805E+03  0.80698615149E+02 0.  0.
        -13    1    3    3    0    0 -0.26341112404E+02 -0.42499488353E+02 -0.86882367698E+03  0.87026124951E+03  0.00000000000E+00 0.  1.
         14    1    3    3    0    0  0.43193240222E+01  0.33749790114E+02 -0.53632545956E+03  0.53740366901E+03  0.00000000000E+00 0. -1.
         13    1    5    5    0    0 -0.14721774378E+02 -0.79900879857E+01  0.12972458643E+03  0.13080153084E+03  0.00000000000E+00 0. -1.
        -14    1    5    5    0    0 -0.13560441630E+02  0.13021899454E+03  0.64487361040E+03  0.65802951720E+03  0.00000000000E+00 0.  1.
          5    1    4    4  501    0 -0.77378586446E+00  0.25388899527E+02  0.19079647876E+02  0.32042164827E+02  0.41800000000E+01 0. -1.
         -5    1    4    4    0  501  0.51077790254E+02 -0.13886810784E+03  0.21193086329E+03  0.25850619963E+03  0.41800000000E+01 0. -1.
</event>
<event>
11    1  0.8479398E-009  0.1408791E+03  0.7561462E-02  0.1106581E+00
         22   -1    0    0    0    0  0.00000000000E+00  0.00000000000E+00  0.18497577749E+03  0.18497577749E+03  0.00000000000E+00 0.  1.
         22   -1    0    0    0    0 -0.00000000000E+00 -0.00000000000E+00 -0.70905773458E+03  0.70905773458E+03  0.00000000000E+00 0.  1.
        -24    2    1    2    0    0 -0.11462842912E+02 -0.18447905247E+02 -0.22280055780E+03  0.23856737701E+03  0.82477771822E+02 0.  0.
         25    2    1    2    0    0  0.57352848576E+02 -0.27487943984E+02 -0.45187105433E+03  0.47316393121E+03  0.12510683337E+03 0.  0.
         24    2    1    2    0    0 -0.45890005665E+02  0.45935849232E+02  0.15058965503E+03  0.18230220385E+03  0.79629482356E+02 0.  0.
        -11    1    5    5    0    0 -0.34571394411E+02 -0.17133226909E+02  0.60237048989E+02  0.71534822616E+02  0.00000000000E+00 0.  1.
         12    1    5    5    0    0 -0.11318611254E+02  0.63069076141E+02  0.90352606043E+02  0.11076738123E+03  0.00000000000E+00 0. -1.
         11    1    3    3    0    0  0.24518486870E+02 -0.33025359672E+00 -0.19542695683E+02  0.31355736643E+02  0.00000000000E+00 0. -1.
        -12    1    3    3    0    0 -0.35981329781E+02 -0.18117651651E+02 -0.20325786211E+03  0.20721164037E+03  0.00000000000E+00 0.  1.
          5    1    4    4  501    0  0.30366537174E+02 -0.77476612452E+02 -0.27533226319E+03  0.28766313565E+03  0.41800000000E+01 0. -1.
         -5    1    4    4    0  501  0.26986311402E+02  0.49988668467E+02 -0.17653879114E+03  0.18550079556E+03  0.41800000000E+01 0. -1.
</event>
<event>
11    1  0.8479398E-009  0.1776305E+03  0.7561462E-02  0.1071576E+00
         22   -1    0    0    0    0  0.00000000000E+00  0.00000000000E+00  0.17803744809E+03  0.17803744809E+03  0.00000000000E+00 0.  1.
         22   -1    0    0    0    0 -0.00000000000E+00 -0.00000000000E+00 -0.33988030475E+03  0.33988030475E+03  0.00000000000E+00 0. -1.
        -24    2    1    2    0    0 -0.88195392810E+02 -0.19470033848E+02 -0.13055105027E+03  0.17711986508E+03  0.78551641288E+02 0.  0.
         25    2    1    2    0    0 -0.70619926831E+02  0.34181888808E+01 -0.72078706681E+02  0.16075547578E+03  0.12509246563E+03 0.  0.
         24    2    1    2    0    0  0.15881531964E+03  0.16051844968E+02  0.40786900285E+02  0.18004241198E+03  0.72606689750E+02 0.  0.
        -13    1    5    5    0    0  0.13584837812E+03  0.76175891032E+00  0.57791644627E+02  0.14763209781E+03  0.00000000000E+00 0.  1.
         14    1    5    5    0    0  0.22966941518E+02  0.15290086057E+02 -0.17004744341E+02  0.32410314167E+02  0.00000000000E+00 0. -1.
         13    1    3    3    0    0 -0.66003206562E+02  0.24513091164E+02 -0.74979470311E+02  0.10285541251E+03  0.00000000000E+00 0. -1.
        -14    1    3    3    0    0 -0.22192186248E+02 -0.43983125013E+02 -0.55571579954E+02  0.74264452566E+02  0.00000000000E+00 0.  1.
          5    1    4    4  501    0 -0.34965644858E+02 -0.19403056256E+02 -0.10140696913E+03  0.10908675768E+03  0.41800000000E+01 0. -1.
         -5    1    4    4    0  501 -0.35654281973E+02  0.22821245137E+02  0.29328262449E+02  0.51668718107E+02  0.41800000000E+01 0. -1.
</event>
<event>
11    1  0.8479398E-009  0.1347275E+03  0.7561462E-02  0.1113593E+00
         22   -1    0    0    0    0  0.00000000000E+00  0.00000000000E+00  0.14444333676E+04  0.14444333676E+04  0.00000000000E+00 0. -1.
         22   -1    0    0    0    0 -0.00000000000E+00 -0.00000000000E+00 -0.23363380679E+03  0.23363380679E+03  0.00000000000E+00 0.  1.
        -24    2    1    2    0    0  0.25756444277E+02  0.47517446596E+02 -0.20790844591E+03  0.22935418367E+03  0.80349969091E+02 0.  0.
         25    2    1    2    0    0 -0.20750713987E+02  0.93063712116E+01  0.30150411146E+03  0.32721460476E+03  0.12508983837E+03 0.  0.
         24    2    1    2    0    0 -0.50057302899E+01 -0.56823817808E+02  0.11172038953E+04  0.11214983860E+04  0.79750125472E+02 0.  0.
        -11    1    5    5    0    0 -0.12734114820E+02 -0.62925224940E+02  0.48652363062E+03  0.49074126051E+03  0.00000000000E+00 0.  1.
         12    1    5    5    0    0  0.77283845305E+01  0.61014071324E+01  0.63068026468E+03  0.63075712549E+03  0.00000000000E+00 0. -1.
         13    1    3    3    0    0 -0.14742875434E+02 -0.13815795880E+02 -0.24432321038E+02  0.31704367257E+02  0.00000000000E+00 0. -1.
        -14    1    3    3    0    0  0.40499319711E+02  0.61333242476E+02 -0.18347612487E+03  0.19764981641E+03  0.00000000000E+00 0.  1.
          5    1    4    4  501    0 -0.66199530438E+02  0.50669303846E+01  0.96892430811E+02  0.11753155815E+03  0.41800000000E+01 0.  1.
         -5    1    4    4    0  501  0.45448816451E+02  0.42394408270E+01  0.20461168065E+03  0.20968304660E+03  0.41800000000E+01 0.  1.
</event>
<event>
11    1  0.8479398E-009  0.2004490E+03  0.7561462E-02  0.1054207E+00
         22   -1    0    0    0    0  0.00000000000E+00  0.00000000000E+00  0.17963593786E+04  0.17963593786E+04  0.00000000000E+00 0.  1.
         22   -1    0    0    0    0 -0.00000000000E+00 -0.00000000000E+00 -0.89059039120E+02  0.89059039120E+02  0.00000000000E+00 0. -1.
         24    2    1    2    0    0  0.59181377585E+02 -0.14364628592E+03  0.31244122682E+02  0.17853507364E+03  0.82230690180E+02 0.  0.
         25    2    1    2    0    0 -0.10624932748E+03  0.13652535104E+03  0.88068690087E+03  0.90619270505E+03  0.12509080809E+03 0.  0.
        -24    2    1    2    0    0  0.47067949900E+02  0.71209348744E+01  0.79536931594E+03  0.80069063903E+03  0.78911666281E+02 0.  0.
        -13    1    3    3    0    0 -0.34067222236E+01  0.60941770044E+01 -0.89367431747E+01  0.11340640557E+02  0.00000000000E+00 0.  1.
         14    1    3    3    0    0  0.62588099808E+02 -0.14974046292E+03  0.40180865857E+02  0.16719443308E+03  0.00000000000E+00 0. -1.
         13    1    5    5    0    0  0.32641882107E+02  0.35424686648E+02  0.26304834146E+03  0.26742256980E+03  0.00000000000E+00 0. -1.
        -14    1    5    5    0    0  0.14426067794E+02 -0.28303751774E+02  0.53232097448E+03  0.53326806923E+03  0.00000000000E+00 0.  1.
          5    1    4    4  501    0 -0.10609920773E+03  0.15852361132E+03  0.80182692383E+03  0.82421518149E+03  0.41800000000E+01 0. -1.
         -5    1    4    4    0  501 -0.15011975806E+00 -0.21998260276E+02  0.78859977035E+02  0.81977523560E+02  0.41800000000E+01 0. -1.
</event>
<event>
11    1  0.8479398E-009  0.1479808E+03  0.7561462E-02  0.1098960E+00
         22   -1    0    0    0    0  0.00000000000E+00  0.00000000000E+00  0.96315176776E+03  0.96315176776E+03  0.00000000000E+00 0. -1.
         22   -1    0    0    0    0 -0.00000000000E+00 -0.00000000000E+00 -0.19650456131E+03  0.19650456131E+03  0.00000000000E+00 0.  1.
         24    2    1    2    0    0  0.79567280789E+02  0.11042499644E+02 -0.11978633743E+03  0.16492411683E+03  0.79989428717E+02 0.  0.
         25    2    1    2    0    0 -0.76006939065E+02  0.27966714901E+02  0.55613328033E+02  0.15905737565E+03  0.12508882670E+03 0.  0.
        -24    2    1    2    0    0 -0.35603417240E+01 -0.39009214545E+02  0.83082021585E+03  0.83567483659E+03  0.80967935611E+02 0.  0.
        -11    1    3    3    0    0  0.65358657234E+02  0.58737819694E+01 -0.13071909898E+03  0.14626598452E+03  0.00000000000E+00 0.  1.
         12    1    3    3    0    0  0.14208623555E+02  0.51687176748E+01  0.10932761557E+02  0.18658132302E+02  0.00000000000E+00 0. -1.
         11    1    5    5    0    0 -0.35112768215E+02 -0.31205012325E+02  0.66754865018E+03  0.66919941695E+03  0.00000000000E+00 0. -1.
        -12    1    5    5    0    0  0.31552426491E+02 -0.78042022204E+01  0.16327156567E+03  0.16647541964E+03  0.00000000000E+00 0.  1.
          5    1    4    4  501    0 -0.81570399230E+02 -0.47497721930E+01 -0.12889605895E+02  0.82824541693E+02  0.41800000000E+01 0.  1.
         -5    1    4    4    0  501  0.55634601652E+01  0.32716487094E+02  0.68502933928E+02  0.76232833960E+02  0.41800000000E+01 0.  1.
</event>
<event>
11    1  0.8479398E-009  0.1870897E+03  0.7561462E-02  0.1064048E+00
         22   -1    0    0    0    0  0.00000000000E+00  0.00000000000E+00  0.16125168729E+04  0.16125168729E+04  0.00000000000E+00 0.  1.
         22   -1    0    0    0    0 -0.00000000000E+00 -0.00000000000E+00 -0.55305667043E+02  0.55305667043E+02  0.00000000000E+00 0. -1.
         24    2    1    2    0    0  0.47550711268E+00 -0.17887156247E+01  0.52279851200E+02  0.93298501113E+02  0.77252843688E+02 0.  0.
         25    2    1    2    0    0 -0.65012026674E+02  0.12473120160E+03  0.26961494022E+03  0.32882295500E+03  0.12509150041E+03 0.  0.
        -24    2    1    2    0    0  0.64536519561E+02 -0.12294248597E+03  0.12353164144E+04  0.12457010838E+04  0.80527816817E+02 0.  0.
        -13    1    3    3    0    0  0.18471304020E+02 -0.13020560154E+02  0.64826387555E+02  0.68652637112E+02  0.00000000000E+00 0.  1.
         14    1    3    3    0    0 -0.17995796907E+02  0.11231844529E+02 -0.12546536356E+02  0.24645864001E+02  0.00000000000E+00 0. -1.
         11    1    5    5    0    0 -0.15159506201E+01 -0.62003109970E+02  0.71459215121E+03  0.71727862531E+03  0.00000000000E+00 0. -1.
        -12    1    5    5    0    0  0.66052470181E+02 -0.60939376005E+02  0.52072426317E+03  0.52842245848E+03  0.00000000000E+00 0.  1.
          5    1    4    4  501    0 -0.84010043695E+01  0.13052305700E+03  0.19631838785E+03  0.23593479415E+03  0.41800000000E+01 0. -1.
         -5    1    4    4    0  501 -0.56611022304E+02 -0.57918554001E+01  0.73296552375E+02  0.92888160846E+02  0.41800000000E+01 0. -1.
</event>
<event>
11    1  0.8479398E-009  0.1562593E+03  0.7561462E-02  0.1090649E+00
         22   -1    0    0    0    0  0.00000000000E+00  0.00000000000E+00  0.16245855401E+04  0.16245855401E+04  0.00000000000E+00 0. -1.
         22   -1    0    0    0    0 -0.00000000000E+00 -0.00000000000E+00 -0.27373454502E+04  0.27373454502E+04  0.00000000000E+00 0. -1.
        -24    2    1    2    0    0 -0.59238225370E+01  0.65223760503E+02 -0.26642144216E+04  0.26662432297E+04  0.80778989962E+02 0.  0.
         25    2    1    2    0    0  0.17805951631E+02 -0.15587449799E+03  0.74805755094E+02  0.21414205889E+03  0.12508800643E+03 0.  0.
         24    2    1    2    0    0 -0.11882129094E+02  0.90650737487E+02  0.14766487564E+04  0.14815457016E+04  0.78277552027E+02 0.  0.
        -13    1    5    5    0    0 -0.29685161807E+02  0.16458078202E+02  0.22206891568E+03  0.22464790335E+03  0.00000000000E+00 0.  1.
         14    1    5    5    0    0  0.17803032713E+02  0.74192659285E+02  0.12545798407E+04  0.12568977983E+04  0.00000000000E+00 0. -1.
         13    1    3    3    0    0  0.27901949567E+02  0.63604458944E+02 -0.19273201826E+04  0.19285712671E+04  0.00000000000E+00 0. -1.
        -14    1    3    3    0    0 -0.33825772104E+02  0.16193015591E+01 -0.73689423893E+03  0.73767196257E+03  0.00000000000E+00 0.  1.
          5    1    4    4  501    0 -0.45656344506E+02 -0.39523312583E+02  0.51573853387E+02  0.79523133643E+02  0.41800000000E+01 0.  1.
         -5    1    4    4    0  501  0.63462296137E+02 -0.11635118541E+03  0.23231901707E+02  0.13461892524E+03  0.41800000000E+01 0.  1.
</event>
<event>
11    1  0.8479398E-009  0.1275187E+03  0.7561462E-02  0.1122356E+00
         22   -1    0    0    0    0  0.00000000000E+00  0.00000000000E+00  0.22694325509E+03  0.22694325509E+03  0.00000000000E+00 0. -1.
         22   -1    0    0    0    0 -0.00000000000E+00 -0.00000000000E+00 -0.40406062101E+04  0.40406062101E+04  0.00000000000E+00 0. -1.
        -24    2    1    2    0    0  0.18486929678E+02 -0.16836231281E+02 -0.38199149553E+04  0.38208303194E+04  0.79805001497E+02 0.  0.
         25    2    1    2    0    0 -0.38532465987E+02  0.26950162133E+01 -0.19087604462E+03  0.23145825122E+03  0.12508894275E+03 0.  0.
         24    2    1    2    0    0  0.20045536309E+02  0.14141215068E+02  0.19712804494E+03  0.21526089460E+03  0.82921584347E+02 0.  0.
        -11    1    5    5    0    0  0.26675458677E+02 -0.14579597619E+02  0.21641890574E+02  0.37316433243E+02  0.00000000000E+00 0.  1.
         12    1    5    5    0    0 -0.66299223677E+01  0.28720812686E+02  0.17548615437E+03  0.17794446135E+03  0.00000000000E+00 0. -1.
         13    1    3    3    0    0  0.69237571448E+01 -0.79538808578E+01 -0.37022976836E+04  0.37023127016E+04  0.00000000000E+00 0. -1.
        -14    1    3    3    0    0  0.11563172533E+02 -0.88823504231E+01 -0.11761727173E+03  0.11851761775E+03  0.00000000000E+00 0.  1.
          5    1    4    4  501    0 -0.83806727947E+02 -0.40485129641E+01 -0.13624820732E+03  0.16006562561E+03  0.41800000000E+01 0. -1.
         -5    1    4    4    0  501  0.45274261960E+02  0.67435291774E+01 -0.54627837306E+02  0.71392625603E+02  0.41800000000E+01 0. -1.
</event>
<event>
11    1  0.8479398E-009  0.1328634E+03  0.7561462E-02  0.1115800E+00
         22   -1    0    0    0    0  0.00000000000E+00  0.00000000000E+00  0.90498764776E+02  0.90498764776E+02  0.00000000000E+00 0.  1.
         22   -1    0    0    0    0 -0.00000000000E+00 -0.00000000000E+00 -0.10024879391E+04  0.10024879391E+04  0.00000000000E+00 0. -1.
        -24    2    1    2    0    0 -0.74145861656E+00 -0.45379245960E+02 -0.73413674981E+03  0.73992121110E+03  0.80416450390E+02 0.  0.
         25    2    1    2    0    0 -0.13757491736E+02  0.40868706823E+02 -0.22312588438E+03  0.25940781209E+03  0.12509089862E+03 0.  0.
         24    2    1    2    0    0  0.14498950352E+02  0.45105391372E+01  0.45273459834E+02  0.93657680714E+02  0.80569910431E+02 0.  0.
        -11    1    5    5    0    0  0.43598660098E+02 -0.86483909917E+01  0.42670674275E+02  0.61615130221E+02  0.00000000000E+00 0.  1.
         12    1    5    5    0    0 -0.29099709746E+02  0.13158930129E+02  0.26027855592E+01  0.32042550493E+02  0.00000000000E+00 0. -1.
         13    1    3    3    0    0 -0.23876261592E+02 -0.56444136395E+02 -0.61554179743E+03  0.61858525749E+03  0.00000000000E+00 0. -1.
        -14    1    3    3    0    0  0.23134802975E+02  0.11064890434E+02 -0.11859495238E+03  0.12133595361E+03  0.00000000000E+00 0.  1.
          5    1    4    4  501    0 -0.33483775298E+02 -0.18753719518E+02 -0.14079955005E+02  0.41092368354E+02  0.41800000000E+01 0. -1.
         -5    1    4    4    0  501  0.19726283562E+02  0.59622426342E+02 -0.20904592938E+03  0.21831544374E+03  0.41800000000E+01 0. -1.
</event>
<event>
11    1  0.8479398E-009  0.1764270E+03  0.7561462E-02  0.1072570E+00
         22   -1    0    0    0    0  0.00000000000E+00  0.00000000000E+00  0.84926167148E+03  0.84926167148E+03  0.00000000000E+00 0. -1.
         22   -1    0    0    0    0 -0.00000000000E+00 -0.00000000000E+00 -0.45384152952E+03  0.45384152952E+03  0.00000000000E+00 0. -1.
        -24    2    1    2    0    0 -0.45469347207E+02 -0.10614981704E+01 -0.33799752387E+03  0.35127148802E+03  0.84147155866E+02 0.  0.
         25    2    1    2    0    0  0.16145784040E+03 -0.35106088793E+02  0.36166364644E+01  0.20727345785E+03  0.12509250406E+03 0.  0.
         24    2    1    2    0    0 -0.11598849319E+03  0.36167586963E+02  0.72980102937E+03  0.74455825514E+03  0.83642261631E+02 0.  0.
        -11    1    5    5    0    0  0.12147016126E+02  0.95580208078E+01  0.11091191631E+03  0.11198374410E+03  0.00000000000E+00 0.  1.
         12    1    5    5    0    0 -0.12813550931E+03  0.26609566155E+02  0.61888911305E+03  0.63257451104E+03  0.00000000000E+00 0. -1.
         11    1    3    3    0    0 -0.55580392001E+02 -0.27722996115E+02 -0.27784684923E+03  0.28470443642E+03  0.00000000000E+00 0. -1.
        -12    1    3    3    0    0  0.10111044794E+02  0.26661497945E+02 -0.60150674635E+02  0.66567051598E+02  0.00000000000E+00 0.  1.
          5    1    4    4  501    0 -0.76179732657E+01 -0.32697258488E+02  0.16495334570E+02  0.37639244040E+02  0.41800000000E+01 0.  1.
         -5    1    4    4    0  501  0.16907581366E+03 -0.24088303041E+01 -0.12878698106E+02  0.16963421381E+03  0.41800000000E+01 0.  1.
</event>
<event>
11    1  0.8479398E-009  0.2437549E+03  0.7561462E-02  0.1027280E+00
         22   -1    0    0    0    0  0.00000000000E+00  0.00000000000E+00  0.16090740444E+03  0.16090740444E+03  0.00000000000E+00 0. -1.
         22   -1    0    0    0    0 -0.00000000000E+00 -0.00000000000E+00 -0.33796774632E+04  0.33796774632E+04  0.00000000000E+00 0.  1.
        -24    2    1    2    0    0  0.44248842340E+02  0.35156438606E+02 -0.17771257837E+04  0.17797836187E+04  0.79118537421E+02 0.  0.
         25    2    1    2    0    0  0.29758899272E+02 -0.22985991504E+03 -0.15060169254E+04  0.15288739870E+04  0.12509003132E+03 0.  0.
         24    2    1    2    0    0 -0.74007741612E+02  0.19470347643E+03  0.64372650309E+02  0.23192726199E+03  0.79119069737E+02 0.  0.
        -13    1    5    5    0    0 -0.38469298432E+02  0.55616440408E+02 -0.12978406444E+02  0.68858655225E+02  0.00000000000E+00 0.  1.
         14    1    5    5    0    0 -0.35538443180E+02  0.13908703602E+03  0.77351056753E+02  0.16306860677E+03  0.00000000000E+00 0. -1.
         13    1    3    3    0    0  0.20909290555E+02 -0.99419871792E+01 -0.14244504815E+03  0.14431435577E+03  0.00000000000E+00 0. -1.
        -14    1    3    3    0    0  0.23339551785E+02  0.45098425785E+02 -0.16346807356E+04  0.16354692629E+04  0.00000000000E+00 0.  1.
          5    1    4    4  501    0 -0.16524709250E+02 -0.20352571514E+03 -0.10448719037E+04  0.10646457394E+04  0.41800000000E+01 0.  1.
         -5    1    4    4    0  501  0.46283608523E+02 -0.26334199893E+02 -0.46114502163E+03  0.46422824761E+03  0.41800000000E+01 0.  1.
</event>
<event>
11    1  0.8479398E-009  0.1298412E+03  0.7561462E-02  0.1119464E+00
         22   -1    0    0    0    0  0.00000000000E+00  0.00000000000E+00  0.12265739675E+04  0.12265739675E+04  0.00000000000E+00 0.  1.
         22   -1    0    0    0    0 -0.00000000000E+00 -0.00000000000E+00 -0.31962035014E+03  0.31962035014E+03  0.00000000000E+00 0.  1.
         24    2    1    2    0    0  0.32772632623E+01  0.27283433514E+02 -0.26501294173E+03  0.27818454718E+03  0.79997855020E+02 0.  0.
         25    2    1    2    0    0 -0.99847037265E+01 -0.60363014387E+02  0.58432337090E+02  0.15102950618E+03  0.12510869635E+03 0.  0.
        -24    2    1    2    0    0  0.67074404641E+01  0.33079580874E+02  0.11135342220E+04  0.11169802643E+04  0.80914762615E+02 0.  0.
        -13    1    3    3    0    0  0.85588791048E+01 -0.24574078629E+02 -0.14535495445E+03  0.14766584756E+03  0.00000000000E+00 0.  1.
         14    1    3    3    0    0 -0.52816158425E+01  0.51857512142E+02 -0.11965798728E+03  0.13051869962E+03  0.00000000000E+00 0. -1.
         11    1    5    5    0    0  0.11107208967E+02 -0.23416682059E+02  0.19724634700E+03  0.19894178167E+03  0.00000000000E+00 0. -1.
        -12    1    5    5    0    0 -0.43997685030E+01  0.56496262932E+02  0.91628787497E+03  0.91803848258E+03  0.00000000000E+00 0.  1.
          5    1    4    4  501    0 -0.16088073166E+01 -0.65017230580E+02 -0.22862571483E+02  0.69065172903E+02  0.41800000000E+01 0.  1.
         -5    1    4    4    0  501 -0.83758964099E+01  0.46542161927E+01  0.81294908573E+02  0.81964333273E+02  0.41800000000E+01 0.  1.
</event>
<event>
11    1  0.8479398E-009  0.1366313E+03  0.7561462E-02  0.1111379E+00
         22   -1    0    0    0    0  0.00000000000E+00  0.00000000000E+00  0.70700267670E+03  0.70700267670E+03  0.00000000000E+00 0. -1.
         22   -1    0    0    0    0 -0.00000000000E+00 -0.00000000000E+00 -0.51987778892E+03  0.51987778892E+03  0.00000000000E+00 0. -1.
         24    2    1    2    0    0  0.31094523344E+02 -0.45066156820E+02 -0.49101062731E+03  0.50064710058E+03  0.80983055724E+02 0.  0.
         25    2    1    2    0    0 -0.67593322340E+02  0.34061353240E+02  0.25467889591E+03  0.29366335510E+03  0.12509113918E+03 0.  0.
        -24    2    1    2    0    0  0.36498798996E+02  0.11004803581E+02  0.42345661918E+03  0.43257000994E+03  0.79674570257E+02 0.  0.
        -11    1    3    3    0    0  0.72893173447E+01 -0.28375434280E+02 -0.45040524658E+02  0.53730329232E+02  0.00000000000E+00 0.  1.
         12    1    3    3    0    0  0.23805205999E+02 -0.16690722540E+02 -0.44597010265E+03  0.44691677135E+03  0.00000000000E+00 0. -1.
         13    1    5    5    0    0  0.11153803796E+02  0.24249555211E+02  0.37749926567E+03  0.37844173112E+03  0.00000000000E+00 0. -1.
        -14    1    5    5    0    0  0.25344995200E+02 -0.13244751631E+02  0.45957353510E+02  0.54128278830E+02  0.00000000000E+00 0.  1.
          5    1    4    4  501    0 -0.59309958074E+02 -0.13234971486E+02  0.23297132607E+03  0.24080271337E+03  0.41800000000E+01 0. -1.
         -5    1    4    4    0  501 -0.82833642657E+01  0.47296324726E+02  0.21707569843E+02  0.52860641735E+02  0.41800000000E+01 0. -1.
</event>
<event>
11    1  0.8479398E-009  0.2175933E+03  0.7561462E-02  0.1042736E+00
         22   -1    0    0    0    0  0.00000000000E+00  0.00000000000E+00  0.12299367055E+04  0.12299367055E+04  0.00000000000E+00 0.  1.
         22   -1    0    0    0    0 -0.00000000000E+00 -0.00000000000E+00 -0.35451637585E+03  0.35451637585E+03  0.00000000000E+00 0. -1.
         24    2    1    2    0    0  0.36322580376E+02  0.37932809221E+02 -0.31103808525E+03  0.32519151019E+03  0.79035434838E+02 0.  0.
         25    2    1    2    0    0 -0.13741186478E+03 -0.15874266044E+03  0.65194512900E+03  0.69624775632E+03  0.12508890485E+03 0.  0.
        -24    2    1    2    0    0  0.10108928441E+03  0.12080985122E+03  0.53451328589E+03  0.56301381483E+03  0.80411686521E+02 0.  0.
        -13    1    3    3    0    0  0.27558637915E+02  0.38978708774E+02 -0.74456849298E+02  0.88445693331E+02  0.00000000000E+00 0.  1.
         14    1    3    3    0    0  0.87639424606E+01 -0.10458995530E+01 -0.23658123596E+03  0.23674581686E+03  0.00000000000E+00 0. -1.
         13    1    5    5    0    0  0.81811997891E+02  0.76117660001E+02  0.24296358510E+03  0.26742925204E+03  0.00000000000E+00 0. -1.
        -14    1    5    5    0    0  0.19277286516E+02  0.44692191219E+02  0.29154970079E+03  0.29558456279E+03  0.00000000000E+00 0.  1.
          5    1    4    4  501    0  0.54126911807E+01 -0.94695473687E+01 -0.67020647169E+00  0.11700048286E+02  0.41800000000E+01 0. -1.
         -5    1    4    4    0  501 -0.14282455596E+03 -0.14927311307E+03  0.65261533548E+03  0.68454770803E+03  0.41800000000E+01 0. -1.
</event>
<event>
11    1  0.8479398E-009  0.1390429E+03  0.7561462E-02  0.1108632E+00
         22   -1    0    0    0    0  0.00000000000E+00  0.00000000000E+00  0.16695622593E+04  0.16695622593E+04  0.00000000000E+00 0. -1.
         22   -1    0    0    0    0 -0.00000000000E+00 -0.00000000000E+00 -0.15954179652E+03  0.15954179652E+03  0.00000000000E+00 0. -1.
         24    2    1    2    0    0 -0.16808150485E+02  0.25549207443E+02 -0.13649699545E+03  0.16117768795E+03  0.80072101280E+02 0.  0.
         25    2    1    2    0    0  0.63687909883E+02 -0.53601817714E+02  0.66733886080E+03  0.68404085936E+03  0.12506573236E+03 0.  0.
        -24    2    1    2    0    0 -0.46879759398E+02  0.28052610271E+02  0.97917859743E+03  0.98388550851E+03  0.79090501328E+02 0.  0.
        -11    1    3    3    0    0 -0.86004382760E+01 -0.27754760431E+02 -0.29781132121E+02  0.41607812914E+02  0.00000000000E+00 0.  1.
         12    1    3    3    0    0 -0.82077122092E+01  0.53303967874E+02 -0.10671586333E+03  0.11956987504E+03  0.00000000000E+00 0. -1.
         11    1    5    5    0    0  0.10311377309E+02  0.67678588411E+01  0.57444249691E+03  0.57457489561E+03  0.00000000000E+00 0. -1.
        -12    1    5    5    0    0 -0.57191136707E+02  0.21284751430E+02  0.40473610053E+03  0.40931061290E+03  0.00000000000E+00 0.  1.
          5    1    4    4  501    0  0.57414770841E+02  0.28008764185E+02  0.37523576065E+03  0.38065771403E+03  0.41800000000E+01 0. -1.
         -5    1    4    4    0  501  0.62731390418E+01 -0.81610581899E+02  0.29210310015E+03  0.30338314533E+03  0.41800000000E+01 0. -1.
</event>
<event>
11    1  0.8479398E-009  0.1498071E+03  0.7561462E-02  0.1097076E+00
         22   -1    0    0    0    0  0.00000000000E+00  0.00000000000E+00  0.14836400305E+04  0.14836400305E+04  0.00000000000E+00 0. -1.
         22   -1    0    0    0    0 -0.00000000000E+00 -0.00000000000E+00 -0.12961735632E+03  0.12961735632E+03  0.00000000000E+00 0. -1.
        -24    2    1    2    0    0  0.82021297592E+02 -0.26908020392E+02 -0.72520037105E+02  0.13861482147E+03  0.80643525023E+02 0.  0.
         25    2    1    2    0    0 -0.60293662407E+02 -0.41822343300E-01  0.19184408383E+03  0.23680928373E+03  0.12505661473E+03 0.  0.
         24    2    1    2    0    0 -0.21727635185E+02  0.26949842736E+02  0.12346986274E+04  0.12378332816E+04  0.80945341474E+02 0.  0.
        -11    1    5    5    0    0 -0.35998028495E+02  0.67132732339E+01  0.23568161858E+03  0.23850943677E+03  0.00000000000E+00 0.  1.
         12    1    5    5    0    0  0.14270393310E+02  0.20236569502E+02  0.99901700886E+03  0.99932384483E+03  0.00000000000E+00 0. -1.
         11    1    3    3    0    0  0.84845029015E+02 -0.31962996604E+02 -0.85362519883E+02  0.12452739418E+03  0.00000000000E+00 0. -1.
        -12    1    3    3    0    0 -0.28237314231E+01  0.50549762112E+01  0.12842482777E+02  0.14087427286E+02  0.00000000000E+00 0.  1.
          5    1    4    4  501    0  0.72705536376E+01 -0.27794073304E+02 -0.25109595091E+01  0.29140157492E+02  0.41800000000E+01 0. -1.
         -5    1    4    4    0  501 -0.67564216045E+02  0.27752250961E+02  0.19435504334E+03  0.20766912624E+03  0.41800000000E+01 0. -1.
</event>
<event>
11    1  0.8479398E-009  0.1258303E+03  0.7561462E-02  0.1124501E+00
         22   -1    0    0    0    0  0.00000000000E+00  0.00000000000E+00  0.35231444481E+03  0.35231444481E+03  0.00000000000E+00 0.  1.
         22   -1    0    0    0    0 -0.00000000000E+00 -0.00000000000E+00 -0.28920057881E+03  0.28920057881E+03  0.00000000000E+00 0. -1.
         24    2    1    2    0    0 -0.20065032424E+02 -0.21381682520E+02 -0.24062322778E+03  0.25389515316E+03  0.75521051238E+02 0.  0.
         25    2    1    2    0    0  0.24462813621E+02  0.63000588138E+01  0.98984189980E+02  0.16151162474E+03  0.12510002026E+03 0.  0.
        -24    2    1    2    0    0 -0.43977811967E+01  0.15081623706E+02  0.20475290380E+03  0.22610824572E+03  0.94627645634E+02 0.  0.
        -13    1    3    3    0    0  0.21730512634E+02  0.86901881987E+01 -0.12715522830E+03  0.12929109263E+03  0.00000000000E+00 0.  1.
         14    1    3    3    0    0 -0.41795545058E+02 -0.30071870719E+02 -0.11346799948E+03  0.12460406053E+03  0.00000000000E+00 0. -1.
         11    1    5    5    0    0  0.20422386607E+02 -0.13015994536E+02  0.75409673102E+01  0.25364466808E+02  0.00000000000E+00 0. -1.
        -12    1    5    5    0    0 -0.24820167804E+02  0.28097618242E+02  0.19721193649E+03  0.20074377891E+03  0.00000000000E+00 0.  1.
          5    1    4    4  501    0  0.42717872956E+02  0.53112565810E+02  0.26572608404E+02  0.73275761574E+02  0.41800000000E+01 0.  1.
         -5    1    4    4    0  501 -0.18255059335E+02 -0.46812506996E+02  0.72411581575E+02  0.88235863167E+02  0.41800000000E+01 0.  1.
</event>
<event>
11    1  0.8479398E-009  0.1411925E+03  0.7561462E-02  0.1106234E+00
         22   -1    0    0    0    0  0.00000000000E+00  0.00000000000E+00  0.74259247962E+03  0.74259247962E+03  0.00000000000E+00 0. -1.
         22   -1    0    0    0    0 -0.00000000000E+00 -0.00000000000E+00 -0.51038475761E+03  0.51038475761E+03  0.00000000000E+00 0. -1.
        -24    2    1    2    0    0 -0.43029381394E+02  0.46551921404E+02 -0.43565984045E+03  0.44749283030E+03  0.80198051993E+02 0.  0.
         25    2    1    2    0    0  0.84530983970E+02 -0.58890479297E+02  0.34164418587E+02  0.16561306012E+03  0.12508757885E+03 0.  0.
         24    2    1    2    0    0 -0.41501602576E+02  0.12338557893E+02  0.63370314387E+03  0.63987134681E+03  0.77337202546E+02 0.  0.
        -13    1    5    5    0    0 -0.21373229457E-01  0.29492209198E+02  0.99318482122E+02  0.10360478633E+03  0.00000000000E+00 0.  1.
         14    1    5    5    0    0 -0.41480229346E+02 -0.17153651305E+02  0.53438466174E+03  0.53626656048E+03  0.00000000000E+00 0. -1.
         13    1    3    3    0    0 -0.63840041438E+02  0.20690955420E+02 -0.32948634080E+03  0.33625126811E+03  0.00000000000E+00 0. -1.
        -14    1    3    3    0    0  0.20810660044E+02  0.25860965984E+02 -0.10617349964E+03  0.11124156220E+03  0.00000000000E+00 0.  1.
          5    1    4    4  501    0  0.91066169804E+01 -0.67241640597E+02  0.54280626662E+02  0.86995560426E+02  0.41800000000E+01 0.  1.
         -5    1    4    4    0  501  0.75424366990E+02  0.83511612996E+01 -0.20116208075E+02  0.78617499694E+02  0.41800000000E+01 0.  1.
</event>
<event>
11    1  0.8479398E-009  0.1423280E+03  0.7561462E-02  0.1104986E+00
         22   -1    0    0    0    0  0.00000000000E+00  0.00000000000E+00  0.24237308934E+03  0.24237308934E+03  0.00000000000E+00 0. -1.
         22   -1    0    0    0    0 -0.00000000000E+00 -0.00000000000E+00 -0.21039833264E+04  0.21039833264E+04  0.00000000000E+00 0.  1.
        -24    2    1    2    0    0 -0.68247152737E+02 -0.78792373999E+01 -0.19329212288E+04  0.19357203714E+04  0.78160882270E+02 0.  0.
         25    2    1    2    0    0  0.45699568395E+02  0.39082733165E+02 -0.13038121221E+03  0.19043348587E+03  0.12509892670E+03 0.  0.
         24    2    1    2    0    0  0.22547584342E+02 -0.31203495765E+02  0.20169220389E+03  0.22020255847E+03  0.79544766903E+02 0.  0.
        -11    1    5    5    0    0  0.38147725221E+01 -0.52213337983E+02  0.82323805867E+02  0.97560207898E+02  0.00000000000E+00 0.  1.
         12    1    5    5    0    0  0.18732811820E+02  0.21009842218E+02  0.11936839802E+03  0.12264235058E+03  0.00000000000E+00 0. -1.
         13    1    3    3    0    0 -0.82966850063E+02 -0.18482950450E+02 -0.16803143694E+04  0.16824629261E+04  0.00000000000E+00 0. -1.
        -14    1    3    3    0    0  0.14719697326E+02  0.10603713050E+02 -0.25260685938E+03  0.25325744535E+03  0.00000000000E+00 0.  1.
          5    1    4    4  501    0  0.36052630003E+01  0.19835267576E+02 -0.14121912889E+03  0.14271212466E+03  0.41800000000E+01 0. -1.
         -5    1    4    4    0  501  0.42094305395E+02  0.19247465589E+02  0.10837916675E+02  0.47721361214E+02  0.41800000000E+01 0. -1.
</event>
<event>
11    1  0.8479398E-009  0.1298070E+03  0.7561462E-02  0.1119506E+00
         22   -1    0    0    0    0  0.00000000000E+00  0.00000000000E+00  0.52075236951E+03  0.52075236951E+03  0.00000000000E+00 0. -1.
         22   -1    0    0    0    0 -0.00000000000E+00 -0.00000000000E+00 -0.17074249756E+03  0.17074249756E+03  0.00000000000E+00 0.  1.
         24    2    1    2    0    0 -0.16261415135E+02 -0.30502738642E+02 -0.97316750119E+02  0.13315799462E+03  0.84057426748E+02 0.  0.
         25    2    1    2    0    0  0.15150878566E+02  0.31760237618E+02  0.28604967763E+02  0.13305659093E+03  0.12509016905E+03 0.  0.
        -24    2    1    2    0    0  0.11105365696E+01 -0.12574989764E+01  0.41872165431E+03  0.42528028152E+03  0.74381983459E+02 0.  0.
        -13    1    3    3    0    0 -0.22367397805E+02 -0.47062872748E+02 -0.10231002908E+03  0.11481531486E+03  0.00000000000E+00 0.  1.
         14    1    3    3    0    0  0.61059826698E+01  0.16560134106E+02  0.49932789649E+01  0.18342679761E+02  0.00000000000E+00 0. -1.
         11    1    5    5    0    0  0.83718244714E+01  0.10834122789E+02  0.40616688891E+03  0.40639759757E+03  0.00000000000E+00 0. -1.
        -12    1    5    5    0    0 -0.72612879018E+01 -0.12091621765E+02  0.12554765404E+02  0.18882683953E+02  0.00000000000E+00 0.  1.
          5    1    4    4  501    0  0.67661913278E+02  0.30236353703E+02  0.30674768899E+02  0.80316781813E+02  0.41800000000E+01 0.  1.
         -5    1    4    4    0  501 -0.52511034712E+02  0.15238839154E+01 -0.20698011361E+01  0.52739809115E+02  0.41800000000E+01 0.  1.
</event>
<event>
11    1  0.8479398E-009  0.2557986E+03  0.7561462E-02  0.1020855E+00
         22   -1    0    0    0    0  0.00000000000E+00  0.00000000000E+00  0.59695685668E+03  0.59695685668E+03  0.00000000000E+00 0. -1.
         22   -1    0    0    0    0 -0.00000000000E+00 -0.00000000000E+00 -0.50448710927E+03  0.50448710927E+03  0.00000000000E+00 0. -1.
        -24    2    1    2    0    0  0.62861057745E+01 -0.20752777112E+03 -0.25738408256E+03  0.34046270749E+03  0.80999989666E+02 0.  0.
         25    2    1    2    0    0  0.63074640481E+02  0.26445220439E+03 -0.83955240712E+02  0.31082109495E+03  0.12509153426E+03 0.  0.
         24    2    1    2    0    0 -0.69360746256E+02 -0.56924433269E+02  0.43380907068E+03  0.45016016352E+03  0.80015990836E+02 0.  0.
        -11    1    5    5    0    0 -0.57022451172E+02 -0.26161316824E+01  0.29725070167E+03  0.30268198448E+03  0.00000000000E+00 0.  1.
         12    1    5    5    0    0 -0.12338295083E+02 -0.54308301587E+02  0.13655836901E+03  0.14747817904E+03  0.00000000000E+00 0. -1.
         11    1    3    3    0    0 -0.93885356350E+01 -0.18056149691E+03 -0.17195548348E+03  0.24951810969E+03  0.00000000000E+00 0. -1.
        -12    1    3    3    0    0  0.15674641409E+02 -0.26966274216E+02 -0.85428599075E+02  0.90944597796E+02  0.00000000000E+00 0.  1.
          5    1    4    4  501    0  0.53032301775E+02  0.25975599678E+03 -0.43531694086E+02  0.26869701093E+03  0.41800000000E+01 0. -1.
         -5    1    4    4    0  501  0.10042338706E+02  0.46962076142E+01 -0.40423546626E+02  0.42124084019E+02  0.41800000000E+01 0. -1.
</event>
<event>
11    1  0.8479398E-009  0.1692118E+03  0.7561462E-02  0.1078720E+00
         22   -1    0    0    0    0  0.00000000000E+00  0.00000000000E+00  0.28614192846E+04  0.28614192846E+04  0.00000000000E+00 0.  1.
         22   -1    0    0    0    0 -0.00000000000E+00 -0.00000000000E+00 -0.12767968063E+03  0.12767968063E+03  0.00000000000E+00 0.  1.
         24    2    1    2    0    0  0.12681778717E+02  0.76649834339E+02 -0.69127862585E+02  0.13071064913E+03  0.79187043101E+02 0.  0.
         25    2    1    2    0    0  0.95803848492E+02 -0.10857205534E+03  0.33114921845E+03  0.38245686051E+03  0.12508867525E+03 0.  0.
        -24    2    1    2    0    0 -0.10848562721E+03  0.31922221004E+02  0.24717182481E+04  0.24759314556E+04  0.89762549468E+02 0.  0.
        -11    1    3    3    0    0  0.30230688295E+02  0.78540945205E+02 -0.74357773115E+02  0.11230161624E+03  0.00000000000E+00 0.  1.
         12    1    3    3    0    0 -0.17548909578E+02 -0.18911108658E+01  0.52299105299E+01  0.18409032887E+02  0.00000000000E+00 0. -1.
         11    1    5    5    0    0 -0.24807686628E+02 -0.74604584186E+00  0.12211035946E+03  0.12460705353E+03  0.00000000000E+00 0. -1.
        -12    1    5    5    0    0 -0.83677940581E+02  0.32668266846E+02  0.23496078887E+04  0.23513244021E+04  0.00000000000E+00 0.  1.
          5    1    4    4  501    0  0.92337063756E+02 -0.86889969141E+02  0.33637533238E+03  0.35950220683E+03  0.41800000000E+01 0.  1.
         -5    1    4    4    0  501  0.34667847356E+01 -0.21682086202E+02 -0.52261139288E+01  0.22954653673E+02  0.41800000000E+01 0.  1.
</event>
<event>
11    1  0.8479398E-009  0.1370960E+03  0.7561462E-02  0.1110845E+00
         22   -1    0    0    0    0  0.00000000000E+00  0.00000000000E+00  0.27360633350E+03  0.27360633350E+03  0.00000000000E+00 0. -1.
         22   -1    0    0    0    0 -0.00000000000E+00 -0.00000000000E+00 -0.61273321682E+03  0.61273321682E+03  0.00000000000E+00 0. -1.
         24    2    1    2    0    0  0.42517551270E+02 -0.21857613059E+02 -0.48135513924E+03  0.49048720437E+03  0.81175305169E+02 0.  0.
         25    2    1    2    0    0  0.16984104302E+02  0.15646566831E+02 -0.81367573729E+02  0.15100002344E+03  0.12508816959E+03 0.  0.
        -24    2    1    2    0    0 -0.59501655571E+02  0.62110462278E+01  0.22359582964E+03  0.24485232251E+03  0.79865766736E+02 0.  0.
        -13    1    3    3    0    0  0.78730706572E+01 -0.21098640981E+02 -0.28571702398E+02  0.36379665622E+02  0.00000000000E+00 0.  1.
         14    1    3    3    0    0  0.34644480612E+02 -0.75897207854E+00 -0.45278343684E+03  0.45410753875E+03  0.00000000000E+00 0. -1.
         11    1    5    5    0    0 -0.48292004172E+02  0.60364349122E+01  0.22775343031E+03  0.23289521513E+03  0.00000000000E+00 0. -1.
        -12    1    5    5    0    0 -0.11209651400E+02  0.17461131558E+00 -0.41576006687E+01  0.11957107382E+02  0.00000000000E+00 0.  1.
          5    1    4    4  501    0  0.72872720674E+01 -0.53501162336E+02 -0.19328116493E+02  0.57502410320E+02  0.41800000000E+01 0.  1.
         -5    1    4    4    0  501  0.96968322343E+01  0.69147729167E+02 -0.62039457236E+02  0.93497613116E+02  0.41800000000E+01 0.  1.
</event>
<event>
11    1  0.8479398E-009  0.1511857E+03  0.7561462E-02  0.1095673E+00
         22   -1    0    0    0    0  0.00000000000E+00  0.00000000000E+00  0.19710873195E+04  0.19710873195E+04  0.00000000000E+00 0.  1.
         22   -1    0    0    0    0 -0.00000000000E+00 -0.00000000000E+00 -0.87833458727E+02  0.87833458727E+02  0.00000000000E+00 0.  1.
        -24    2    1    2    0    0  0.93293568281E+02 -0.33857753295E+02  0.13532776818E+00  0.12917936721E+03  0.82687685047E+02 0.  0.
         25    2    1    2    0    0 -0.23106597354E+02  0.44124645585E+02  0.18830758317E+03  0.23149299259E+03  0.12509340729E+03 0.  0.
         24    2    1    2    0    0 -0.70186970928E+02 -0.10266892290E+02  0.16948109499E+04  0.16982484185E+04  0.81436570831E+02 0.  0.
        -11    1    5    5    0    0 -0.56222626630E+02 -0.92055724247E+01  0.16561413588E+04  0.16571209753E+04  0.00000000000E+00 0.  1.
         12    1    5    5    0    0 -0.13964344298E+02 -0.10613198650E+01  0.38669591044E+02  0.41127443186E+02  0.00000000000E+00 0. -1.
         11    1    3    3    0    0  0.29115681602E+02 -0.24421613335E+02  0.38269852299E+02  0.53932547762E+02  0.00000000000E+00 0. -1.
        -12    1    3    3    0    0  0.64177886679E+02 -0.94361399608E+01 -0.38134524531E+02  0.75246819449E+02  0.00000000000E+00 0.  1.
          5    1    4    4  501    0 -0.26221713600E+02  0.75345588887E+02  0.18262518325E+03  0.19933380543E+03  0.41800000000E+01 0. -1.
         -5    1    4    4    0  501  0.31151162467E+01 -0.31220943302E+02  0.56823999241E+01  0.32159187160E+02  0.41800000000E+01 0. -1.
</event>
<event>
11    1  0.8479398E-009  0.1329671E+03  0.7561462E-02  0.1115676E+00
         22   -1    0    0    0    0  0.00000000000E+00  0.00000000000E+00  0.14326322839E+03  0.14326322839E+03  0.00000000000E+00 0. -1.
         22   -1    0    0    0    0 -0.00000000000E+00 -0.00000000000E+00 -0.11311708545E+04  0.11311708545E+04  0.00000000000E+00 0. -1.
        -24    2    1    2    0    0  0.28662922922E+02 -0.24246491312E+02 -0.10291402260E+04  0.10328930980E+04  0.79555587804E+02 0.  0.
         25    2    1    2    0    0  0.14306282730E+02  0.46362033856E+02 -0.18911748052E+01  0.13417734541E+03  0.12508347441E+03 0.  0.
         24    2    1    2    0    0 -0.42969205652E+02 -0.22115542544E+02  0.43123774712E+02  0.10736363951E+03  0.85626171746E+02 0.  0.
        -11    1    5    5    0    0 -0.56895298067E+02 -0.16693076366E+02 -0.25083576077E+01  0.59346656170E+02  0.00000000000E+00 0.  1.
         12    1    5    5    0    0  0.13926092415E+02 -0.54224661780E+01  0.45632132319E+02  0.48016983343E+02  0.00000000000E+00 0. -1.
         11    1    3    3    0    0 -0.87475216931E+01 -0.44546248933E+02 -0.53847331965E+03  0.54038357063E+03  0.00000000000E+00 0. -1.
        -12    1    3    3    0    0  0.37410444615E+02  0.20299757621E+02 -0.49066690636E+03  0.49250952734E+03  0.00000000000E+00 0.  1.
          5    1    4    4  501    0  0.50973400183E+02  0.46100714828E+02 -0.41215094495E+02  0.80247865069E+02  0.41800000000E+01 0.  1.
         -5    1    4    4    0  501 -0.36667117452E+02  0.26131902761E+00  0.39323919690E+02  0.53929480339E+02  0.41800000000E+01 0.  1.
</event>
<event>
11    1  0.8479398E-009  0.1481936E+03  0.7561462E-02  0.1098739E+00
         22   -1    0    0    0    0  0.00000000000E+00  0.00000000000E+00  0.28011903752E+04  0.28011903752E+04  0.00000000000E+00 0. -1.
         22   -1    0    0    0    0 -0.00000000000E+00 -0.00000000000E+00 -0.48350560739E+03  0.48350560739E+03  0.00000000000E+00 0.  1.
        -24    2    1    2    0    0 -0.27854179257E+02 -0.13521252058E+01 -0.47000929810E+03  0.47753372078E+03  0.79699627605E+02 0.  0.
         25    2    1    2    0    0  0.35197716768E+02  0.79733898495E+02  0.69873840054E+03  0.71517830964E+03  0.12509311874E+03 0.  0.
         24    2    1    2    0    0 -0.73435375107E+01 -0.78381773289E+02  0.20889556654E+04  0.20919839522E+04  0.80395611335E+02 0.  0.
        -13    1    5    5    0    0 -0.37190218725E+02 -0.35001265332E+02  0.62555494938E+03  0.62763619688E+03  0.00000000000E+00 0.  1.
         14    1    5    5    0    0  0.29846681215E+02 -0.43380507957E+02  0.14634007160E+04  0.14643477553E+04  0.00000000000E+00 0. -1.
         11    1    3    3    0    0  0.13446100808E+02  0.13946846956E+02 -0.33420758351E+03  0.33476860821E+03  0.00000000000E+00 0. -1.
        -12    1    3    3    0    0 -0.41300280065E+02 -0.15298972161E+02 -0.13580171458E+03  0.14276511257E+03  0.00000000000E+00 0.  1.
          5    1    4    4  501    0 -0.11019416171E+02  0.32973366496E+02  0.40031268994E+02  0.53185010370E+02  0.41800000000E+01 0.  1.
         -5    1    4    4    0  501  0.46217132939E+02  0.46760531998E+02  0.65870713155E+03  0.66199329927E+03  0.41800000000E+01 0.  1.
</event>
<event>
11    1  0.8479398E-009  0.1374198E+03  0.7561462E-02  0.1110474E+00
         22   -1    0    0    0    0  0.00000000000E+00  0.00000000000E+00  0.17112723029E+04  0.17112723029E+04  0.00000000000E+00 0.  1.
         22   -1    0    0    0    0 -0.00000000000E+00 -0.00000000000E+00 -0.81919197928E+03  0.81919197928E+03  0.00000000000E+00 0. -1.
        -24    2    1    2    0    0 -0.35761007074E+02  0.44383448929E+02 -0.79853477189E+03  0.80465552650E+03  0.81018480859E+02 0.  0.
         25    2    1    2    0    0  0.38960408803E+02 -0.29664233052E+02  0.25797253483E+03  0.29085226031E+03  0.12508928179E+03 0.  0.
         24    2    1    2    0    0 -0.31994017295E+01 -0.14719215877E+02  0.14326425607E+04  0.14349564954E+04  0.80053391367E+02 0.  0.
        -11    1    5    5    0    0  0.12060416386E+02  0.22177782514E+02  0.10363765137E+04  0.10366839373E+04  0.00000000000E+00 0.  1.
         12    1    5    5    0    0 -0.15259818115E+02 -0.36896998391E+02  0.39626604698E+03  0.39827255810E+03  0.00000000000E+00 0. -1.
         13    1    3    3    0    0 -0.26145863904E+02  0.68379910208E+02 -0.58973974824E+03  0.59426626101E+03  0.00000000000E+00 0. -1.
        -14    1    3    3    0    0 -0.96151431697E+01 -0.23996461279E+02 -0.20879502365E+03  0.21038926549E+03  0.00000000000E+00 0.  1.
          5    1    4    4  501    0  0.49464579968E+02 -0.14602710723E+02  0.26555604802E+03  0.27055031116E+03  0.41800000000E+01 0.  1.
         -5    1    4    4    0  501 -0.10504171165E+02 -0.15061522330E+02 -0.75835131844E+01  0.20301949142E+02  0.41800000000E+01 0.  1.
</event>
<event>
11    1  0.8480496E-009  0.1545513E+03  0.7561462E-02  0.1092317E+00
         22   -1    0    0    0    0  0.00000000000E+00  0.00000000000E+00  0.74087376945E+03  0.74087376945E+03  0.00000000000E+00 0.  1.
         22   -1    0    0    0    0 -0.00000000000E+00 -0.00000000000E+00 -0.56804886712E+03  0.56804886712E+03  0.00000000000E+00 0.  1.
        -24    2    1    2    0    0 -0.18068100081E+02 -0.89352392856E+02 -0.47927826003E+03  0.49500362192E+03  0.83729497945E+02 0.  0.
         25    2    1    2    0    0  0.10602606668E+03  0.62283608262E+02  0.27346891606E+02  0.17753769360E+03  0.12510397873E+03 0.  0.
         24    2    1    2    0    0 -0.87957966601E+02  0.27068784594E+02  0.62475627076E+03  0.63638132105E+03  0.78685862421E+02 0.  0.
        -11    1    5    5    0    0 -0.92290207648E+02  0.19991569824E+02  0.61928231035E+03  0.62644052008E+03  0.00000000000E+00 0.  1.
         12    1    5    5    0    0  0.43322410469E+01  0.70772147696E+01  0.54739604144E+01  0.99408009738E+01  0.00000000000E+00 0. -1.
         11    1    3    3    0    0  0.15425381512E+02 -0.36906847701E+01 -0.20706191962E+03  0.20766849088E+03  0.00000000000E+00 0. -1.
        -12    1    3    3    0    0 -0.33493481593E+02 -0.85661708086E+02 -0.27221634041E+03  0.28733513104E+03  0.00000000000E+00 0.  1.
          5    1    4    4  501    0  0.12806970011E+03  0.72692840998E+02  0.35420961671E+02  0.15151968237E+03  0.41800000000E+01 0.  1.
         -5    1    4    4    0  501 -0.22043633432E+02 -0.10409232736E+02 -0.80740700652E+01  0.26018011232E+02  0.41800000000E+01 0.  1.
</event>
<event>
11    1  0.8479398E-009  0.1385870E+03  0.7561462E-02  0.1109147E+00
         22   -1    0    0    0    0  0.00000000000E+00  0.00000000000E+00  0.10058644577E+04  0.10058644577E+04  0.00000000000E+00 0. -1.
         22   -1    0    0    0    0 -0.00000000000E+00 -0.00000000000E+00 -0.19555922809E+03  0.19555922809E+03  0.00000000000E+00 0. -1.
        -24    2    1    2    0    0 -0.74060110352E+02  0.64348494969E+02 -0.21813699162E+02  0.12438874474E+03  0.73287745208E+02 0.  0.
         25    2    1    2    0    0  0.97048539641E+01 -0.35785367528E+02 -0.83712670038E+02  0.15501602492E+03  0.12508948852E+03 0.  0.
         24    2    1    2    0    0  0.64355256388E+02 -0.28563127442E+02  0.91583159884E+03  0.92201891615E+03  0.80086909169E+02 0.  0.
        -11    1    5    5    0    0  0.39500601190E+02  0.25084063717E+02  0.35221496431E+03  0.35530956760E+03  0.00000000000E+00 0.  1.
         12    1    5    5    0    0  0.24854655198E+02 -0.53647191159E+02  0.56361663454E+03  0.56670934855E+03  0.00000000000E+00 0. -1.
         13    1    3    3    0    0 -0.38392759424E+02  0.74649752875E+02 -0.23669755636E+02  0.87217239766E+02  0.00000000000E+00 0. -1.
        -14    1    3    3    0    0 -0.35667350928E+02 -0.10301257906E+02  0.18560564745E+01  0.37171504978E+02  0.00000000000E+00 0.  1.
          5    1    4    4  501    0  0.96931865619E+01  0.29415916629E+02  0.16534857526E+02  0.35357148219E+02  0.41800000000E+01 0.  1.
         -5    1    4    4    0  501  0.11667402232E-01 -0.65201284156E+02 -0.10024752756E+03  0.11965887671E+03  0.41800000000E+01 0.  1.
</event>
<event>
11    1  0.8479398E-009  0.1530270E+03  0.7561462E-02  0.1093825E+00
         22   -1    0    0    0    0  0.00000000000E+00  0.00000000000E+00  0.22126553404E+03  0.22126553404E+03  0.00000000000E+00 0. -1.
         22   -1    0    0    0    0 -0.00000000000E+00 -0.00000000000E+00 -0.31504093952E+03  0.31504093952E+03  0.00000000000E+00 0.  1.
         24    2    1    2    0    0  0.63573593394E+02  0.92123614426E+02 -0.17891717412E+03  0.22603076097E+03  0.80933229260E+02 0.  0.
         25    2    1    2    0    0 -0.58814416986E+02  0.12646659251E+02 -0.21304999572E+02  0.14043043684E+03  0.12509089075E+03 0.  0.
        -24    2    1    2    0    0 -0.47591764085E+01 -0.10477027368E+03  0.10644676821E+03  0.16984527575E+03  0.80728205895E+02 0.  0.
        -13    1    3    3    0    0  0.26138802253E+02  0.54084126570E+02 -0.15742421002E+03  0.16849543504E+03  0.00000000000E+00 0.  1.
         14    1    3    3    0    0  0.37434791141E+02  0.38039487856E+02 -0.21492964104E+02  0.57535325932E+02  0.00000000000E+00 0. -1.
         13    1    5    5    0    0  0.15212957002E+01 -0.11780416778E+03  0.93063705404E+02  0.15013656967E+03  0.00000000000E+00 0. -1.
        -14    1    5    5    0    0 -0.62804721087E+01  0.13033894108E+02  0.13383062803E+02  0.19708706084E+02  0.00000000000E+00 0.  1.
          5    1    4    4  501    0  0.26013042521E+01  0.10920237243E+02 -0.64247370118E+02  0.65354535668E+02  0.41800000000E+01 0. -1.
         -5    1    4    4    0  501 -0.61415721238E+02  0.17264220079E+01  0.42942370546E+02  0.75075901168E+02  0.41800000000E+01 0. -1.
</event>
<event>
11    1  0.8479398E-009  0.1438020E+03  0.7561462E-02  0.1103386E+00
         22   -1    0    0    0    0  0.00000000000E+00  0.00000000000E+00  0.31688963969E+03  0.31688963969E+03  0.00000000000E+00 0.  1.
         22   -1    0    0    0    0 -0.00000000000E+00 -0.00000000000E+00 -0.44423728021E+03  0.44423728021E+03  0.00000000000E+00 0.  1.
         24    2    1    2    0    0 -0.12186854840E+02  0.66317808441E+02 -0.35825401650E+03  0.37375733359E+03  0.82474437998E+02 0.  0.
         25    2    1    2    0    0  0.12215402467E+02 -0.12791728456E+03  0.60864224184E+02  0.18936555878E+03  0.12507123298E+03 0.  0.
        -24    2    1    2    0    0 -0.28547627326E-01  0.61599476120E+02  0.17004215179E+03  0.19800402754E+03  0.80602513984E+02 0.  0.
        -11    1    3    3    0    0 -0.36331892758E+02  0.61877135862E+02 -0.17926502510E+03  0.19309255708E+03  0.00000000000E+00 0.  1.
         12    1    3    3    0    0  0.24145037918E+02  0.44406725791E+01 -0.17898899140E+03  0.18066477651E+03  0.00000000000E+00 0. -1.
         13    1    5    5    0    0  0.13941874601E+02 -0.11434059960E+02  0.80204147534E+01  0.19734250616E+02  0.00000000000E+00 0. -1.
        -14    1    5    5    0    0 -0.13970422228E+02  0.73033536080E+02  0.16202173704E+03  0.17826977692E+03  0.00000000000E+00 0.  1.
          5    1    4    4  501    0 -0.19870327202E+02 -0.25062157130E+02 -0.33191696480E+02  0.46282855771E+02  0.41800000000E+01 0.  1.
         -5    1    4    4    0  501  0.32085729669E+02 -0.10285512743E+03  0.94055920664E+02  0.14308270300E+03  0.41800000000E+01 0.  1.
</event>
<event>
11    1  0.8479398E-009  0.1309541E+03  0.7561462E-02  0.1118102E+00
         22   -1    0    0    0    0  0.00000000000E+00  0.00000000000E+00  0.14390375038E+04  0.14390375038E+04  0.00000000000E+00 0.  1.
         22   -1    0    0    0    0 -0.00000000000E+00 -0.00000000000E+00 -0.85754710624E+03  0.85754710624E+03  0.00000000000E+00 0.  1.
         24    2    1    2    0    0 -0.35559413098E+02 -0.51290113512E+01 -0.80639374257E+03  0.81124401854E+03  0.80964257164E+02 0.  0.
         25    2    1    2    0    0  0.43113983226E+02  0.42666187785E+02  0.55903570744E+02  0.14984090715E+03  0.12509144296E+03 0.  0.
        -24    2    1    2    0    0 -0.75545701285E+01 -0.37537176434E+02  0.13319805694E+04  0.13354996843E+04  0.89000328997E+02 0.  0.
        -13    1    3    3    0    0  0.29331910172E+01 -0.50065302670E+01 -0.65524923693E+03  0.65527492814E+03  0.00000000000E+00 0.  1.
         14    1    3    3    0    0 -0.38492604115E+02 -0.12248108427E+00 -0.15114450564E+03  0.15596909039E+03  0.00000000000E+00 0. -1.
         13    1    5    5    0    0 -0.28706842934E+02 -0.12439212255E+02  0.15839604788E+03  0.16145626286E+03  0.00000000000E+00 0. -1.
        -14    1    5    5    0    0  0.21152272805E+02 -0.25097964178E+02  0.11735845215E+04  0.11740434215E+04  0.00000000000E+00 0.  1.
          5    1    4    4  501    0  0.46753640644E+02 -0.52848812904E+01  0.82249531988E+02  0.94848778569E+02  0.41800000000E+01 0. -1.
         -5    1    4    4    0  501 -0.36396574179E+01  0.47951069075E+02 -0.26345961244E+02  0.54992128577E+02  0.41800000000E+01 0. -1.
</event>
<event>
11    1  0.8479398E-009  0.1558064E+03  0.7561462E-02  0.1091089E+00
         22   -1    0    0    0    0  0.00000000000E+00  0.00000000000E+00  0.28930650837E+03  0.28930650837E+03  0.00000000000E+00 0. -1.
         22   -1    0    0    0    0 -0.00000000000E+00 -0.00000000000E+00 -0.28343902785E+03  0.28343902785E+03  0.00000000000E+00 0.  1.
        -24    2    1    2    0    0  0.29357744889E+02  0.19965108306E+02 -0.19807084212E+03  0.21661878583E+03  0.80194495702E+02 0.  0.
         25    2    1    2    0    0  0.14532419560E+02  0.72099549776E+02  0.46032430626E+02  0.15223735852E+03  0.12509073652E+03 0.  0.
         24    2    1    2    0    0 -0.43890164449E+02 -0.92064658081E+02  0.15790589202E+03  0.20388939187E+03  0.78957998819E+02 0.  0.
        -13    1    5    5    0    0  0.86759796629E+01  0.66348488690E+01  0.39681067366E+02  0.41156784980E+02  0.00000000000E+00 0.  1.
         14    1    5    5    0    0 -0.52566144112E+02 -0.98699506950E+02  0.11822482466E+03  0.16273260689E+03  0.00000000000E+00 0. -1.
         11    1    3    3    0    0 -0.59617386241E+01 -0.25924355271E+02 -0.92022341472E+02  0.95790009154E+02  0.00000000000E+00 0. -1.
        -12    1    3    3    0    0  0.35319483513E+02  0.45889463577E+02 -0.10604850065E+03  0.12082877668E+03  0.00000000000E+00 0.  1.
          5    1    4    4  501    0  0.53028987089E+02  0.43071198705E+02 -0.19131454008E+02  0.71068182487E+02  0.41800000000E+01 0.  1.
         -5    1    4    4    0  501 -0.38496567529E+02  0.29028351071E+02  0.65163884634E+02  0.81169176034E+02  0.41800000000E+01 0.  1.
</event>
<event>
11    1  0.8479398E-009  0.1558013E+03  0.7561462E-02  0.1091094E+00
         22   -1    0    0    0    0  0.00000000000E+00  0.00000000000E+00  0.10761372498E+03  0.10761372498E+03  0.00000000000E+00 0.  1.
         22   -1    0    0    0    0 -0.00000000000E+00 -0.00000000000E+00 -0.57093978701E+03  0.57093978701E+03  0.00000000000E+00 0. -1.
         24    2    1    2    0    0  0.14879754221E+02  0.43722386130E+02 -0.22172667031E+03  0.24002659398E+03  0.79479527907E+02 0.  0.
         25    2    1    2    0    0  0.15130160232E+02 -0.12594754988E+03 -0.26310461871E+03  0.31774776198E+03  0.12509153763E+03 0.  0.
        -24    2    1    2    0    0 -0.30009914452E+02  0.82225163748E+02  0.21505226982E+02  0.12077915604E+03  0.80396251325E+02 0.  0.
        -11    1    3    3    0    0 -0.47566416007E+01  0.16640016197E+02 -0.16086027714E+01  0.17381121403E+02  0.00000000000E+00 0.  1.
         12    1    3    3    0    0  0.19636395821E+02  0.27082369933E+02 -0.22011806753E+03  0.22264547257E+03  0.00000000000E+00 0. -1.
         11    1    5    5    0    0 -0.28288822033E+02 -0.67679515926E+01 -0.49296012621E+00  0.29091332566E+02  0.00000000000E+00 0. -1.
        -12    1    5    5    0    0 -0.17210924192E+01  0.88993115340E+02  0.21998187108E+02  0.91687823472E+02  0.00000000000E+00 0.  1.
          5    1    4    4  501    0  0.19191301276E+02  0.83977104423E+01  0.99509871826E+00  0.21384344900E+02  0.41800000000E+01 0.  1.
         -5    1    4    4    0  501 -0.40611410447E+01 -0.13434526032E+03 -0.26409971743E+03  0.29636341708E+03  0.41800000000E+01 0.  1.
</event>
<event>
11    1  0.8479398E-009  0.1713852E+03  0.7561462E-02  0.1076832E+00
         22   -1    0    0    0    0  0.00000000000E+00  0.00000000000E+00  0.23757468074E+03  0.23757468074E+03  0.00000000000E+00 0.  1.
         22   -1    0    0    0    0 -0.00000000000E+00 -0.00000000000E+00 -0.12541742128E+04  0.12541742128E+04  0.00000000000E+00 0.  1.
         24    2    1    2    0    0 -0.43987673744E+02 -0.97144988493E+02 -0.10445210248E+04  0.10530236272E+04  0.80389824324E+02 0.  0.
         25    2    1    2    0    0 -0.44685762920E+02  0.16576898610E+03 -0.10789228070E+03  0.23825448171E+03  0.12509308399E+03 0.  0.
        -24    2    1    2    0    0  0.88673436664E+02 -0.68623997606E+02  0.13581377340E+03  0.20047078471E+03  0.95764936491E+02 0.  0.
        -11    1    3    3    0    0 -0.17785166113E+01 -0.40369113167E+02 -0.70770934133E+03  0.70886200365E+03  0.00000000000E+00 0.  1.
         12    1    3    3    0    0 -0.42209157133E+02 -0.56775875326E+02 -0.33681168348E+03  0.34416162351E+03  0.00000000000E+00 0. -1.
         11    1    5    5    0    0  0.81803486305E+01 -0.15193052523E+02 -0.13990506563E+02  0.22214437255E+02  0.00000000000E+00 0. -1.
        -12    1    5    5    0    0  0.80493088034E+02 -0.53430945083E+02  0.14980427997E+03  0.17825634746E+03  0.00000000000E+00 0.  1.
          5    1    4    4  501    0  0.11709444185E+02 -0.15502547274E+02 -0.33768837065E-01  0.19872433053E+02  0.41800000000E+01 0.  1.
         -5    1    4    4    0  501 -0.56395207105E+02  0.18127153337E+03 -0.10785851186E+03  0.21838204866E+03  0.41800000000E+01 0.  1.
</event>
<event>
11    1  0.8479398E-009  0.1597333E+03  0.7561462E-02  0.1087328E+00
         22   -1    0    0    0    0  0.00000000000E+00  0.00000000000E+00  0.60857039168E+03  0.60857039168E+03  0.00000000000E+00 0. -1.
         22   -1    0    0    0    0 -0.00000000000E+00 -0.00000000000E+00 -0.11209943927E+04  0.11209943927E+04  0.00000000000E+00 0. -1.
         24    2    1    2    0    0 -0.48720383702E+01 -0.15281299309E+02 -0.10088065864E+04  0.10116526930E+04  0.74116040725E+02 0.  0.
         25    2    1    2    0    0 -0.89652793129E+02 -0.17296136583E+02 -0.45168685895E+02  0.16132090345E+03  0.12508974398E+03 0.  0.
        -24    2    1    2    0    0  0.94524831499E+02  0.32577435892E+02  0.54155127129E+03  0.55659118798E+03  0.80744894575E+02 0.  0.
        -13    1    3    3    0    0  0.11101985451E+02  0.27707240792E+02 -0.36998148853E+03  0.37118357605E+03  0.00000000000E+00 0.  1.
         14    1    3    3    0    0 -0.15974023821E+02 -0.42988540102E+02 -0.63882509790E+03  0.64046911692E+03  0.00000000000E+00 0. -1.
         11    1    5    5    0    0  0.66631566062E+02  0.16931017542E+02  0.49709312534E+03  0.50182467079E+03  0.00000000000E+00 0. -1.
        -12    1    5    5    0    0  0.27893265437E+02  0.15646418350E+02  0.44458145955E+02  0.54766517195E+02  0.00000000000E+00 0.  1.
          5    1    4    4  501    0  0.11726159858E+02  0.26224869451E+02 -0.41765823479E+02  0.50863572561E+02  0.41800000000E+01 0.  1.
         -5    1    4    4    0  501 -0.10137895299E+03 -0.43521006034E+02 -0.34028624165E+01  0.11045733089E+03  0.41800000000E+01 0.  1.
</event>
<event>
11    1  0.8479398E-009  0.1377793E+03  0.7561462E-02  0.1110064E+00
         22   -1    0    0    0    0  0.00000000000E+00  0.00000000000E+00  0.17022755552E+04  0.17022755552E+04  0.00000000000E+00 0. -1.
         22   -1    0    0    0    0 -0.00000000000E+00 -0.00000000000E+00 -0.39493904920E+03  0.39493904920E+03  0.00000000000E+00 0. -1.
        -24    2    1    2    0    0  0.36866195520E+02 -0.71577334343E+01 -0.35655856933E+03  0.36733843381E+03  0.79957251522E+02 0.  0.
         25    2    1    2    0    0 -0.65992159327E+02 -0.42084458288E+02  0.14050935870E+03  0.20375663821E+03  0.12509125073E+03 0.  0.
         24    2    1    2    0    0  0.29125963807E+02  0.49242191723E+02  0.15233857166E+04  0.15261195323E+04  0.71159471043E+02 0.  0.
        -13    1    5    5    0    0  0.18089959854E+02  0.49825687695E+02  0.52432172115E+03  0.52699441465E+03  0.00000000000E+00 0.  1.
         14    1    5    5    0    0  0.11036003953E+02 -0.58349597285E+00  0.99906399543E+03  0.99912511770E+03  0.00000000000E+00 0. -1.
         13    1    3    3    0    0  0.35403806672E+02  0.17425904855E+02 -0.32461098287E+03  0.32700058392E+03  0.00000000000E+00 0. -1.
        -14    1    3    3    0    0  0.14623888483E+01 -0.24583638290E+02 -0.31947586455E+02  0.40337849881E+02  0.00000000000E+00 0.  1.
          5    1    4    4  501    0  0.13731758840E+02 -0.38501303820E+02  0.11134929677E+03  0.11868887853E+03  0.41800000000E+01 0. -1.
         -5    1    4    4    0  501 -0.79723918167E+02 -0.35831544683E+01  0.29160061934E+02  0.85067759673E+02  0.41800000000E+01 0. -1.
</event>
<event>
11    1  0.8479398E-009  0.1419117E+03  0.7561462E-02  0.1105442E+00
         22   -1    0    0    0    0  0.00000000000E+00  0.00000000000E+00  0.86778026677E+03  0.86778026677E+03  0.00000000000E+00 0. -1.
         22   -1    0    0    0    0 -0.00000000000E+00 -0.00000000000E+00 -0.44220562475E+03  0.44220562475E+03  0.00000000000E+00 0.  1.
         24    2    1    2    0    0  0.54149367855E+02 -0.40298720719E+02 -0.41373362117E+03  0.42678717039E+03  0.80097681571E+02 0.  0.
         25    2    1    2    0    0 -0.34916418050E+02  0.36523126465E+02  0.21598781607E+03  0.25465813827E+03  0.12508771194E+03 0.  0.
        -24    2    1    2    0    0 -0.19232949806E+02  0.37755942539E+01  0.62332044713E+03  0.62854058286E+03  0.78426545448E+02 0.  0.
        -11    1    3    3    0    0  0.52531023181E+02 -0.51694956841E+02 -0.40664291270E+03  0.41326787367E+03  0.00000000000E+00 0.  1.
         12    1    3    3    0    0  0.16183446740E+01  0.11396236122E+02 -0.70907084724E+01  0.13519296722E+02  0.00000000000E+00 0. -1.
         13    1    5    5    0    0  0.16710974648E+02 -0.12098788600E+02  0.46356348693E+03  0.46402235267E+03  0.00000000000E+00 0. -1.
        -14    1    5    5    0    0 -0.35943924454E+02  0.15874382854E+02  0.15975696020E+03  0.16451823020E+03  0.00000000000E+00 0.  1.
          5    1    4    4  501    0 -0.19561413748E+02 -0.15897054401E+02  0.19392302954E+03  0.19559902615E+03  0.41800000000E+01 0.  1.
         -5    1    4    4    0  501 -0.15355004301E+02  0.52420180866E+02  0.22064786538E+02  0.59059112118E+02  0.41800000000E+01 0.  1.
</event>
<event>
11    1  0.8479398E-009  0.1282050E+03  0.7561462E-02  0.1121494E+00
         22   -1    0    0    0    0  0.00000000000E+00  0.00000000000E+00  0.45375265789E+03  0.45375265789E+03  0.00000000000E+00 0.  1.
         22   -1    0    0    0    0 -0.00000000000E+00 -0.00000000000E+00 -0.18056475353E+03  0.18056475353E+03  0.00000000000E+00 0. -1.
         24    2    1    2    0    0  0.46343386132E+02 -0.22537458669E+02 -0.13713110858E+03  0.16607733154E+03  0.78237411968E+02 0.  0.
         25    2    1    2    0    0 -0.12704491981E+02 -0.57925128243E+01  0.18272634408E+03  0.22188144773E+03  0.12508997843E+03 0.  0.
        -24    2    1    2    0    0 -0.33638894151E+02  0.28329971494E+02  0.22759266885E+03  0.24635863215E+03  0.83426555929E+02 0.  0.
        -13    1    3    3    0    0  0.14585782720E+02  0.14781265909E+02 -0.33440097980E+00  0.20768791574E+02  0.00000000000E+00 0.  1.
         14    1    3    3    0    0  0.31757603412E+02 -0.37318724578E+02 -0.13679670760E+03  0.14530853997E+03  0.00000000000E+00 0. -1.
         13    1    5    5    0    0  0.20831358048E+02 -0.51357888330E+01  0.20695650861E+02  0.29809927367E+02  0.00000000000E+00 0. -1.
        -14    1    5    5    0    0 -0.54470252198E+02  0.33465760327E+02  0.20689701799E+03  0.21654870478E+03  0.00000000000E+00 0.  1.
          5    1    4    4  501    0 -0.12865957204E+02 -0.59150955823E+02  0.49505302768E+02  0.78311019861E+02  0.41800000000E+01 0.  1.
         -5    1    4    4    0  501  0.16146522279E+00  0.53358442998E+02  0.13322104131E+03  0.14357042787E+03  0.41800000000E+01 0.  1.
</event>
<event>
11    1  0.8479398E-009  0.1542054E+03  0.7561462E-02  0.1092658E+00
         22   -1    0    0    0    0  0.00000000000E+00  0.00000000000E+00  0.21132690395E+03  0.21132690395E+03  0.00000000000E+00 0. -1.
         22   -1    0    0    0    0 -0.00000000000E+00 -0.00000000000E+00 -0.19813022681E+03  0.19813022681E+03  0.00000000000E+00 0. -1.
        -24    2    1    2    0    0  0.90563628048E+02 -0.14360807526E+01 -0.20004878487E+02  0.12211319436E+03  0.79420425714E+02 0.  0.
         25    2    1    2    0    0 -0.87083936965E+02 -0.32877974787E+02 -0.52602902314E+02  0.16457251291E+03  0.12510984522E+03 0.  0.
         24    2    1    2    0    0 -0.34796910832E+01  0.34314055540E+02  0.85804457944E+02  0.12277142349E+03  0.80751809669E+02 0.  0.
        -11    1    5    5    0    0 -0.38721240024E+02  0.33338539106E+02  0.61470539261E+02  0.79933846497E+02  0.00000000000E+00 0.  1.
         12    1    5    5    0    0  0.35241548941E+02  0.97551643360E+00  0.24333918683E+02  0.42837576992E+02  0.00000000000E+00 0. -1.
         11    1    3    3    0    0  0.21078074160E+02 -0.31662219574E+02 -0.26042997373E+02  0.46097929138E+02  0.00000000000E+00 0. -1.
        -12    1    3    3    0    0  0.69485553888E+02  0.30226138822E+02  0.60381188862E+01  0.76015265222E+02  0.00000000000E+00 0.  1.
          5    1    4    4  501    0 -0.10990775589E+03 -0.29256157337E+02 -0.79113586322E+01  0.11408636878E+03  0.41800000000E+01 0. -1.
         -5    1    4    4    0  501  0.22823818925E+02 -0.36218174508E+01 -0.44691543682E+02  0.50486144125E+02  0.41800000000E+01 0. -1.
</event>
<event>
11    1  0.8479398E-009  0.2424489E+03  0.7561462E-02  0.1028000E+00
         22   -1    0    0    0    0  0.00000000000E+00  0.00000000000E+00  0.13728510616E+04  0.13728510616E+04  0.00000000000E+00 0.  1.
         22   -1    0    0    0    0 -0.00000000000E+00 -0.00000000000E+00 -0.20828696847E+03  0.20828696847E+03  0.00000000000E+00 0.  1.
        -24    2    1    2    0    0 -0.34231644003E+02 -0.18829454920E+02 -0.95159294824E+02  0.13069208059E+03  0.80614978229E+02 0.  0.
         25    2    1    2    0    0 -0.17023982024E+03  0.70225170564E+02  0.61284674885E+02  0.23090359823E+03  0.12508992494E+03 0.  0.
         24    2    1    2    0    0  0.20447146425E+03 -0.51395715644E+02  0.11984387131E+04  0.12195423512E+04  0.81105475941E+02 0.  0.
        -13    1    5    5    0    0  0.18338327708E+03 -0.16022408180E+02  0.10124716993E+04  0.10290700101E+04  0.00000000000E+00 0.  1.
         14    1    5    5    0    0  0.21088187169E+02 -0.35373307464E+02  0.18596701377E+03  0.19047234112E+03  0.00000000000E+00 0. -1.
         11    1    3    3    0    0 -0.38557966103E+02  0.11994472911E+02 -0.12350995809E+02  0.42227138523E+02  0.00000000000E+00 0. -1.
        -12    1    3    3    0    0  0.43263221000E+01 -0.30823927831E+02 -0.82808299015E+02  0.88464942071E+02  0.00000000000E+00 0.  1.
          5    1    4    4  501    0 -0.69154424978E+02  0.88931748815E+02  0.32536309473E+01  0.11277964779E+03  0.41800000000E+01 0.  1.
         -5    1    4    4    0  501 -0.10108539527E+03 -0.18706578251E+02  0.58031043938E+02  0.11812395044E+03  0.41800000000E+01 0.  1.
</event>
<event>
11    1  0.8479398E-009  0.3088028E+03  0.7561462E-02  0.9965330E-01
         22   -1    0    0    0    0  0.00000000000E+00  0.00000000000E+00  0.12055342686E+04  0.12055342686E+04  0.00000000000E+00 0. -1.
         22   -1    0    0    0    0 -0.00000000000E+00 -0.00000000000E+00 -0.94710786079E+03  0.94710786079E+03  0.00000000000E+00 0. -1.
         24    2    1    2    0    0  0.22028904467E+03 -0.18732031971E+03 -0.84469399864E+03  0.89612741805E+03  0.76943048196E+02 0.  0.
         25    2    1    2    0    0 -0.15637519954E+03  0.16031860240E+03  0.14935283420E+03  0.29683186071E+03  0.12509047581E+03 0.  0.
        -24    2    1    2    0    0 -0.63913845128E+02  0.27001717311E+02  0.95376757223E+03  0.95968285061E+03  0.80650601944E+02 0.  0.
        -11    1    3    3    0    0  0.10712505584E+02 -0.38551232249E+02 -0.15568842870E+03  0.16074775929E+03  0.00000000000E+00 0.  1.
         12    1    3    3    0    0  0.20957653908E+03 -0.14876908746E+03 -0.68900556994E+03  0.73537965877E+03  0.00000000000E+00 0. -1.
         13    1    5    5    0    0 -0.29572062266E+02 -0.28212174009E+02  0.32408493676E+03  0.32665192463E+03  0.00000000000E+00 0. -1.
        -14    1    5    5    0    0 -0.34341782862E+02  0.55213891320E+02  0.62968263547E+03  0.63303092599E+03  0.00000000000E+00 0.  1.
          5    1    4    4  501    0 -0.51269073518E+02  0.11587221772E+03  0.12894421888E+03  0.18082857274E+03  0.41800000000E+01 0. -1.
         -5    1    4    4    0  501 -0.10510612602E+03  0.44446384684E+02  0.20408615327E+02  0.11600328796E+03  0.41800000000E+01 0. -1.
</event>
<event>
11    1  0.8479398E-009  0.3199240E+03  0.7561462E-02  0.9920946E-01
         22   -1    0    0    0    0  0.00000000000E+00  0.00000000000E+00  0.15267876610E+04  0.15267876610E+04  0.00000000000E+00 0. -1.
         22   -1    0    0    0    0 -0.00000000000E+00 -0.00000000000E+00 -0.23296016634E+04  0.23296016634E+04  0.00000000000E+00 0.  1.
         24    2    1    2    0    0  0.13951213678E+01 -0.26799005412E+02 -0.21389554549E+04  0.21406302205E+04  0.80294270641E+02 0.  0.
         25    2    1    2    0    0  0.28354239818E+03 -0.50301413592E+02 -0.30363249581E+02  0.31543499797E+03  0.12510310646E+03 0.  0.
        -24    2    1    2    0    0 -0.28493751955E+03  0.77100419005E+02  0.13665047020E+04  0.14003241059E+04  0.80241114375E+02 0.  0.
        -11    1    3    3    0    0  0.10826481608E+01 -0.49199615975E+02 -0.18974137457E+04  0.18980518162E+04  0.00000000000E+00 0.  1.
         12    1    3    3    0    0  0.31247320702E+00  0.22400610562E+02 -0.24154170915E+03  0.24257840434E+03  0.00000000000E+00 0. -1.
         13    1    5    5    0    0 -0.20869414110E+03  0.48458958396E+02  0.11315354637E+04  0.11516397096E+04  0.00000000000E+00 0. -1.
        -14    1    5    5    0    0 -0.76243378445E+02  0.28641460609E+02  0.23496923828E+03  0.24868439629E+03  0.00000000000E+00 0.  1.
          5    1    4    4  501    0  0.65126422254E+02  0.32955919064E+02 -0.36194711945E+02  0.81578631085E+02  0.41800000000E+01 0.  1.
         -5    1    4    4    0  501  0.21841597593E+03 -0.83257332656E+02  0.58314623640E+01  0.23385636689E+03  0.41800000000E+01 0.  1.
</event>
<event>
11    1  0.8479398E-009  0.1415308E+03  0.7561462E-02  0.1105861E+00
         22   -1    0    0    0    0  0.00000000000E+00  0.00000000000E+00  0.42362977224E+03  0.42362977224E+03  0.00000000000E+00 0.  1.
         22   -1    0    0    0    0 -0.00000000000E+00 -0.00000000000E+00 -0.11270221809E+03  0.11270221809E+03  0.00000000000E+00 0.  1.
        -24    2    1    2    0    0  0.44249193315E+02 -0.21352813122E+01 -0.41500193145E+02  0.96201485440E+02  0.74631824541E+02 0.  0.
         25    2    1    2    0    0 -0.80613209950E+02 -0.43613043602E+02  0.15649004744E+03  0.22031062351E+03  0.12508816367E+03 0.  0.
         24    2    1    2    0    0  0.36364016634E+02  0.45748324914E+02  0.19593769986E+03  0.21981988139E+03  0.80709027293E+02 0.  0.
        -11    1    5    5    0    0 -0.19526326050E+02 -0.17279227355E+01  0.82091358141E+02  0.84399373265E+02  0.00000000000E+00 0.  1.
         12    1    5    5    0    0  0.55890342685E+02  0.47476247650E+02  0.11384634172E+03  0.13542050812E+03  0.00000000000E+00 0. -1.
         13    1    3    3    0    0  0.23090064099E+02 -0.35330181254E+02 -0.49698807762E+01  0.42497911507E+02  0.00000000000E+00 0. -1.
        -14    1    3    3    0    0  0.21159129216E+02  0.33194899942E+02 -0.36530312369E+02  0.53703573933E+02  0.00000000000E+00 0.  1.
          5    1    4    4  501    0  0.32761016601E+02 -0.29769901951E+01  0.46787208057E+02  0.57346856210E+02  0.41800000000E+01 0. -1.
         -5    1    4    4    0  501 -0.11337422655E+03 -0.40636053407E+02  0.10970283938E+03  0.16296376730E+03  0.41800000000E+01 0. -1.
</event>
<event>
11    1  0.8479398E-009  0.1666511E+03  0.7561462E-02  0.1080983E+00
         22   -1    0    0    0    0  0.00000000000E+00  0.00000000000E+00  0.47766664891E+03  0.47766664891E+03  0.00000000000E+00 0.  1.
         22   -1    0    0    0    0 -0.00000000000E+00 -0.00000000000E+00 -0.17841213893E+04  0.17841213893E+04  0.00000000000E+00 0. -1.
         24    2    1    2    0    0 -0.10230680380E+03 -0.39896502780E+02 -0.16994129111E+04  0.17049890126E+04  0.83215849677E+02 0.  0.
         25    2    1    2    0    0  0.14639194265E+03 -0.34274640515E+02  0.61302236690E+02  0.20496515498E+03  0.12508956263E+03 0.  0.
        -24    2    1    2    0    0 -0.44085138852E+02  0.74171143295E+02  0.33165593402E+03  0.35183387064E+03  0.79665274714E+02 0.  0.
        -11    1    3    3    0    0 -0.39821458302E+02  0.21765809115E+02 -0.38886170500E+03  0.39150086156E+03  0.00000000000E+00 0.  1.
         12    1    3    3    0    0 -0.62485345494E+02 -0.61662311895E+02 -0.13105512061E+04  0.13134881511E+04  0.00000000000E+00 0. -1.
         11    1    5    5    0    0 -0.56418897474E+01  0.68699996465E+02  0.13724456515E+03  0.15358252211E+03  0.00000000000E+00 0. -1.
        -12    1    5    5    0    0 -0.38443249104E+02  0.54711468300E+01  0.19441136887E+03  0.19825134853E+03  0.00000000000E+00 0.  1.
          5    1    4    4  501    0  0.44439557223E+02  0.47231570914E+02  0.20838851409E+02  0.68245334384E+02  0.41800000000E+01 0.  1.
         -5    1    4    4    0  501  0.10195238542E+03 -0.81506211429E+02  0.40463385281E+02  0.13671982060E+03  0.41800000000E+01 0.  1.
</event>
<event>
11    1  0.8479398E-009  0.1364780E+03  0.7561462E-02  0.1111556E+00
         22   -1    0    0    0    0  0.00000000000E+00  0.00000000000E+00  0.64403660727E+03  0.64403660727E+03  0.00000000000E+00 0.  1.
         22   -1    0    0    0    0 -0.00000000000E+00 -0.00000000000E+00 -0.27838917737E+03  0.27838917737E+03  0.00000000000E+00 0.  1.
        -24    2    1    2    0    0 -0.18066487078E+02  0.56684664560E+02 -0.20242940215E+03  0.22627385686E+03  0.81747454351E+02 0.  0.
         25    2    1    2    0    0  0.35448141579E+02 -0.14339490150E+02  0.10637091800E+02  0.13122152922E+03  0.12507497867E+03 0.  0.
         24    2    1    2    0    0 -0.17381654502E+02 -0.42345174410E+02  0.55743974025E+03  0.56493039856E+03  0.79448445576E+02 0.  0.
        -11    1    5    5    0    0 -0.29234606492E+02 -0.61178093237E+02  0.36863706515E+03  0.37482090005E+03  0.00000000000E+00 0.  1.
         12    1    5    5    0    0  0.11852951990E+02  0.18832918828E+02  0.18880267510E+03  0.19010949852E+03  0.00000000000E+00 0. -1.
         13    1    3    3    0    0  0.13883280213E+02  0.66286873386E+02 -0.13762963415E+03  0.15339038839E+03  0.00000000000E+00 0. -1.
        -14    1    3    3    0    0 -0.31949767291E+02 -0.96022088268E+01 -0.64799767997E+02  0.72883468473E+02  0.00000000000E+00 0.  1.
          5    1    4    4  501    0  0.58302632483E+01  0.49513782907E+02 -0.20592953441E+02  0.54103131136E+02  0.41800000000E+01 0.  1.
         -5    1    4    4    0  501  0.29617878331E+02 -0.63853273057E+02  0.31230045242E+02  0.77118398082E+02  0.41800000000E+01 0.  1.
</event>
<event>
11    1  0.8479398E-009  0.1314476E+03  0.7561462E-02  0.1117503E+00
         22   -1    0    0    0    0  0.00000000000E+00  0.00000000000E+00  0.66019010974E+03  0.66019010974E+03  0.00000000000E+00 0. -1.
         22   -1    0    0    0    0 -0.00000000000E+00 -0.00000000000E+00 -0.84950682725E+03  0.84950682725E+03  0.00000000000E+00 0.  1.
        -24    2    1    2    0    0  0.10860494682E+02  0.12255607073E+02 -0.80127563638E+03  0.80544081398E+03  0.80150540389E+02 0.  0.
         25    2    1    2    0    0 -0.81537747357E+00  0.27993819535E+02  0.53649995782E+02  0.13895988352E+03  0.12508880209E+03 0.  0.
         24    2    1    2    0    0 -0.10045117209E+02 -0.40249426608E+02  0.55830892309E+03  0.56529623948E+03  0.78294725562E+02 0.  0.
        -11    1    5    5    0    0 -0.11173586151E+02 -0.15246819857E+02  0.24711914830E+02  0.31112590342E+02  0.00000000000E+00 0.  1.
         12    1    5    5    0    0  0.11284689424E+01 -0.25002606751E+02  0.53359700826E+03  0.53418364914E+03  0.00000000000E+00 0. -1.
         11    1    3    3    0    0 -0.15739450672E+02 -0.28545299207E+02 -0.27850233756E+03  0.28040348864E+03  0.00000000000E+00 0. -1.
        -12    1    3    3    0    0  0.26599945354E+02  0.40800906280E+02 -0.52277329882E+03  0.52503732534E+03  0.00000000000E+00 0.  1.
          5    1    4    4  501    0  0.44388608823E+02 -0.23849785835E+02 -0.16714834502E+01  0.50590781122E+02  0.41800000000E+01 0.  1.
         -5    1    4    4    0  501 -0.45203986297E+02  0.51843605370E+02  0.55321479232E+02  0.88369102402E+02  0.41800000000E+01 0.  1.
</event>
<event>
11    1  0.8479398E-009  0.1449384E+03  0.7561462E-02  0.1102166E+00
         22   -1    0    0    0    0  0.00000000000E+00  0.00000000000E+00  0.10497630511E+04  0.10497630511E+04  0.00000000000E+00 0. -1.
         22   -1    0    0    0    0 -0.00000000000E+00 -0.00000000000E+00 -0.19328548100E+03  0.19328548100E+03  0.00000000000E+00 0. -1.
         24    2    1    2    0    0  0.43404744866E+02  0.37882207836E+02 -0.93745555065E+02  0.13643745604E+03  0.80671660258E+02 0.  0.
         25    2    1    2    0    0 -0.71927320586E+02 -0.10310007039E+03  0.29501524284E+02  0.17977375296E+03  0.12508036759E+03 0.  0.
        -24    2    1    2    0    0  0.28522575720E+02  0.65217862558E+02  0.92072160091E+03  0.92683732313E+03  0.78944602318E+02 0.  0.
        -13    1    3    3    0    0 -0.24771462027E+01 -0.22121545382E+02 -0.31433878911E+02  0.38517369676E+02  0.00000000000E+00 0.  1.
         14    1    3    3    0    0  0.45881891069E+02  0.60003753218E+02 -0.62311676154E+02  0.97920086364E+02  0.00000000000E+00 0. -1.
         11    1    5    5    0    0  0.35063596811E+02  0.53860352742E+02  0.90017578871E+03  0.90246708749E+03  0.00000000000E+00 0. -1.
        -12    1    5    5    0    0 -0.65410210906E+01  0.11357509816E+02  0.20545812201E+02  0.24370235640E+02  0.00000000000E+00 0.  1.
          5    1    4    4  501    0 -0.51773493733E+02  0.45847158871E+01  0.45217401170E+02  0.69018838310E+02  0.41800000000E+01 0.  1.
         -5    1    4    4    0  501 -0.20153826854E+02 -0.10768478628E+03 -0.15715876887E+02  0.11075491465E+03  0.41800000000E+01 0.  1.
</event>
<event>
11    1  0.8479398E-009  0.2527671E+03  0.7561462E-02  0.1022435E+00
         22   -1    0    0    0    0  0.00000000000E+00  0.00000000000E+00  0.18655234226E+04  0.18655234226E+04  0.00000000000E+00 0.  1.
         22   -1    0    0    0    0 -0.00000000000E+00 -0.00000000000E+00 -0.91046040648E+03  0.91046040648E+03  0.00000000000E+00 0. -1.
         24    2    1    2    0    0  0.59534078359E+02 -0.21128694700E+03 -0.85132163849E+03  0.88274771850E+03  0.79426204105E+02 0.  0.
         25    2    1    2    0    0 -0.84316110725E+02  0.20773128110E+03  0.34739990256E+03  0.43196742206E+03  0.12509064613E+03 0.  0.
        -24    2    1    2    0    0  0.24782032366E+02  0.35556658970E+01  0.14589847521E+04  0.14612686885E+04  0.77735972576E+02 0.  0.
        -11    1    3    3    0    0  0.10399321260E+02 -0.16680743430E+03 -0.61625501877E+03  0.63851633822E+03  0.00000000000E+00 0.  1.
         12    1    3    3    0    0  0.49134757100E+02 -0.44479512704E+02 -0.23506661972E+03  0.24423138028E+03  0.00000000000E+00 0. -1.
         13    1    5    5    0    0 -0.61033019359E+01 -0.17608918794E+02  0.97268399292E+02  0.99037698966E+02  0.00000000000E+00 0. -1.
        -14    1    5    5    0    0  0.30885334301E+02  0.21164584691E+02  0.13617163528E+04  0.13622309896E+04  0.00000000000E+00 0.  1.
          5    1    4    4  501    0 -0.11654404549E+03  0.17566806450E+03  0.29224389171E+03  0.36036890552E+03  0.41800000000E+01 0. -1.
         -5    1    4    4    0  501  0.32227934765E+02  0.32063216608E+02  0.55156010846E+02  0.71598516541E+02  0.41800000000E+01 0. -1.
</event>
<event>
11    1  0.8479398E-009  0.1487048E+03  0.7561462E-02  0.1098210E+00
         22   -1    0    0    0    0  0.00000000000E+00  0.00000000000E+00  0.98674987311E+03  0.98674987311E+03  0.00000000000E+00 0.  1.
         22   -1    0    0    0    0 -0.00000000000E+00 -0.00000000000E+00 -0.40693540778E+03  0.40693540778E+03  0.00000000000E+00 0.  1.
         24    2    1    2    0    0  0.87205054966E+02 -0.13871516985E+02 -0.33403894782E+03  0.35505087114E+03  0.81743267866E+02 0.  0.
         25    2    1    2    0    0 -0.23564543492E+02  0.24052681249E+02  0.11099859516E+02  0.13001960961E+03  0.12509225722E+03 0.  0.
        -24    2    1    2    0    0 -0.63640511475E+02 -0.10181164264E+02  0.90275355363E+03  0.90861480014E+03  0.80393442715E+02 0.  0.
        -13    1    3    3    0    0  0.67712896961E+02  0.26061065095E+02 -0.24534236017E+03  0.25584583096E+03  0.00000000000E+00 0.  1.
         14    1    3    3    0    0  0.19492158006E+02 -0.39932582080E+02 -0.88696587653E+02  0.99205040177E+02  0.00000000000E+00 0. -1.
         13    1    5    5    0    0  0.11269122756E+02 -0.21459311664E+02  0.13741521032E+03  0.13953650136E+03  0.00000000000E+00 0. -1.
        -14    1    5    5    0    0 -0.74909634231E+02  0.11278147399E+02  0.76533834332E+03  0.76907829878E+03  0.00000000000E+00 0.  1.
          5    1    4    4  501    0 -0.42816586435E+02 -0.16264438321E+02 -0.40750551007E+02  0.61448123122E+02  0.41800000000E+01 0. -1.
         -5    1    4    4    0  501  0.19252042943E+02  0.40317119570E+02  0.51850410523E+02  0.68571486489E+02  0.41800000000E+01 0. -1.
</event>
<event>
11    1  0.8479398E-009  0.1815048E+03  0.7561462E-02  0.1068432E+00
         22   -1    0    0    0    0  0.00000000000E+00  0.00000000000E+00  0.23516442759E+04  0.23516442759E+04  0.00000000000E+00 0. -1.
         22   -1    0    0    0    0 -0.00000000000E+00 -0.00000000000E+00 -0.68452979633E+03  0.68452979633E+03  0.00000000000E+00 0. -1.
         24    2    1    2    0    0  0.56658137307E+02  0.30271570633E+02 -0.57317335491E+03  0.58544726562E+03  0.10047036146E+03 0.  0.
         25    2    1    2    0    0  0.47366712623E+02 -0.11179282540E+03 -0.28497801102E+02  0.17663681639E+03  0.12508876433E+03 0.  0.
        -24    2    1    2    0    0 -0.10402484993E+03  0.81521254764E+02  0.22687856356E+04  0.22740899902E+04  0.81425665738E+02 0.  0.
        -13    1    3    3    0    0  0.85454758216E+02  0.15383446768E+02 -0.41973630166E+03  0.42862306175E+03  0.00000000000E+00 0.  1.
         14    1    3    3    0    0 -0.28796620910E+02  0.14888123865E+02 -0.15343705325E+03  0.15682420387E+03  0.00000000000E+00 0. -1.
         11    1    5    5    0    0 -0.85685398321E+02  0.74598259280E+02  0.21884661620E+04  0.21914130213E+04  0.00000000000E+00 0. -1.
        -12    1    5    5    0    0 -0.18339451608E+02  0.69229954832E+01  0.80319473602E+02  0.82676968930E+02  0.00000000000E+00 0.  1.
          5    1    4    4  501    0  0.57515106759E+02  0.41607149616E+01 -0.78062888099E+01  0.58341319829E+02  0.41800000000E+01 0.  1.
         -5    1    4    4    0  501 -0.10148394136E+02 -0.11595354036E+03 -0.20691512292E+02  0.11829549656E+03  0.41800000000E+01 0.  1.
</event>
<event>
11    1  0.8479398E-009  0.1253056E+03  0.7561462E-02  0.1125175E+00
         22   -1    0    0    0    0  0.00000000000E+00  0.00000000000E+00  0.37272898740E+03  0.37272898740E+03  0.00000000000E+00 0. -1.
         22   -1    0    0    0    0 -0.00000000000E+00 -0.00000000000E+00 -0.37996589237E+03  0.37996589237E+03  0.00000000000E+00 0. -1.
         24    2    1    2    0    0  0.20859741040E+01 -0.54182353842E+01 -0.30576955151E+03  0.31587424264E+03  0.79043089343E+02 0.  0.
         25    2    1    2    0    0  0.48775909178E+01  0.22406915875E+01 -0.23300031275E+01  0.12522722751E+03  0.12509043929E+03 0.  0.
        -24    2    1    2    0    0 -0.69635650218E+01  0.31775437967E+01  0.30086264967E+03  0.31159340963E+03  0.80706449164E+02 0.  0.
        -13    1    3    3    0    0 -0.20061879675E+02 -0.33201607806E+02 -0.10398055639E+03  0.11098099785E+03  0.00000000000E+00 0.  1.
         14    1    3    3    0    0  0.22147853779E+02  0.27783372422E+02 -0.20178899511E+03  0.20489324479E+03  0.00000000000E+00 0. -1.
         13    1    5    5    0    0 -0.27266279693E+02  0.12991683080E+02  0.27744209009E+03  0.27908125553E+03  0.00000000000E+00 0. -1.
        -14    1    5    5    0    0  0.20302714671E+02 -0.98141392834E+01  0.23420559577E+02  0.32512154093E+02  0.00000000000E+00 0.  1.
          5    1    4    4  501    0 -0.16377373963E+02 -0.11239594453E+00  0.58352496104E+02  0.60751273339E+02  0.41800000000E+01 0. -1.
         -5    1    4    4    0  501  0.21254964881E+02  0.23530875321E+01 -0.60682499231E+02  0.64475954169E+02  0.41800000000E+01 0. -1.
</event>
<event>
11    1  0.8479398E-009  0.1620825E+03  0.7561462E-02  0.1085135E+00
         22   -1    0    0    0    0  0.00000000000E+00  0.00000000000E+00  0.42940274357E+02  0.42940274357E+02  0.00000000000E+00 0. -1.
         22   -1    0    0    0    0 -0.00000000000E+00 -0.00000000000E+00 -0.12132887959E+04  0.12132887959E+04  0.00000000000E+00 0.  1.
        -24    2    1    2    0    0 -0.29929115479E+02 -0.26481316523E+02 -0.63382111403E+03  0.64063697491E+03  0.84199269382E+02 0.  0.
         25    2    1    2    0    0  0.84661041286E+01 -0.85033148527E+02 -0.36391750253E+03  0.39418937709E+03  0.12508798940E+03 0.  0.
         24    2    1    2    0    0  0.21463011350E+02  0.11151446505E+03 -0.17260990501E+03  0.22140271829E+03  0.79554054476E+02 0.  0.
        -11    1    5    5    0    0  0.34427162366E+02  0.10294729994E+02 -0.35768952900E+02  0.50701370453E+02  0.00000000000E+00 0.  1.
         12    1    5    5    0    0 -0.12964151016E+02  0.10121973506E+03 -0.13684095211E+03  0.17070134783E+03  0.00000000000E+00 0. -1.
         13    1    3    3    0    0  0.15761898400E+02 -0.40891015317E+02 -0.24665328963E+03  0.25051618284E+03  0.00000000000E+00 0. -1.
        -14    1    3    3    0    0 -0.45691013878E+02  0.14409698794E+02 -0.38716782439E+03  0.39012079208E+03  0.00000000000E+00 0.  1.
          5    1    4    4  501    0 -0.49642065267E+02 -0.52852627915E+02 -0.26640850750E+03  0.27613167183E+03  0.41800000000E+01 0. -1.
         -5    1    4    4    0  501  0.58108169396E+02 -0.32180520613E+02 -0.97508995032E+02  0.11805770525E+03  0.41800000000E+01 0. -1.
</event>
<event>
11    1  0.8479398E-009  0.1317753E+03  0.7561462E-02  0.1117107E+00
         22   -1    0    0    0    0  0.00000000000E+00  0.00000000000E+00  0.65535092328E+03  0.65535092328E+03  0.00000000000E+00 0. -1.
         22   -1    0    0    0    0 -0.00000000000E+00 -0.00000000000E+00 -0.12606588848E+03  0.12606588848E+03  0.00000000000E+00 0. -1.
        -24    2    1    2    0    0 -0.12106773896E+02 -0.40626475660E+01 -0.80483923693E+02  0.11523494104E+03  0.81476073689E+02 0.  0.
         25    2    1    2    0    0  0.12502485806E+02  0.44799694904E+02  0.16334143831E+03  0.21093022656E+03  0.12509120749E+03 0.  0.
         24    2    1    2    0    0 -0.39571190991E+00 -0.40737047338E+02  0.44642752019E+03  0.45525164416E+03  0.79352788984E+02 0.  0.
        -11    1    5    5    0    0  0.10596062455E+02 -0.20163086737E+01  0.48209909283E+01  0.11814567015E+02  0.00000000000E+00 0.  1.
         12    1    5    5    0    0 -0.10991774365E+02 -0.38720738664E+02  0.44160652926E+03  0.44343707715E+03  0.00000000000E+00 0. -1.
         11    1    3    3    0    0 -0.18787679655E+02 -0.43432879502E+01 -0.96222021286E+02  0.98135204883E+02  0.00000000000E+00 0. -1.
        -12    1    3    3    0    0  0.66809057594E+01  0.28064038422E+00  0.15738097592E+02  0.17099736156E+02  0.00000000000E+00 0.  1.
          5    1    4    4  501    0  0.90842963673E+01  0.86143433138E+02  0.81153943023E+02  0.11877142073E+03  0.41800000000E+01 0.  1.
         -5    1    4    4    0  501  0.34181894385E+01 -0.41343738235E+02  0.82187495288E+02  0.92158805830E+02  0.41800000000E+01 0.  1.
</event>
<event>
11    1  0.8479398E-009  0.1428799E+03  0.7561462E-02  0.1104384E+00
         22   -1    0    0    0    0  0.00000000000E+00  0.00000000000E+00  0.93743730001E+03  0.93743730001E+03  0.00000000000E+00 0.  1.
         22   -1    0    0    0    0 -0.00000000000E+00 -0.00000000000E+00 -0.18144202733E+03  0.18144202733E+03  0.00000000000E+00 0.  1.
        -24    2    1    2    0    0  0.19749945533E+02  0.61425124219E+02 -0.98163992663E+02  0.14159454135E+03  0.79055287304E+02 0.  0.
         25    2    1    2    0    0 -0.27967961399E+02 -0.85324043587E+02  0.40365252463E+02  0.15918579866E+03  0.12509342752E+03 0.  0.
         24    2    1    2    0    0  0.82180158657E+01  0.23898919368E+02  0.81379401288E+03  0.81809898733E+03  0.79915977972E+02 0.  0.
        -11    1    5    5    0    0  0.20940001898E+02  0.42855959160E+01  0.74746771597E+03  0.74777325202E+03  0.00000000000E+00 0.  1.
         12    1    5    5    0    0 -0.12721986032E+02  0.19613323452E+02  0.66326296911E+02  0.70325735314E+02  0.00000000000E+00 0. -1.
         11    1    3    3    0    0 -0.22690900336E+02  0.27488009715E+01 -0.46594223017E+01  0.23326874651E+02  0.00000000000E+00 0. -1.
        -12    1    3    3    0    0  0.42440845869E+02  0.58676323247E+02 -0.93504570361E+02  0.11826766670E+03  0.00000000000E+00 0.  1.
          5    1    4    4  501    0  0.34517991879E+02  0.66796759734E+01 -0.10338996495E+02  0.36884645626E+02  0.41800000000E+01 0.  1.
         -5    1    4    4    0  501 -0.62485953278E+02 -0.92003719561E+02  0.50704248957E+02  0.12230115303E+03  0.41800000000E+01 0.  1.
</event>
<event>
11    1  0.8479398E-009  0.1454375E+03  0.7561462E-02  0.1101634E+00
         22   -1    0    0    0    0  0.00000000000E+00  0.00000000000E+00  0.66889112738E+02  0.66889112738E+02  0.00000000000E+00 0. -1.
         22   -1    0    0    0    0 -0.00000000000E+00 -0.00000000000E+00 -0.26308474229E+04  0.26308474229E+04  0.00000000000E+00 0.  1.
         24    2    1    2    0    0 -0.66007629851E+02  0.16516229732E+02 -0.16552304071E+04  0.16586422793E+04  0.81711179511E+02 0.  0.
         25    2    1    2    0    0  0.96510197124E+02 -0.20294303743E+02 -0.93136608751E+03  0.94488962790E+03  0.12509013966E+03 0.  0.
        -24    2    1    2    0    0 -0.30502567272E+02  0.37780740104E+01  0.22638184489E+02  0.94204628453E+02  0.86124004619E+02 0.  0.
        -13    1    3    3    0    0 -0.35968030112E+02 -0.83663229759E+01 -0.13964877880E+04  0.13969759613E+04  0.00000000000E+00 0.  1.
         14    1    3    3    0    0 -0.30039599739E+02  0.24882552708E+02 -0.25874261914E+03  0.26166631793E+03  0.00000000000E+00 0. -1.
         13    1    5    5    0    0 -0.45424386596E+02 -0.23645737241E+02 -0.63485416211E+01  0.51602323281E+02  0.00000000000E+00 0. -1.
        -14    1    5    5    0    0  0.14921819323E+02  0.27423811251E+02  0.28986726110E+02  0.42602305173E+02  0.00000000000E+00 0.  1.
          5    1    4    4  501    0  0.76285071799E+02  0.11720729345E+02 -0.86436594682E+03  0.86781492848E+03  0.41800000000E+01 0.  1.
         -5    1    4    4    0  501  0.20225125325E+02 -0.32015033087E+02 -0.67000140690E+02  0.77074699418E+02  0.41800000000E+01 0.  1.
</event>
<event>
11    1  0.8479398E-009  0.1495132E+03  0.7561462E-02  0.1097377E+00
         22   -1    0    0    0    0  0.00000000000E+00  0.00000000000E+00  0.27485976714E+04  0.27485976714E+04  0.00000000000E+00 0.  1.
         22   -1    0    0    0    0 -0.00000000000E+00 -0.00000000000E+00 -0.24333998628E+03  0.24333998628E+03  0.00000000000E+00 0.  1.
        -24    2    1    2    0    0  0.30493284428E+02  0.76078188127E+02 -0.17387690779E+03  0.20767924154E+03  0.78611431746E+02 0.  0.
         25    2    1    2    0    0 -0.78841289468E+01 -0.84126853982E+02  0.57895439395E+02  0.16167300862E+03  0.12508714068E+03 0.  0.
         24    2    1    2    0    0 -0.22609155481E+02  0.80486658548E+01  0.26212391535E+04  0.26225854075E+04  0.80520586459E+02 0.  0.
        -11    1    5    5    0    0 -0.62879464213E+01 -0.30833384725E+02  0.17906676869E+04  0.17909441646E+04  0.00000000000E+00 0.  1.
         12    1    5    5    0    0 -0.16321209060E+02  0.38882050579E+02  0.83057146664E+03  0.83164124292E+03  0.00000000000E+00 0. -1.
         13    1    3    3    0    0  0.29598609617E+02  0.20506347096E+02 -0.14375313143E+02  0.38771608046E+02  0.00000000000E+00 0. -1.
        -14    1    3    3    0    0  0.89467481059E+00  0.55571841031E+02 -0.15950159465E+03  0.16890763350E+03  0.00000000000E+00 0.  1.
          5    1    4    4  501    0 -0.17159457484E+02 -0.11285696467E+03  0.63484943592E+02  0.13068646417E+03  0.41800000000E+01 0. -1.
         -5    1    4    4    0  501  0.92753285368E+01  0.28730110688E+02 -0.55895041968E+01  0.30986544447E+02  0.41800000000E+01 0. -1.
</event>
<event>
11    1  0.8479398E-009  0.1486836E+03  0.7561462E-02  0.1098232E+00
         22   -1    0    0    0    0  0.00000000000E+00  0.00000000000E+00  0.35406527509E+03  0.35406527509E+03  0.00000000000E+00 0.  1.
         22   -1    0    0    0    0 -0.00000000000E+00 -0.00000000000E+00 -0.15911278016E+03  0.15911278016E+03  0.00000000000E+00 0. -1.
         24    2    1    2    0    0  0.38008982289E+02  0.33485784557E+00 -0.86012479772E+02  0.12251741492E+03  0.78533912526E+02 0.  0.
         25    2    1    2    0    0 -0.50713167821E+02 -0.76437639255E+02  0.12893661765E+03  0.20171037771E+03  0.12509151457E+03 0.  0.
        -24    2    1    2    0    0  0.12704185532E+02  0.76102781410E+02  0.15202835706E+03  0.18895026263E+03  0.81465027644E+02 0.  0.
        -11    1    3    3    0    0  0.40984994227E+02 -0.20325511006E+02 -0.14454853658E+02  0.47977483716E+02  0.00000000000E+00 0.  1.
         12    1    3    3    0    0 -0.29760119380E+01  0.20660368852E+02 -0.71557626114E+02  0.74539931199E+02  0.00000000000E+00 0. -1.
         11    1    5    5    0    0  0.31630396719E+02 -0.17610644369E+01  0.50429534461E+02  0.59554355765E+02  0.00000000000E+00 0. -1.
        -12    1    5    5    0    0 -0.18926211187E+02  0.77863845846E+02  0.10159882260E+03  0.12939590686E+03  0.00000000000E+00 0.  1.
          5    1    4    4  501    0  0.16645865924E+02 -0.73821144563E+02  0.29121454963E+02  0.81192227313E+02  0.41800000000E+01 0.  1.
         -5    1    4    4    0  501 -0.67359033745E+02 -0.26164946926E+01  0.99815162689E+02  0.12051815039E+03  0.41800000000E+01 0.  1.
</event>
<event>
11    1  0.9743020E-009  0.1613975E+03  0.7561462E-02  0.1085770E+00
         22   -1    0    0    0    0  0.00000000000E+00  0.00000000000E+00  0.69868664573E+03  0.69868664573E+03  0.00000000000E+00 0. -1.
         22   -1    0    0    0    0 -0.00000000000E+00 -0.00000000000E+00 -0.92400241384E+03  0.92400241384E+03  0.00000000000E+00 0.  1.
        -24    2    1    2    0    0  0.13155041441E+02  0.90855416266E+01 -0.53457031555E+03  0.54083585828E+03  0.80513360048E+02 0.  0.
         25    2    1    2    0    0 -0.94184004087E+02 -0.70596147663E+02 -0.36062341002E+03  0.39943808580E+03  0.12508836014E+03 0.  0.
         24    2    1    2    0    0  0.81028962646E+02  0.61510606036E+02  0.66987795746E+03  0.68241511550E+03  0.81269087211E+02 0.  0.
        -13    1    5    5    0    0 -0.94853793959E+01  0.17641272547E+02  0.42001941481E+02  0.46533321476E+02  0.00000000000E+00 0.  1.
         14    1    5    5    0    0  0.90514342041E+02  0.43869333489E+02  0.62787601597E+03  0.63588179402E+03  0.00000000000E+00 0. -1.
         11    1    3    3    0    0 -0.45803232783E+01  0.21655782733E+01  0.79820494720E+00  0.51289591272E+01  0.00000000000E+00 0. -1.
        -12    1    3    3    0    0  0.17735364719E+02  0.69199633534E+01 -0.53536852050E+03  0.53570689915E+03  0.00000000000E+00 0.  1.
          5    1    4    4  501    0 -0.41394762439E+02 -0.96214456758E+02 -0.16789234420E+03  0.19792943108E+03  0.41800000000E+01 0.  1.
         -5    1    4    4    0  501 -0.52789241648E+02  0.25618309095E+02 -0.19273106582E+03  0.20150865472E+03  0.41800000000E+01 0.  1.
</event>
<event>
11    1  0.8479398E-009  0.2029625E+03  0.7561462E-02  0.1052448E+00
         22   -1    0    0    0    0  0.00000000000E+00  0.00000000000E+00  0.26319739811E+04  0.26319739811E+04  0.00000000000E+00 0. -1.
         22   -1    0    0    0    0 -0.00000000000E+00 -0.00000000000E+00 -0.94429761924E+03  0.94429761924E+03  0.00000000000E+00 0.  1.
         24    2    1    2    0    0  0.61311203614E+02 -0.13764619250E+03 -0.72397013428E+03  0.74394056943E+03  0.81297463154E+02 0.  0.
         25    2    1    2    0    0 -0.13197604519E+03  0.20682463758E+03 -0.11793333042E+03  0.29958312929E+03  0.12509066198E+03 0.  0.
        -24    2    1    2    0    0  0.70664841578E+02 -0.69178445082E+02  0.25295798265E+04  0.25327479016E+04  0.79111675275E+02 0.  0.
        -11    1    3    3    0    0  0.80032785526E+02 -0.99145844147E+02 -0.57451139168E+03  0.58847131140E+03  0.00000000000E+00 0.  1.
         12    1    3    3    0    0 -0.18721581912E+02 -0.38500348356E+02 -0.14945874259E+03  0.15546925802E+03  0.00000000000E+00 0. -1.
         11    1    5    5    0    0  0.14744990214E+02 -0.40860306544E+02  0.17868163359E+04  0.17873442863E+04  0.00000000000E+00 0. -1.
        -12    1    5    5    0    0  0.55919851365E+02 -0.28318138538E+02  0.74276349065E+03  0.74540361536E+03  0.00000000000E+00 0.  1.
          5    1    4    4  501    0  0.57989009511E+01  0.76800989479E+02 -0.69920135336E+02  0.10410723780E+03  0.41800000000E+01 0.  1.
         -5    1    4    4    0  501 -0.13777494614E+03  0.13002364811E+03 -0.48013195083E+02  0.19547589149E+03  0.41800000000E+01 0.  1.
</event>
<event>
11    1  0.8479398E-009  0.1535872E+03  0.7561462E-02  0.1093269E+00
         22   -1    0    0    0    0  0.00000000000E+00  0.00000000000E+00  0.55780051545E+03  0.55780051545E+03  0.00000000000E+00 0. -1.
         22   -1    0    0    0    0 -0.00000000000E+00 -0.00000000000E+00 -0.23708880796E+03  0.23708880796E+03  0.00000000000E+00 0. -1.
         24    2    1    2    0    0  0.11781668048E+02  0.45823918379E+02 -0.16885155581E+03  0.19299765532E+03  0.80613943353E+02 0.  0.
         25    2    1    2    0    0 -0.30958888156E+02  0.47933585835E+02  0.52279754724E+02  0.14708923567E+03  0.12508392818E+03 0.  0.
        -24    2    1    2    0    0  0.19177220108E+02 -0.93757504214E+02  0.43728350858E+03  0.45480243242E+03  0.80437244444E+02 0.  0.
        -11    1    3    3    0    0  0.39334904633E+02  0.14080990410E+02 -0.41495858651E+02  0.58884762873E+02  0.00000000000E+00 0.  1.
         12    1    3    3    0    0 -0.27553236585E+02  0.31742927969E+02 -0.12735569716E+03  0.13411289245E+03  0.00000000000E+00 0. -1.
         13    1    5    5    0    0  0.19139373194E+02 -0.99395180956E+02  0.28546865718E+03  0.30288293421E+03  0.00000000000E+00 0. -1.
        -14    1    5    5    0    0  0.37846914038E-01  0.56376767416E+01  0.15181485140E+03  0.15191949822E+03  0.00000000000E+00 0.  1.
          5    1    4    4  501    0 -0.35901574673E+02  0.56292826366E+02 -0.23250382097E+02  0.70822722567E+02  0.41800000000E+01 0.  1.
         -5    1    4    4    0  501  0.49426865167E+01 -0.83592405302E+01  0.75530136820E+02  0.76266513099E+02  0.41800000000E+01 0.  1.
</event>
<event>
11    1  0.8479398E-009  0.1604543E+03  0.7561462E-02  0.1086651E+00
         22   -1    0    0    0    0  0.00000000000E+00  0.00000000000E+00  0.62059867543E+03  0.62059867543E+03  0.00000000000E+00 0.  1.
         22   -1    0    0    0    0 -0.00000000000E+00 -0.00000000000E+00 -0.23814005033E+03  0.23814005033E+03  0.00000000000E+00 0. -1.
         24    2    1    2    0    0  0.31248100525E+02  0.95673965180E+02 -0.18420901289E+03  0.22486783047E+03  0.80638882385E+02 0.  0.
         25    2    1    2    0    0 -0.42053188342E+01 -0.10213930634E+03  0.19948389869E+03  0.25669335214E+03  0.12509008190E+03 0.  0.
        -24    2    1    2    0    0 -0.27042781691E+02  0.64653411606E+01  0.36718373930E+03  0.37717754314E+03  0.81644889400E+02 0.  0.
        -11    1    3    3    0    0 -0.81866918550E+01 -0.24260055460E+01  0.36606465968E+01  0.92901969809E+01  0.00000000000E+00 0.  1.
         12    1    3    3    0    0  0.39434792380E+02  0.98099970726E+02 -0.18786965949E+03  0.21557763349E+03  0.00000000000E+00 0. -1.
         11    1    5    5    0    0 -0.20324812834E+02 -0.30008731728E+02  0.82792640622E+02  0.90378334449E+02  0.00000000000E+00 0. -1.
        -12    1    5    5    0    0 -0.67179688574E+01  0.36474072888E+02  0.28439109868E+03  0.28679920869E+03  0.00000000000E+00 0.  1.
          5    1    4    4  501    0  0.53132801606E+02 -0.58179766166E+02  0.14852328411E+03  0.16818031430E+03  0.41800000000E+01 0.  1.
         -5    1    4    4    0  501 -0.57338120441E+02 -0.43959540175E+02  0.50960614585E+02  0.88513037836E+02  0.41800000000E+01 0.  1.
</event>
<event>
11    1  0.8479398E-009  0.1556877E+03  0.7561462E-02  0.1091205E+00
         22   -1    0    0    0    0  0.00000000000E+00  0.00000000000E+00  0.31440306455E+03  0.31440306455E+03  0.00000000000E+00 0.  1.
         22   -1    0    0    0    0 -0.00000000000E+00 -0.00000000000E+00 -0.10557361105E+04  0.10557361105E+04  0.00000000000E+00 0. -1.
        -24    2    1    2    0    0  0.42279946017E+01 -0.25837000381E+02 -0.97742840863E+03  0.98073653370E+03  0.76108002254E+02 0.  0.
         25    2    1    2    0    0 -0.92727201940E+02  0.44033085968E+02  0.52410986826E+02  0.17008862317E+03  0.12508389805E+03 0.  0.
         24    2    1    2    0    0  0.88499207339E+02 -0.18196085587E+02  0.18368437585E+03  0.21931401819E+03  0.78711380445E+02 0.  0.
        -11    1    5    5    0    0  0.58649501394E+02 -0.42722879085E+02  0.15516915927E+03  0.17129645764E+03  0.00000000000E+00 0.  1.
         12    1    5    5    0    0  0.29849705945E+02  0.24526793498E+02  0.28515216576E+02  0.48017560545E+02  0.00000000000E+00 0. -1.
         13    1    3    3    0    0  0.90811408821E+00 -0.46337748365E+02 -0.87485793393E+03  0.87608470832E+03  0.00000000000E+00 0. -1.
        -14    1    3    3    0    0  0.33198805135E+01  0.20500747984E+02 -0.10257047469E+03  0.10465182537E+03  0.00000000000E+00 0.  1.
          5    1    4    4  501    0 -0.47351538003E+02 -0.42498360744E+02  0.25348029962E+02  0.68616862651E+02  0.41800000000E+01 0.  1.
         -5    1    4    4    0  501 -0.45375663937E+02  0.86531446712E+02  0.27062956864E+02  0.10147176052E+03  0.41800000000E+01 0.  1.
</event>
<event>
11    1  0.8479398E-009  0.1351235E+03  0.7561462E-02  0.1113129E+00
         22   -1    0    0    0    0  0.00000000000E+00  0.00000000000E+00  0.81241823725E+03  0.81241823725E+03  0.00000000000E+00 0. -1.
         22   -1    0    0    0    0 -0.00000000000E+00 -0.00000000000E+00 -0.39212691014E+04  0.39212691014E+04  0.00000000000E+00 0.  1.
        -24    2    1    2    0    0 -0.16554261208E+02 -0.44746217382E+02 -0.38199510918E+04  0.38211151053E+04  0.81351314181E+02 0.  0.
         25    2    1    2    0    0 -0.94009652043E+01  0.87503596900E+02 -0.36927731689E+02  0.15734171747E+03  0.12508997191E+03 0.  0.
         24    2    1    2    0    0  0.25955226413E+02 -0.42757379517E+02  0.74802795935E+03  0.75523051592E+03  0.91243832256E+02 0.  0.
        -13    1    5    5    0    0 -0.18875606929E+02 -0.28470871325E+02  0.10358477858E+03  0.10907192767E+03  0.00000000000E+00 0.  1.
         14    1    5    5    0    0  0.44830833342E+02 -0.14286508192E+02  0.64444318077E+03  0.64615858825E+03  0.00000000000E+00 0. -1.
         11    1    3    3    0    0  0.71175796039E+01 -0.34879136060E+02 -0.59608132603E+03  0.59714333398E+03  0.00000000000E+00 0. -1.
        -12    1    3    3    0    0 -0.23671840812E+02 -0.98670813225E+01 -0.32238697658E+04  0.32239717713E+04  0.00000000000E+00 0.  1.
          5    1    4    4  501    0  0.22776970202E+02  0.10665032627E+03 -0.46247375334E+02  0.11853005775E+03  0.41800000000E+01 0.  1.
         -5    1    4    4    0  501 -0.32177935406E+02 -0.19146729370E+02  0.93196436449E+01  0.38811659720E+02  0.41800000000E+01 0.  1.
</event>
<event>
11    1  0.8479398E-009  0.1530966E+03  0.7561462E-02  0.1093756E+00
         22   -1    0    0    0    0  0.00000000000E+00  0.00000000000E+00  0.20317289655E+03  0.20317289655E+03  0.00000000000E+00 0.  1.
         22   -1    0    0    0    0 -0.00000000000E+00 -0.00000000000E+00 -0.98715341474E+03  0.98715341474E+03  0.00000000000E+00 0. -1.
        -24    2    1    2    0    0  0.82297557709E+02 -0.34598082709E+02 -0.73446382675E+03  0.74428564434E+03  0.80957348251E+02 0.  0.
         25    2    1    2    0    0 -0.89384084525E+02 -0.58996552385E+00 -0.21162264179E+03  0.26156511859E+03  0.12506920532E+03 0.  0.
         24    2    1    2    0    0  0.70865268158E+01  0.35188048233E+02  0.16210595035E+03  0.18447554836E+03  0.80401935315E+02 0.  0.
        -11    1    5    5    0    0  0.32073654801E+02  0.41740093277E+02  0.63194461577E+02  0.82246548213E+02  0.00000000000E+00 0.  1.
         12    1    5    5    0    0 -0.24987127985E+02 -0.65520450440E+01  0.98911488778E+02  0.10222900015E+03  0.00000000000E+00 0. -1.
         13    1    3    3    0    0  0.50755042922E+02 -0.53628295786E+02 -0.61093328884E+03  0.61537919359E+03  0.00000000000E+00 0. -1.
        -14    1    3    3    0    0  0.31542514787E+02  0.19030213077E+02 -0.12353053791E+03  0.12890645076E+03  0.00000000000E+00 0.  1.
          5    1    4    4  501    0 -0.44692692886E+02 -0.43821739797E+02 -0.18210698274E+03  0.19260894901E+03  0.41800000000E+01 0.  1.
         -5    1    4    4    0  501 -0.44691391639E+02  0.43231774273E+02 -0.29515659046E+02  0.68956169574E+02  0.41800000000E+01 0.  1.
</event>
<event>
11    1  0.8479398E-009  0.2816684E+03  0.7561462E-02  0.1008263E+00
         22   -1    0    0    0    0  0.00000000000E+00  0.00000000000E+00  0.20395525945E+03  0.20395525945E+03  0.00000000000E+00 0.  1.
         22   -1    0    0    0    0 -0.00000000000E+00 -0.00000000000E+00 -0.14443570246E+04  0.14443570246E+04  0.00000000000E+00 0.  1.
        -24    2    1    2    0    0 -0.22237137378E+03 -0.92106532961E+02 -0.94306340578E+03  0.97696353899E+03  0.84596264142E+02 0.  0.
         25    2    1    2    0    0  0.28279641205E+03  0.72286946480E+02 -0.41041086357E+03  0.51892554186E+03  0.12508967883E+03 0.  0.
         24    2    1    2    0    0 -0.60425038272E+02  0.19819586481E+02  0.11307250422E+03  0.15242320318E+03  0.80021499606E+02 0.  0.
        -11    1    5    5    0    0  0.13919855978E+02  0.23287502094E+02  0.38188657718E+02  0.46844890037E+02  0.00000000000E+00 0.  1.
         12    1    5    5    0    0 -0.74344894250E+02 -0.34679156133E+01  0.74883846504E+02  0.10557831315E+03  0.00000000000E+00 0. -1.
         11    1    3    3    0    0 -0.44272643905E+02 -0.38013767796E+02 -0.12438711962E+03  0.13739457438E+03  0.00000000000E+00 0. -1.
        -12    1    3    3    0    0 -0.17809872988E+03 -0.54092765164E+02 -0.81867628616E+03  0.83956896462E+03  0.00000000000E+00 0.  1.
          5    1    4    4  501    0  0.95415198060E+02  0.86618234574E+02 -0.18348129101E+03  0.22425350640E+03  0.41800000000E+01 0.  1.
         -5    1    4    4    0  501  0.18738121399E+03 -0.14331288095E+02 -0.22692957257E+03  0.29467203546E+03  0.41800000000E+01 0.  1.
</event>
<event>
11    1  0.8479398E-009  0.1653905E+03  0.7561462E-02  0.1082114E+00
         22   -1    0    0    0    0  0.00000000000E+00  0.00000000000E+00  0.13635375962E+03  0.13635375962E+03  0.00000000000E+00 0. -1.
         22   -1    0    0    0    0 -0.00000000000E+00 -0.00000000000E+00 -0.10825204003E+04  0.10825204003E+04  0.00000000000E+00 0. -1.
        -24    2    1    2    0    0  0.94252499052E+02 -0.49627905033E+02 -0.65119829322E+03  0.66499170049E+03  0.82512314833E+02 0.  0.
         25    2    1    2    0    0 -0.89703866840E+02  0.69736962051E+02 -0.39695923172E+03  0.43143267852E+03  0.12508995503E+03 0.  0.
         24    2    1    2    0    0 -0.45486322117E+01 -0.20109057018E+02  0.10199088426E+03  0.12244978090E+03  0.64550322545E+02 0.  0.
        -11    1    5    5    0    0  0.12519296748E+02 -0.86603417695E+01 -0.29579417031E+01  0.15507537837E+02  0.00000000000E+00 0.  1.
         12    1    5    5    0    0 -0.17067928960E+02 -0.11448715249E+02  0.10494882597E+03  0.10694224306E+03  0.00000000000E+00 0. -1.
         13    1    3    3    0    0  0.96446316980E+02 -0.53301403262E+02 -0.65145133006E+03  0.66070550708E+03  0.00000000000E+00 0. -1.
        -14    1    3    3    0    0 -0.21938179279E+01  0.36734982290E+01  0.25303684115E+00  0.42861934140E+01  0.00000000000E+00 0.  1.
          5    1    4    4  501    0  0.11859182245E+02 -0.22246357167E+02 -0.28405588268E+02  0.38208512868E+02  0.41800000000E+01 0.  1.
         -5    1    4    4    0  501 -0.10156304908E+03  0.91983319219E+02 -0.36855364345E+03  0.39322416566E+03  0.41800000000E+01 0.  1.
</event>
<event>
11    1  0.8479398E-009  0.4954772E+03  0.7561462E-02  0.9403685E-01
         22   -1    0    0    0    0  0.00000000000E+00  0.00000000000E+00  0.25759975385E+04  0.25759975385E+04  0.00000000000E+00 0.  1.
         22   -1    0    0    0    0 -0.00000000000E+00 -0.00000000000E+00 -0.51404507571E+03  0.51404507571E+03  0.00000000000E+00 0.  1.
         24    2    1    2    0    0 -0.53516440844E+02 -0.44290160211E+02 -0.38740099951E+03  0.40155477385E+03  0.79630862448E+02 0.  0.
         25    2    1    2    0    0 -0.12343805579E+03 -0.41841820284E+03  0.49832581033E+03  0.67400776380E+03  0.12508839410E+03 0.  0.
        -24    2    1    2    0    0  0.17695449664E+03  0.46270836305E+03  0.19510276519E+04  0.20144800765E+04  0.78798203963E+02 0.  0.
        -13    1    3    3    0    0 -0.32373574746E+02 -0.35508502951E+02 -0.36918247974E+03  0.37229639465E+03  0.00000000000E+00 0.  1.
         14    1    3    3    0    0 -0.21142866097E+02 -0.87816572598E+01 -0.18218519766E+02  0.29258379201E+02  0.00000000000E+00 0. -1.
         13    1    5    5    0    0  0.60660673257E+02  0.25620819430E+03  0.10997762408E+04  0.11308537200E+04  0.00000000000E+00 0. -1.
        -14    1    5    5    0    0  0.11629382338E+03  0.20650016875E+03  0.85125141111E+03  0.88362635653E+03  0.00000000000E+00 0.  1.
          5    1    4    4  501    0 -0.49978457438E+01  0.35585650934E+01 -0.30791541302E+01  0.80371287012E+01  0.41800000000E+01 0. -1.
         -5    1    4    4    0  501 -0.11844021005E+03 -0.42197676794E+03  0.50140496446E+03  0.66597063510E+03  0.41800000000E+01 0. -1.
</event>
<event>
11    1  0.8479398E-009  0.1344119E+03  0.7561462E-02  0.1113964E+00
         22   -1    0    0    0    0  0.00000000000E+00  0.00000000000E+00  0.50021651255E+03  0.50021651255E+03  0.00000000000E+00 0. -1.
         22   -1    0    0    0    0 -0.00000000000E+00 -0.00000000000E+00 -0.36810428300E+03  0.36810428300E+03  0.00000000000E+00 0.  1.
        -24    2    1    2    0    0 -0.77445735484E+01 -0.47263199026E+02 -0.32292541848E+03  0.33625730858E+03  0.80587612398E+02 0.  0.
         25    2    1    2    0    0 -0.14709606140E+01  0.84783378049E+02  0.14453083916E+03  0.20910926456E+03  0.12508851322E+03 0.  0.
         24    2    1    2    0    0  0.92155341624E+01 -0.37520179024E+02  0.31050680888E+03  0.32295422240E+03  0.79951619737E+02 0.  0.
        -13    1    5    5    0    0  0.68293852695E+01  0.11831815530E+02  0.68105110834E+01  0.15264842715E+02  0.00000000000E+00 0.  1.
         14    1    5    5    0    0  0.23861488929E+01 -0.49351994554E+02  0.30369629780E+03  0.30768937968E+03  0.00000000000E+00 0. -1.
         11    1    3    3    0    0 -0.24390492320E+02  0.35439221191E+01 -0.31643862741E+02  0.40109718881E+02  0.00000000000E+00 0. -1.
        -12    1    3    3    0    0  0.16645918772E+02 -0.50807121145E+02 -0.29128155574E+03  0.29614758970E+03  0.00000000000E+00 0.  1.
          5    1    4    4  501    0  0.16987009810E+02  0.10728708341E+03  0.70789091287E+02  0.12972141155E+03  0.41800000000E+01 0. -1.
         -5    1    4    4    0  501 -0.18457970424E+02 -0.22503705362E+02  0.73741747870E+02  0.79387853013E+02  0.41800000000E+01 0. -1.
</event>
<event>
11    1  0.8479398E-009  0.1454337E+03  0.7561462E-02  0.1101638E+00
         22   -1    0    0    0    0  0.00000000000E+00  0.00000000000E+00  0.20266662563E+03  0.20266662563E+03  0.00000000000E+00 0.  1.
         22   -1    0    0    0    0 -0.00000000000E+00 -0.00000000000E+00 -0.53045256971E+03  0.53045256971E+03  0.00000000000E+00 0. -1.
        -24    2    1    2    0    0  0.23512618387E+01  0.11839726396E+02 -0.32486554926E+03  0.33499725759E+03  0.80869215028E+02 0.  0.
         25    2    1    2    0    0 -0.65898696332E+02 -0.48743134442E+02 -0.15251755141E+03  0.21360655703E+03  0.12509047281E+03 0.  0.
         24    2    1    2    0    0  0.63547434493E+02  0.36903408046E+02  0.14959715659E+03  0.18451538073E+03  0.79161092137E+02 0.  0.
        -13    1    5    5    0    0  0.59810870256E+02  0.59420093278E+02  0.12668271806E+03  0.15217292381E+03  0.00000000000E+00 0.  1.
         14    1    5    5    0    0  0.37365642371E+01 -0.22516685232E+02  0.22914438533E+02  0.32342456917E+02  0.00000000000E+00 0. -1.
         11    1    3    3    0    0  0.28774276455E+02 -0.17785419130E+02 -0.22504304488E+03  0.22757120241E+03  0.00000000000E+00 0. -1.
        -12    1    3    3    0    0 -0.26423014616E+02  0.29625145525E+02 -0.99822504388E+02  0.10742605518E+03  0.00000000000E+00 0.  1.
          5    1    4    4  501    0  0.17553413045E+02 -0.41099033514E+02 -0.67154907921E+01  0.45385273844E+02  0.41800000000E+01 0. -1.
         -5    1    4    4    0  501 -0.83452109377E+02 -0.76441009278E+01 -0.14580206061E+03  0.16822128319E+03  0.41800000000E+01 0. -1.
</event>
<event>
11    1  0.8479398E-009  0.1536554E+03  0.7561462E-02  0.1093201E+00
         22   -1    0    0    0    0  0.00000000000E+00  0.00000000000E+00  0.23268675553E+04  0.23268675553E+04  0.00000000000E+00 0.  1.
         22   -1    0    0    0    0 -0.00000000000E+00 -0.00000000000E+00 -0.47765069591E+03  0.47765069591E+03  0.00000000000E+00 0.  1.
        -24    2    1    2    0    0  0.10495175998E+02 -0.89250491146E+02 -0.38693396460E+03  0.40573693964E+03  0.82636386308E+02 0.  0.
         25    2    1    2    0    0  0.19372147155E+02  0.86625148282E+02 -0.74936500336E+01  0.15356685109E+03  0.12508967409E+03 0.  0.
         24    2    1    2    0    0 -0.29867323153E+02  0.26253428646E+01  0.22436444740E+04  0.22452144605E+04  0.78412360593E+02 0.  0.
        -11    1    5    5    0    0 -0.19737889516E+02 -0.18384318511E+02  0.20489977549E+04  0.20491752895E+04  0.00000000000E+00 0.  1.
         12    1    5    5    0    0 -0.10129433637E+02  0.21009661376E+02  0.19464671905E+03  0.19603917092E+03  0.00000000000E+00 0. -1.
         11    1    3    3    0    0 -0.26918873493E+02 -0.20140281801E+01 -0.77103431800E+02  0.81692234973E+02  0.00000000000E+00 0. -1.
        -12    1    3    3    0    0  0.37414049491E+02 -0.87236462966E+02 -0.30983053280E+03  0.32404470467E+03  0.00000000000E+00 0.  1.
          5    1    4    4  501    0 -0.43940197821E+02  0.27348408265E+02 -0.34841707543E+02  0.62530739671E+02  0.41800000000E+01 0.  1.
         -5    1    4    4    0  501  0.63312344976E+02  0.59276740016E+02  0.27348057510E+02  0.91036111423E+02  0.41800000000E+01 0.  1.
</event>
<event>
11    1  0.8479398E-009  0.1370528E+03  0.7561462E-02  0.1110895E+00
         22   -1    0    0    0    0  0.00000000000E+00  0.00000000000E+00  0.12666116985E+04  0.12666116985E+04  0.00000000000E+00 0. -1.
         22   -1    0    0    0    0 -0.00000000000E+00 -0.00000000000E+00 -0.14852748584E+03  0.14852748584E+03  0.00000000000E+00 0. -1.
        -24    2    1    2    0    0 -0.28152527702E+02 -0.48276888610E+02 -0.11254775405E+03  0.14862230330E+03  0.79362266268E+02 0.  0.
         25    2    1    2    0    0  0.50299283783E+02  0.37304185905E+02  0.28860096118E+03  0.32071792604E+03  0.12509137881E+03 0.  0.
         24    2    1    2    0    0 -0.22146756081E+02  0.10972702705E+02  0.94203100553E+03  0.94579895501E+03  0.80637267481E+02 0.  0.
        -11    1    5    5    0    0  0.19519189721E+02  0.36192588444E+01  0.70504245352E+02  0.73245794518E+02  0.00000000000E+00 0.  1.
         12    1    5    5    0    0 -0.41665945802E+02  0.73534438604E+01  0.87152676018E+03  0.87255316049E+03  0.00000000000E+00 0. -1.
         13    1    3    3    0    0  0.14285494916E+02 -0.50644790732E+02 -0.76723780469E+02  0.93034986337E+02  0.00000000000E+00 0. -1.
        -14    1    3    3    0    0 -0.42438022618E+02  0.23679021219E+01 -0.35823973577E+02  0.55587316962E+02  0.00000000000E+00 0.  1.
          5    1    4    4  501    0  0.46830905795E+02 -0.37727297138E+02  0.16895532245E+03  0.17938744680E+03  0.41800000000E+01 0.  1.
         -5    1    4    4    0  501  0.34683779878E+01  0.75031483043E+02  0.11964563874E+03  0.14133047924E+03  0.41800000000E+01 0.  1.
</event>
<event>
11    1  0.8479398E-009  0.1474293E+03  0.7561462E-02  0.1099535E+00
         22   -1    0    0    0    0  0.00000000000E+00  0.00000000000E+00  0.79301460008E+02  0.79301460008E+02  0.00000000000E+00 0.  1.
         22   -1    0    0    0    0 -0.00000000000E+00 -0.00000000000E+00 -0.73692521321E+03  0.73692521321E+03  0.00000000000E+00 0. -1.
        -24    2    1    2    0    0  0.80822856947E+02 -0.13415040872E+02 -0.47030458835E+03  0.48516610854E+03  0.86530049842E+02 0.  0.
         25    2    1    2    0    0 -0.65073253348E+02  0.12530164642E+02 -0.20111787744E+03  0.24594191424E+03  0.12508993256E+03 0.  0.
         24    2    1    2    0    0 -0.15749603598E+02  0.88487623079E+00  0.13798712593E+02  0.85118650431E+02  0.82498164601E+02 0.  0.
        -11    1    5    5    0    0 -0.46376749426E+01  0.21274649985E+02  0.42767674542E+02  0.47991590373E+02  0.00000000000E+00 0.  1.
         12    1    5    5    0    0 -0.11111928656E+02 -0.20389773754E+02 -0.28968961948E+02  0.37127060058E+02  0.00000000000E+00 0. -1.
         11    1    3    3    0    0  0.89225897133E+02 -0.34922707605E+02 -0.39092480245E+03  0.40249603402E+03  0.00000000000E+00 0. -1.
        -12    1    3    3    0    0 -0.84030401864E+01  0.21507666733E+02 -0.79379785901E+02  0.82670074527E+02  0.00000000000E+00 0.  1.
          5    1    4    4  501    0  0.17191519309E+02 -0.27663100568E+02 -0.10568798070E+02  0.34495903552E+02  0.41800000000E+01 0. -1.
         -5    1    4    4    0  501 -0.82264772657E+02  0.40193265210E+02 -0.19054907937E+03  0.21144601069E+03  0.41800000000E+01 0. -1.
</event>
<event>
11    1  0.8479398E-009  0.1296628E+03  0.7561462E-02  0.1119684E+00
         22   -1    0    0    0    0  0.00000000000E+00  0.00000000000E+00  0.18583945288E+04  0.18583945288E+04  0.00000000000E+00 0. -1.
         22   -1    0    0    0    0 -0.00000000000E+00 -0.00000000000E+00 -0.44538798243E+03  0.44538798243E+03  0.00000000000E+00 0.  1.
        -24    2    1    2    0    0  0.18193378421E+02 -0.60415658907E+01 -0.41465688460E+03  0.42259810985E+03  0.79254848219E+02 0.  0.
         25    2    1    2    0    0  0.15476961453E+02 -0.32445559129E+01  0.12934940964E+03  0.18063518321E+03  0.12509091158E+03 0.  0.
         24    2    1    2    0    0 -0.33670339874E+02  0.92861218036E+01  0.16983140213E+04  0.17005492182E+04  0.79857401198E+02 0.  0.
        -13    1    5    5    0    0  0.16841258595E+02  0.30491999083E+01  0.10214208367E+03  0.10356607006E+03  0.00000000000E+00 0.  1.
         14    1    5    5    0    0 -0.50511598469E+02  0.62369218953E+01  0.15961719377E+04  0.15969831481E+04  0.00000000000E+00 0. -1.
         13    1    3    3    0    0  0.39580422908E+02 -0.10838052357E+02 -0.11431978203E+03  0.12146228147E+03  0.00000000000E+00 0. -1.
        -14    1    3    3    0    0 -0.21387044488E+02  0.47964864658E+01 -0.30033710257E+03  0.30113582838E+03  0.00000000000E+00 0.  1.
          5    1    4    4  501    0  0.62762593862E+02 -0.25211401655E+02  0.99579767870E+02  0.12045065600E+03  0.41800000000E+01 0.  1.
         -5    1    4    4    0  501 -0.47285632408E+02  0.21966845743E+02  0.29769641767E+02  0.60184527207E+02  0.41800000000E+01 0.  1.
</event>
<event>
11    1  0.8479398E-009  0.1329984E+03  0.7561462E-02  0.1115639E+00
         22   -1    0    0    0    0  0.00000000000E+00  0.00000000000E+00  0.35433275257E+03  0.35433275257E+03  0.00000000000E+00 0. -1.
         22   -1    0    0    0    0 -0.00000000000E+00 -0.00000000000E+00 -0.50411567268E+03  0.50411567268E+03  0.00000000000E+00 0. -1.
         24    2    1    2    0    0  0.27022861277E+02  0.54305768861E+02 -0.16652310877E+03  0.19642453459E+03  0.84695339140E+02 0.  0.
         25    2    1    2    0    0  0.91737692134E+01 -0.35638664700E+02 -0.30296265853E+03  0.32983028747E+03  0.12508946242E+03 0.  0.
        -24    2    1    2    0    0 -0.36196630491E+02 -0.18667104160E+02  0.31970284718E+03  0.33219360319E+03  0.80523429289E+02 0.  0.
        -13    1    3    3    0    0 -0.28862141899E+02  0.34250191352E+02 -0.70140449670E+02  0.83221280467E+02  0.00000000000E+00 0.  1.
         14    1    3    3    0    0  0.55885003177E+02  0.20055577509E+02 -0.96382659101E+02  0.11320325413E+03  0.00000000000E+00 0. -1.
         13    1    5    5    0    0 -0.48878414878E+02  0.16473585510E+02  0.21240032729E+03  0.21857350592E+03  0.00000000000E+00 0. -1.
        -14    1    5    5    0    0  0.12681784387E+02 -0.35140689670E+02  0.10730251990E+03  0.11362009726E+03  0.00000000000E+00 0.  1.
          5    1    4    4  501    0  0.17084872958E+02 -0.30824109235E+02 -0.10247961097E+02  0.36939297513E+02  0.41800000000E+01 0. -1.
         -5    1    4    4    0  501 -0.79111037448E+01 -0.48145554656E+01 -0.29271469743E+03  0.29289098996E+03  0.41800000000E+01 0. -1.
</event>
<event>
11    1  0.8479398E-009  0.1574917E+03  0.7561462E-02  0.1089460E+00
         22   -1    0    0    0    0  0.00000000000E+00  0.00000000000E+00  0.19095677329E+04  0.19095677329E+04  0.00000000000E+00 0.  1.
         22   -1    0    0    0    0 -0.00000000000E+00 -0.00000000000E+00 -0.51456600441E+03  0.51456600441E+03  0.00000000000E+00 0. -1.
         24    2    1    2    0    0 -0.22576190064E+02 -0.48808431528E+02 -0.49661207977E+03  0.50588793207E+03  0.80044329588E+02 0.  0.
         25    2    1    2    0    0 -0.71295191633E+02  0.73498619424E+02  0.62340683109E+03  0.64402540523E+03  0.12509034386E+03 0.  0.
        -24    2    1    2    0    0  0.93871381697E+02 -0.24690187896E+02  0.12682069772E+04  0.12742204000E+04  0.76597971157E+02 0.  0.
        -11    1    3    3    0    0  0.89259560583E+00 -0.15677359964E+02 -0.12484623880E+02  0.20060961487E+02  0.00000000000E+00 0.  1.
         12    1    3    3    0    0 -0.23468785670E+02 -0.33131071564E+02 -0.48412745589E+03  0.48582697059E+03  0.00000000000E+00 0. -1.
         13    1    5    5    0    0 -0.72939456399E+01  0.10947712893E+02  0.25802339164E+03  0.25835851968E+03  0.00000000000E+00 0. -1.
        -14    1    5    5    0    0  0.10116532734E+03 -0.35637900788E+02  0.10101835856E+04  0.10158618804E+04  0.00000000000E+00 0.  1.
          5    1    4    4  501    0 -0.13933555940E+02 -0.29829356806E+02  0.62256141868E+02  0.70549515298E+02  0.41800000000E+01 0. -1.
         -5    1    4    4    0  501 -0.57361635694E+02  0.10332797623E+03  0.56115068922E+03  0.57347588993E+03  0.41800000000E+01 0. -1.
</event>
<event>
11    1  0.8479398E-009  0.1397687E+03  0.7561462E-02  0.1107817E+00
         22   -1    0    0    0    0  0.00000000000E+00  0.00000000000E+00  0.57027021296E+03  0.57027021296E+03  0.00000000000E+00 0.  1.
         22   -1    0    0    0    0 -0.00000000000E+00 -0.00000000000E+00 -0.58862626190E+03  0.58862626190E+03  0.00000000000E+00 0.  1.
        -24    2    1    2    0    0 -0.12183379815E+02 -0.80662804130E+01 -0.49587720647E+03  0.50315649722E+03  0.84016410160E+02 0.  0.
         25    2    1    2    0    0  0.77327639016E+00  0.69015575097E+02 -0.23060555670E+02  0.14471969457E+03  0.12509297825E+03 0.  0.
         24    2    1    2    0    0  0.11410103424E+02 -0.60949294684E+02  0.50058171319E+03  0.51102028308E+03  0.81943097046E+02 0.  0.
        -13    1    5    5    0    0  0.42494904493E+02 -0.54507589801E+02  0.29407075328E+03  0.30208360132E+03  0.00000000000E+00 0.  1.
         14    1    5    5    0    0 -0.31084801069E+02 -0.64417048823E+01  0.20651095991E+03  0.20893668176E+03  0.00000000000E+00 0. -1.
         11    1    3    3    0    0  0.71166911841E+01  0.34608159086E+02 -0.28241149361E+03  0.28461311230E+03  0.00000000000E+00 0. -1.
        -12    1    3    3    0    0 -0.19300070999E+02 -0.42674439499E+02 -0.21346571285E+03  0.21854338492E+03  0.00000000000E+00 0.  1.
          5    1    4    4  501    0 -0.61712045204E+02  0.40249906178E+02 -0.15331042673E+02  0.75372042164E+02  0.41800000000E+01 0. -1.
         -5    1    4    4    0  501  0.62485321594E+02  0.28765668918E+02 -0.77295129975E+01  0.69347652406E+02  0.41800000000E+01 0. -1.
</event>
<event>
11    1  0.8479398E-009  0.1560586E+03  0.7561462E-02  0.1090844E+00
         22   -1    0    0    0    0  0.00000000000E+00  0.00000000000E+00  0.10863647829E+04  0.10863647829E+04  0.00000000000E+00 0. -1.
         22   -1    0    0    0    0 -0.00000000000E+00 -0.00000000000E+00 -0.36943234153E+03  0.36943234153E+03  0.00000000000E+00 0. -1.
        -24    2    1    2    0    0  0.20180404497E+02  0.99125609562E+01 -0.30308175716E+03  0.31441406509E+03  0.80573849447E+02 0.  0.
         25    2    1    2    0    0 -0.52897224921E+02 -0.96201762749E+02  0.64721450054E+02  0.17857854208E+03  0.12509410071E+03 0.  0.
         24    2    1    2    0    0  0.32716820424E+02  0.86289201793E+02  0.95529274849E+03  0.96280451727E+03  0.76759927548E+02 0.  0.
        -13    1    5    5    0    0 -0.46460527919E+01 -0.50949921077E+01  0.88144662043E+01  0.11191048458E+02  0.00000000000E+00 0.  1.
         14    1    5    5    0    0  0.37362873216E+02  0.91384193900E+02  0.94647828229E+03  0.95161346881E+03  0.00000000000E+00 0. -1.
         13    1    3    3    0    0  0.28768046481E+02  0.20091764775E+02 -0.29815724380E+03  0.30021495889E+03  0.00000000000E+00 0. -1.
        -14    1    3    3    0    0 -0.85876419836E+01 -0.10179203818E+02 -0.49245133624E+01  0.14199106207E+02  0.00000000000E+00 0.  1.
          5    1    4    4  501    0  0.99072930638E+01 -0.88421073899E+02  0.15835842337E+01  0.89086592169E+02  0.41800000000E+01 0.  1.
         -5    1    4    4    0  501 -0.62804517985E+02 -0.77806888497E+01  0.63137865821E+02  0.89491949910E+02  0.41800000000E+01 0.  1.
</event>
<event>
11    1  0.8479398E-009  0.3499317E+03  0.7561462E-02  0.9810259E-01
         22   -1    0    0    0    0  0.00000000000E+00  0.00000000000E+00  0.42507018158E+03  0.42507018158E+03  0.00000000000E+00 0. -1.
         22   -1    0    0    0    0 -0.00000000000E+00 -0.00000000000E+00 -0.19084088478E+04  0.19084088478E+04  0.00000000000E+00 0.  1.
        -24    2    1    2    0    0 -0.13792902501E+03  0.14675831366E+02 -0.12063563711E+04  0.12169731020E+04  0.80548376763E+02 0.  0.
         25    2    1    2    0    0  0.19204191713E+01 -0.31678932877E+03 -0.57195075717E+03  0.66568158828E+03  0.12508054012E+03 0.  0.
         24    2    1    2    0    0  0.13600860584E+03  0.30211349741E+03  0.29496846206E+03  0.45082433905E+03  0.80406995285E+02 0.  0.
        -13    1    5    5    0    0  0.60106755905E+02  0.11024021317E+03  0.63392351720E+02  0.14065673451E+03  0.00000000000E+00 0.  1.
         14    1    5    5    0    0  0.75901849934E+02  0.19187328423E+03  0.23157611034E+03  0.31016760454E+03  0.00000000000E+00 0. -1.
         13    1    3    3    0    0 -0.10347602686E+03 -0.24114742499E+02 -0.90067018241E+03  0.90691542407E+03  0.00000000000E+00 0. -1.
        -14    1    3    3    0    0 -0.34452998153E+02  0.38790573866E+02 -0.30568618868E+03  0.31005767794E+03  0.00000000000E+00 0.  1.
          5    1    4    4  501    0 -0.57334878764E+02 -0.19809047547E+03 -0.37886450753E+03  0.43137328644E+03  0.41800000000E+01 0.  1.
         -5    1    4    4    0  501  0.59255297936E+02 -0.11869885330E+03 -0.19308624964E+03  0.23430830184E+03  0.41800000000E+01 0.  1.
</event>
<event>
11    1  0.8479398E-009  0.1456240E+03  0.7561462E-02  0.1101436E+00
         22   -1    0    0    0    0  0.00000000000E+00  0.00000000000E+00  0.78761455403E+03  0.78761455403E+03  0.00000000000E+00 0.  1.
         22   -1    0    0    0    0 -0.00000000000E+00 -0.00000000000E+00 -0.35475673818E+03  0.35475673818E+03  0.00000000000E+00 0. -1.
        -24    2    1    2    0    0  0.66374242215E+02 -0.35728073462E+02 -0.32026451706E+03  0.33879154034E+03  0.80797968162E+02 0.  0.
         25    2    1    2    0    0 -0.46262180908E+02  0.31494359532E+02  0.19011965169E+03  0.23436177765E+03  0.12509147373E+03 0.  0.
         24    2    1    2    0    0 -0.20112061307E+02  0.42337139305E+01  0.56300268122E+03  0.56921797422E+03  0.81330583230E+02 0.  0.
        -13    1    5    5    0    0  0.15033324438E+02  0.45391431138E+01  0.46214593938E+03  0.46241266629E+03  0.00000000000E+00 0.  1.
         14    1    5    5    0    0 -0.35145385745E+02 -0.30542918333E+00  0.10085674184E+03  0.10680530792E+03  0.00000000000E+00 0. -1.
         11    1    3    3    0    0  0.81553305353E+02 -0.15582258181E+02 -0.27116650168E+03  0.28359305354E+03  0.00000000000E+00 0. -1.
        -12    1    3    3    0    0 -0.15179063138E+02 -0.20145815281E+02 -0.49098015378E+02  0.55198486801E+02  0.00000000000E+00 0.  1.
          5    1    4    4  501    0 -0.23463163031E+02 -0.36236504251E+02  0.16222423784E+02  0.46305979022E+02  0.41800000000E+01 0. -1.
         -5    1    4    4    0  501 -0.22799017877E+02  0.67730863783E+02  0.17389722791E+03  0.18805579863E+03  0.41800000000E+01 0. -1.
</event>
<event>
11    1  0.8479398E-009  0.1360846E+03  0.7561462E-02  0.1112011E+00
         22   -1    0    0    0    0  0.00000000000E+00  0.00000000000E+00  0.13082348821E+04  0.13082348821E+04  0.00000000000E+00 0.  1.
         22   -1    0    0    0    0 -0.00000000000E+00 -0.00000000000E+00 -0.92822968022E+03  0.92822968022E+03  0.00000000000E+00 0.  1.
         24    2    1    2    0    0  0.34677020211E+02  0.44613601268E+02 -0.66974086604E+03  0.67696785621E+03  0.80868915819E+02 0.  0.
         25    2    1    2    0    0 -0.51644098030E+02 -0.64989125465E+01 -0.23523287370E+03  0.27146223580E+03  0.12509153397E+03 0.  0.
        -24    2    1    2    0    0  0.16967077819E+02 -0.38114688722E+02  0.12849789416E+04  0.12880344703E+04  0.78238769967E+02 0.  0.
        -11    1    3    3    0    0 -0.85130088128E+01  0.54471360065E+01 -0.43421802286E+03  0.43433562366E+03  0.00000000000E+00 0.  1.
         12    1    3    3    0    0  0.43190029024E+02  0.39166465262E+02 -0.23552284318E+03  0.24263223254E+03  0.00000000000E+00 0. -1.
         13    1    5    5    0    0  0.19832686990E+02 -0.13385619059E+00  0.78910437211E+02  0.81364675944E+02  0.00000000000E+00 0. -1.
        -14    1    5    5    0    0 -0.28656091710E+01 -0.37980832531E+02  0.12060685044E+04  0.12066697944E+04  0.00000000000E+00 0.  1.
          5    1    4    4  501    0 -0.31752820169E+02 -0.63224371273E+02 -0.92491073353E+02  0.11652310398E+03  0.41800000000E+01 0. -1.
         -5    1    4    4    0  501 -0.19891277861E+02  0.56725458726E+02 -0.14274180034E+03  0.15493913182E+03  0.41800000000E+01 0. -1.
</event>
<event>
11    1  0.8479398E-009  0.1848114E+03  0.7561462E-02  0.1065816E+00
         22   -1    0    0    0    0  0.00000000000E+00  0.00000000000E+00  0.45210928533E+03  0.45210928533E+03  0.00000000000E+00 0. -1.
         22   -1    0    0    0    0 -0.00000000000E+00 -0.00000000000E+00 -0.12422524888E+03  0.12422524888E+03  0.00000000000E+00 0.  1.
        -24    2    1    2    0    0 -0.22532652343E+02  0.94187371203E+01 -0.20862381837E+02  0.87356077483E+02  0.81236766717E+02 0.  0.
         25    2    1    2    0    0 -0.89671097776E+02  0.84880233356E+02  0.16311974741E+03  0.23979415610E+03  0.12509046931E+03 0.  0.
         24    2    1    2    0    0  0.11220375012E+03 -0.94298970477E+02  0.18562667087E+03  0.24918430063E+03  0.78444740844E+02 0.  0.
        -13    1    5    5    0    0  0.11206808480E+02 -0.13787346976E+02 -0.54179714956E+01  0.18575196044E+02  0.00000000000E+00 0.  1.
         14    1    5    5    0    0  0.10099694164E+03 -0.80511623501E+02  0.19104464237E+03  0.23060910458E+03  0.00000000000E+00 0. -1.
         13    1    3    3    0    0 -0.29043775063E+02 -0.19418413662E+02  0.17378096083E+02  0.39020685316E+02  0.00000000000E+00 0. -1.
        -14    1    3    3    0    0  0.65111227200E+01  0.28837150782E+02 -0.38240477920E+02  0.48335392166E+02  0.00000000000E+00 0.  1.
          5    1    4    4  501    0 -0.51752242711E+02  0.20130512949E+02  0.15440324296E+03  0.16413825275E+03  0.41800000000E+01 0. -1.
         -5    1    4    4    0  501 -0.37918855065E+02  0.64749720407E+02  0.87165044504E+01  0.75655903352E+02  0.41800000000E+01 0. -1.
</event>
<event>
11    1  0.8479398E-009  0.1499260E+03  0.7561462E-02  0.1096954E+00
         22   -1    0    0    0    0  0.00000000000E+00  0.00000000000E+00  0.12047554507E+04  0.12047554507E+04  0.00000000000E+00 0. -1.
         22   -1    0    0    0    0 -0.00000000000E+00 -0.00000000000E+00 -0.16898774393E+04  0.16898774393E+04  0.00000000000E+00 0.  1.
         24    2    1    2    0    0 -0.84562677340E+02  0.27175711345E+00 -0.14982863698E+04  0.15028370425E+04  0.80661082612E+02 0.  0.
         25    2    1    2    0    0  0.59909929398E+02  0.28063414286E+02 -0.16094631614E+03  0.21430696141E+03  0.12508797771E+03 0.  0.
        -24    2    1    2    0    0  0.24652747941E+02 -0.28335171400E+02  0.11741106973E+04  0.11774888860E+04  0.80830113669E+02 0.  0.
        -13    1    3    3    0    0 -0.42029559415E+02  0.40365211436E+02 -0.78460127312E+03  0.78676234781E+03  0.00000000000E+00 0.  1.
         14    1    3    3    0    0 -0.42533117924E+02 -0.40093454323E+02 -0.71368509667E+03  0.71607469471E+03  0.00000000000E+00 0. -1.
         13    1    5    5    0    0  0.50947740820E+02 -0.16236247469E+02  0.95193598511E+03  0.95343663019E+03  0.00000000000E+00 0. -1.
        -14    1    5    5    0    0 -0.26294992878E+02 -0.12098923931E+02  0.22217471217E+03  0.22405225582E+03  0.00000000000E+00 0.  1.
          5    1    4    4  501    0  0.70089669248E+02 -0.13110207386E+02 -0.31573088819E+02  0.78094632405E+02  0.41800000000E+01 0.  1.
         -5    1    4    4    0  501 -0.10179739849E+02  0.41173621672E+02 -0.12937322732E+03  0.13621232900E+03  0.41800000000E+01 0.  1.
</event>
<event>
11    1  0.8479398E-009  0.1331708E+03  0.7561462E-02  0.1115433E+00
         22   -1    0    0    0    0  0.00000000000E+00  0.00000000000E+00  0.97939530650E+03  0.97939530650E+03  0.00000000000E+00 0.  1.
         22   -1    0    0    0    0 -0.00000000000E+00 -0.00000000000E+00 -0.13623070800E+03  0.13623070800E+03  0.00000000000E+00 0. -1.
        -24    2    1    2    0    0  0.17538937216E+02  0.40859136333E+02 -0.57784682074E+02  0.10723435829E+03  0.78632402824E+02 0.  0.
         25    2    1    2    0    0  0.11005407215E+02 -0.75202539361E+02  0.53296295030E+02  0.15578789406E+03  0.12511127829E+03 0.  0.
         24    2    1    2    0    0 -0.28544344432E+02  0.34343403027E+02  0.84765298554E+03  0.85260376216E+03  0.80145757330E+02 0.  0.
        -13    1    5    5    0    0  0.60340738736E+01  0.26337995274E+02  0.70785457239E+03  0.70837009797E+03  0.00000000000E+00 0.  1.
         14    1    5    5    0    0 -0.34578418305E+02  0.80054077537E+01  0.13979841315E+03  0.14423366418E+03  0.00000000000E+00 0. -1.
         11    1    3    3    0    0 -0.13067602249E+02  0.48312688839E+02 -0.56819155426E+02  0.75718521874E+02  0.00000000000E+00 0. -1.
        -12    1    3    3    0    0  0.30606539465E+02 -0.74535525061E+01 -0.96552664837E+00  0.31515836411E+02  0.00000000000E+00 0.  1.
          5    1    4    4  501    0 -0.20167704607E+02  0.19496403977E+02 -0.17603019041E+02  0.33379406174E+02  0.41800000000E+01 0. -1.
         -5    1    4    4    0  501  0.31173111823E+02 -0.94698943338E+02  0.70899314071E+02  0.12240848788E+03  0.41800000000E+01 0. -1.
</event>
<event>
11    1  0.8479398E-009  0.1554148E+03  0.7561462E-02  0.1091471E+00
         22   -1    0    0    0    0  0.00000000000E+00  0.00000000000E+00  0.81964129070E+03  0.81964129070E+03  0.00000000000E+00 0.  1.
         22   -1    0    0    0    0 -0.00000000000E+00 -0.00000000000E+00 -0.12485367317E+04  0.12485367317E+04  0.00000000000E+00 0. -1.
        -24    2    1    2    0    0 -0.34227984373E+02 -0.44367854371E+02 -0.87799091801E+03  0.88337370330E+03  0.79630309347E+02 0.  0.
         25    2    1    2    0    0 -0.49951052808E+02  0.51571542057E+01 -0.35063894144E+03  0.37565579685E+03  0.12509159259E+03 0.  0.
         24    2    1    2    0    0  0.84179037181E+02  0.39210700165E+02  0.79973441842E+03  0.80914852227E+03  0.80762626181E+02 0.  0.
        -11    1    5    5    0    0  0.23120470081E+02  0.69609329502E+01  0.53538419469E+03  0.53592839694E+03  0.00000000000E+00 0.  1.
         12    1    5    5    0    0  0.61058567100E+02  0.32249767215E+02  0.26435022373E+03  0.27322012533E+03  0.00000000000E+00 0. -1.
         13    1    3    3    0    0 -0.31720475698E+02 -0.64855478367E+02 -0.54762295529E+03  0.55236158702E+03  0.00000000000E+00 0. -1.
        -14    1    3    3    0    0 -0.25075086742E+01  0.20487623996E+02 -0.33036796272E+03  0.33101211628E+03  0.00000000000E+00 0.  1.
          5    1    4    4  501    0 -0.49162802377E+02 -0.36938881531E+02 -0.31304983289E+03  0.31905976302E+03  0.41800000000E+01 0.  1.
         -5    1    4    4    0  501 -0.78825043109E+00  0.42096035737E+02 -0.37589108546E+02  0.56596033826E+02  0.41800000000E+01 0.  1.
</event>
<event>
11    1  0.8479398E-009  0.2226439E+03  0.7561462E-02  0.1039574E+00
         22   -1    0    0    0    0  0.00000000000E+00  0.00000000000E+00  0.54173215308E+03  0.54173215308E+03  0.00000000000E+00 0. -1.
         22   -1    0    0    0    0 -0.00000000000E+00 -0.00000000000E+00 -0.24277641945E+03  0.24277641945E+03  0.00000000000E+00 0.  1.
        -24    2    1    2    0    0 -0.22599563383E+02 -0.59180339989E+02 -0.12902449686E+03  0.16487519078E+03  0.80767907239E+02 0.  0.
         25    2    1    2    0    0  0.19331013521E+03 -0.69113021654E+01  0.14397224444E+03  0.27164886067E+03  0.12509405207E+03 0.  0.
         24    2    1    2    0    0 -0.17071057183E+03  0.66091642154E+02  0.28400798605E+03  0.34798452107E+03  0.83201479980E+02 0.  0.
        -11    1    5    5    0    0 -0.12357515262E+03  0.19530590707E+02  0.13047030026E+03  0.18076161531E+03  0.00000000000E+00 0.  1.
         12    1    5    5    0    0 -0.47135419208E+02  0.46561051447E+02  0.15353768579E+03  0.16722290577E+03  0.00000000000E+00 0. -1.
         11    1    3    3    0    0  0.22621036370E+02 -0.18690527756E+01 -0.61020344642E+02  0.65105200291E+02  0.00000000000E+00 0. -1.
        -12    1    3    3    0    0 -0.45220599753E+02 -0.57311287213E+02 -0.68004152214E+02  0.99769990490E+02  0.00000000000E+00 0.  1.
          5    1    4    4  501    0  0.12033249691E+03 -0.36666330373E+02  0.24133461698E+02  0.12815703636E+03  0.41800000000E+01 0.  1.
         -5    1    4    4    0  501  0.72977638301E+02  0.29755028207E+02  0.11983878274E+03  0.14349182431E+03  0.41800000000E+01 0.  1.
</event>
<event>
11    1  0.8479398E-009  0.2144767E+03  0.7561462E-02  0.1044734E+00
         22   -1    0    0    0    0  0.00000000000E+00  0.00000000000E+00  0.16393545728E+03  0.16393545728E+03  0.00000000000E+00 0.  1.
         22   -1    0    0    0    0 -0.00000000000E+00 -0.00000000000E+00 -0.73690737465E+03  0.73690737465E+03  0.00000000000E+00 0.  1.
        -24    2    1    2    0    0 -0.18674488405E+02  0.62478923242E+02 -0.46252945193E+03  0.47399139287E+03  0.80510833100E+02 0.  0.
         25    2    1    2    0    0 -0.50431139736E+02  0.12789707236E+03 -0.94887404541E+02  0.20869158338E+03  0.12509035319E+03 0.  0.
         24    2    1    2    0    0  0.69105628141E+02 -0.19037599560E+03 -0.15555060892E+02  0.21815985568E+03  0.79581123196E+02 0.  0.
        -13    1    5    5    0    0  0.68595775973E+02 -0.19788163899E+03 -0.11836435733E+02  0.20976802602E+03  0.00000000000E+00 0.  1.
         14    1    5    5    0    0  0.50985216780E+00  0.75056433892E+01 -0.37186251586E+01  0.83918296568E+01  0.00000000000E+00 0. -1.
         13    1    3    3    0    0  0.74050930138E+01  0.34894967772E+02 -0.60948197267E+02  0.70619947100E+02  0.00000000000E+00 0. -1.
        -14    1    3    3    0    0 -0.26079581419E+02  0.27583955470E+02 -0.40158125466E+03  0.40337144577E+03  0.00000000000E+00 0.  1.
          5    1    4    4  501    0  0.70891924380E+01  0.23267478507E+02 -0.85342580744E+02  0.88839522137E+02  0.41800000000E+01 0.  1.
         -5    1    4    4    0  501 -0.57520332174E+02  0.10462959385E+03 -0.95448237968E+01  0.11985206124E+03  0.41800000000E+01 0.  1.
</event>
<event>
11    1  0.8479398E-009  0.1353401E+03  0.7561462E-02  0.1112876E+00
         22   -1    0    0    0    0  0.00000000000E+00  0.00000000000E+00  0.33363608090E+03  0.33363608090E+03  0.00000000000E+00 0. -1.
         22   -1    0    0    0    0 -0.00000000000E+00 -0.00000000000E+00 -0.10932134667E+04  0.10932134667E+04  0.00000000000E+00 0.  1.
        -24    2    1    2    0    0  0.21060842963E+02 -0.58125693102E+01 -0.11983396811E+03  0.14163308238E+03  0.72266209557E+02 0.  0.
         25    2    1    2    0    0 -0.27132775134E+02  0.57055689032E+02 -0.95021087847E+03  0.96048953631E+03  0.12509155310E+03 0.  0.
         24    2    1    2    0    0  0.60719321708E+01 -0.51243119722E+02  0.31046746076E+03  0.32472692893E+03  0.79967546585E+02 0.  0.
        -13    1    5    5    0    0  0.56794718005E+01 -0.40451057458E+02  0.52431465158E+02  0.66465050877E+02  0.00000000000E+00 0.  1.
         14    1    5    5    0    0  0.39246037032E+00 -0.10792062264E+02  0.25803599560E+03  0.25826187806E+03  0.00000000000E+00 0. -1.
         11    1    3    3    0    0  0.21081894287E+02 -0.10642408847E+02 -0.20002093356E+01  0.23700379115E+02  0.00000000000E+00 0. -1.
        -12    1    3    3    0    0 -0.21051323304E-01  0.48298395373E+01 -0.11783375877E+03  0.11793270327E+03  0.00000000000E+00 0.  1.
          5    1    4    4  501    0  0.73668981299E+01 -0.37793390907E+02 -0.29681257220E+03  0.29932889436E+03  0.41800000000E+01 0. -1.
         -5    1    4    4    0  501 -0.34499673264E+02  0.94849079939E+02 -0.65339830627E+03  0.66116064195E+03  0.41800000000E+01 0. -1.
</event>
<event>
11    1  0.8479398E-009  0.1684783E+03  0.7561462E-02  0.1079364E+00
         22   -1    0    0    0    0  0.00000000000E+00  0.00000000000E+00  0.92879691194E+03  0.92879691194E+03  0.00000000000E+00 0.  1.
         22   -1    0    0    0    0 -0.00000000000E+00 -0.00000000000E+00 -0.30645739674E+03  0.30645739674E+03  0.00000000000E+00 0.  1.
         24    2    1    2    0    0 -0.39469880379E+01  0.15647289164E+01 -0.22840003841E+03  0.24229401827E+03  0.80757579546E+02 0.  0.
         25    2    1    2    0    0  0.28268461498E+02 -0.11156911320E+03  0.45560638503E+02  0.17598401325E+03  0.12509127948E+03 0.  0.
        -24    2    1    2    0    0 -0.24321473460E+02  0.11000438429E+03  0.80517891511E+03  0.81697627716E+03  0.80278599132E+02 0.  0.
        -11    1    3    3    0    0  0.29764599357E+02 -0.14493560205E+02 -0.16840037689E+03  0.17162366270E+03  0.00000000000E+00 0.  1.
         12    1    3    3    0    0 -0.33711587395E+02  0.16058289121E+02 -0.59999661519E+02  0.70670355572E+02  0.00000000000E+00 0. -1.
         11    1    5    5    0    0  0.26427191908E+02  0.23614951261E+02  0.28884756125E+03  0.29101370421E+03  0.00000000000E+00 0. -1.
        -12    1    5    5    0    0 -0.50748665368E+02  0.86389433027E+02  0.51633135386E+03  0.52596257296E+03  0.00000000000E+00 0.  1.
          5    1    4    4  501    0 -0.25067184426E+02 -0.17136250171E+02 -0.30664551809E+02  0.43356682791E+02  0.41800000000E+01 0.  1.
         -5    1    4    4    0  501  0.53335645924E+02 -0.94432863034E+02  0.76225190312E+02  0.13262733046E+03  0.41800000000E+01 0.  1.
</event>
<event>
11    1  0.8479398E-009  0.2471907E+03  0.7561462E-02  0.1025406E+00
         22   -1    0    0    0    0  0.00000000000E+00  0.00000000000E+00  0.19033155075E+04  0.19033155075E+04  0.00000000000E+00 0.  1.
         22   -1    0    0    0    0 -0.00000000000E+00 -0.00000000000E+00 -0.11475288641E+04  0.11475288641E+04  0.00000000000E+00 0. -1.
         24    2    1    2    0    0 -0.67356236638E+01  0.51773354048E+02 -0.40194244655E+03  0.41262949724E+03  0.77327374457E+02 0.  0.
         25    2    1    2    0    0  0.18510303875E+03  0.65407405901E+02 -0.71493262988E+03  0.75187538223E+03  0.12508661572E+03 0.  0.
        -24    2    1    2    0    0 -0.17836741509E+03 -0.11718075995E+03  0.18726617198E+04  0.18863394922E+04  0.76606120413E+02 0.  0.
        -11    1    3    3    0    0  0.26359371133E+02  0.23851516972E+02 -0.76941151043E+02  0.84756427675E+02  0.00000000000E+00 0.  1.
         12    1    3    3    0    0 -0.33094994797E+02  0.27921837077E+02 -0.32500129551E+03  0.32787306957E+03  0.00000000000E+00 0. -1.
         11    1    5    5    0    0 -0.63852215213E+01 -0.15102286915E+02  0.37818103653E+03  0.37853632127E+03  0.00000000000E+00 0. -1.
        -12    1    5    5    0    0 -0.17198219357E+03 -0.10207847303E+03  0.14944806833E+04  0.15078031709E+04  0.00000000000E+00 0.  1.
          5    1    4    4  501    0  0.15615651323E+03  0.97044298541E+02 -0.50193610669E+03  0.53456503823E+03  0.41800000000E+01 0. -1.
         -5    1    4    4    0  501  0.28946525519E+02 -0.31636892640E+02 -0.21299652319E+03  0.21731034400E+03  0.41800000000E+01 0. -1.
</event>
<event>
11    1  0.8479398E-009  0.1454095E+03  0.7561462E-02  0.1101664E+00
         22   -1    0    0    0    0  0.00000000000E+00  0.00000000000E+00  0.29284203080E+04  0.29284203080E+04  0.00000000000E+00 0.  1.
         22   -1    0    0    0    0 -0.00000000000E+00 -0.00000000000E+00 -0.95789766594E+02  0.95789766594E+02  0.00000000000E+00 0.  1.
         24    2    1    2    0    0  0.95321152724E+01  0.70284252104E+02 -0.45721750902E+02  0.11876342706E+03  0.83567552236E+02 0.  0.
         25    2    1    2    0    0 -0.46353382414E+01 -0.13493982259E+03  0.67350049820E+03  0.69819826800E+03  0.12509060028E+03 0.  0.
        -24    2    1    2    0    0 -0.48967770310E+01  0.64655570483E+02  0.22048517941E+04  0.22072483795E+04  0.79810110547E+02 0.  0.
        -11    1    3    3    0    0  0.15020267300E+02  0.29256622268E+02 -0.65193766278E+02  0.73019076533E+02  0.00000000000E+00 0.  1.
         12    1    3    3    0    0 -0.54881520271E+01  0.41027629836E+02  0.19472015375E+02  0.45744350530E+02  0.00000000000E+00 0. -1.
         11    1    5    5    0    0  0.20328365387E+02  0.19037065227E+02  0.22592649574E+03  0.22763662660E+03  0.00000000000E+00 0. -1.
        -12    1    5    5    0    0 -0.25225142418E+02  0.45618505256E+02  0.19789252983E+04  0.19796117529E+04  0.00000000000E+00 0.  1.
          5    1    4    4  501    0 -0.27268578462E+02 -0.13994436373E+03  0.41906273491E+03  0.44267262000E+03  0.41800000000E+01 0. -1.
         -5    1    4    4    0  501  0.22633240221E+02  0.50045411411E+01  0.25443776329E+03  0.25552564800E+03  0.41800000000E+01 0. -1.
</event>
<event>
11    1  0.8479398E-009  0.2379548E+03  0.7561462E-02  0.1030519E+00
         22   -1    0    0    0    0  0.00000000000E+00  0.00000000000E+00  0.29384691955E+03  0.29384691955E+03  0.00000000000E+00 0.  1.
         22   -1    0    0    0    0 -0.00000000000E+00 -0.00000000000E+00 -0.25346855794E+04  0.25346855794E+04  0.00000000000E+00 0. -1.
         24    2    1    2    0    0 -0.13546979715E+02  0.38648445279E+01 -0.22102921710E+04  0.22118201129E+04  0.80983163894E+02 0.  0.
         25    2    1    2    0    0  0.18381266264E+03 -0.10947830683E+03 -0.21843902725E+03  0.33035670128E+03  0.12508935542E+03 0.  0.
        -24    2    1    2    0    0 -0.17026568293E+03  0.10561346230E+03  0.18789253839E+03  0.28635568481E+03  0.80940509250E+02 0.  0.
        -11    1    3    3    0    0 -0.20270354401E+01  0.71224562095E+01 -0.17589725266E+02  0.19084985985E+02  0.00000000000E+00 0.  1.
         12    1    3    3    0    0 -0.11519944274E+02 -0.32576116816E+01 -0.21927024457E+04  0.21927351269E+04  0.00000000000E+00 0. -1.
         11    1    5    5    0    0 -0.21731858095E+02  0.51205070507E+02  0.31564866112E+02  0.63957592782E+02  0.00000000000E+00 0. -1.
        -12    1    5    5    0    0 -0.14853382484E+03  0.54408391796E+02  0.15632767227E+03  0.22239809203E+03  0.00000000000E+00 0.  1.
          5    1    4    4  501    0  0.12063887977E+03 -0.12990101327E+03 -0.18363175093E+03  0.25527652636E+03  0.41800000000E+01 0. -1.
         -5    1    4    4    0  501  0.63173782874E+02  0.20422706439E+02 -0.34807276320E+02  0.75080174918E+02  0.41800000000E+01 0. -1.
</event>
<event>
11    1  0.8479398E-009  0.1370918E+03  0.7561462E-02  0.1110850E+00
         22   -1    0    0    0    0  0.00000000000E+00  0.00000000000E+00  0.71823371027E+03  0.71823371027E+03  0.00000000000E+00 0. -1.
         22   -1    0    0    0    0 -0.00000000000E+00 -0.00000000000E+00 -0.67690569961E+02  0.67690569961E+02  0.00000000000E+00 0. -1.
         24    2    1    2    0    0  0.19058275457E+02  0.58122976502E+02  0.21798679080E+02  0.10319817077E+03  0.80207118011E+02 0.  0.
         25    2    1    2    0    0 -0.17017069944E+02 -0.37485105126E+02  0.16301374064E+03  0.20956129252E+03  0.12509093456E+03 0.  0.
        -24    2    1    2    0    0 -0.20412055130E+01 -0.20637871377E+02  0.46573072059E+03  0.47316481694E+03  0.80930535868E+02 0.  0.
        -13    1    3    3    0    0  0.23501773110E+02  0.36180702363E+02  0.50743677071E+02  0.66605535247E+02  0.00000000000E+00 0.  1.
         14    1    3    3    0    0 -0.44434976522E+01  0.21942274139E+02 -0.28944997991E+02  0.36592635523E+02  0.00000000000E+00 0. -1.
         13    1    5    5    0    0 -0.19096625234E+02 -0.49517992780E+01  0.43077349208E+03  0.43122500263E+03  0.00000000000E+00 0. -1.
        -14    1    5    5    0    0  0.17055419721E+02 -0.15686072099E+02  0.34957228510E+02  0.41939814316E+02  0.00000000000E+00 0.  1.
          5    1    4    4  501    0 -0.25855376500E+02 -0.10771358105E+02 -0.13073189153E+02  0.31191398237E+02  0.41800000000E+01 0.  1.
         -5    1    4    4    0  501  0.88383065554E+01 -0.26713747021E+02  0.17608692980E+03  0.17836989429E+03  0.41800000000E+01 0.  1.
</event>
<event>
11    1  0.8479398E-009  0.2707572E+03  0.7561462E-02  0.1013388E+00
         22   -1    0    0    0    0  0.00000000000E+00  0.00000000000E+00  0.69672160759E+03  0.69672160759E+03  0.00000000000E+00 0.  1.
         22   -1    0    0    0    0 -0.00000000000E+00 -0.00000000000E+00 -0.35820668015E+03  0.35820668015E+03  0.00000000000E+00 0.  1.
        -24    2    1    2    0    0 -0.22335363867E+03  0.44448411980E+02  0.26695001597E+01  0.23924801324E+03  0.73280122634E+02 0.  0.
         25    2    1    2    0    0  0.24832136216E+03 -0.20553016894E+02 -0.15457859241E+03  0.31878725669E+03  0.12507936835E+03 0.  0.
         24    2    1    2    0    0 -0.24967723488E+02 -0.23895395087E+02  0.49042401969E+03  0.49689301781E+03  0.72059523611E+02 0.  0.
        -11    1    5    5    0    0 -0.17682178450E+01 -0.42657196833E+02  0.38398619108E+03  0.38635237540E+03  0.00000000000E+00 0.  1.
         12    1    5    5    0    0 -0.23199505643E+02  0.18761801746E+02  0.10643782860E+03  0.11054064241E+03  0.00000000000E+00 0. -1.
         11    1    3    3    0    0 -0.16732349141E+03  0.63369654808E+02 -0.82417756717E+01  0.17911111298E+03  0.00000000000E+00 0. -1.
        -12    1    3    3    0    0 -0.56030147262E+02 -0.18921242827E+02  0.10911275831E+02  0.60136900258E+02  0.00000000000E+00 0.  1.
          5    1    4    4  501    0  0.48553886530E+02 -0.43832217418E+02 -0.75156110607E+00  0.65549831617E+02  0.41800000000E+01 0.  1.
         -5    1    4    4    0  501  0.19976747563E+03  0.23279200524E+02 -0.15382703130E+03  0.25323742507E+03  0.41800000000E+01 0.  1.
</event>
<event>
11    1  0.8479398E-009  0.1503245E+03  0.7561462E-02  0.1096548E+00
         22   -1    0    0    0    0  0.00000000000E+00  0.00000000000E+00  0.67536016875E+03  0.67536016875E+03  0.00000000000E+00 0. -1.
         22   -1    0    0    0    0 -0.00000000000E+00 -0.00000000000E+00 -0.19024745201E+04  0.19024745201E+04  0.00000000000E+00 0.  1.
         24    2    1    2    0    0  0.40358523821E+02 -0.78832702597E+01 -0.18484519223E+04  0.18505659300E+04  0.78286625052E+02 0.  0.
         25    2    1    2    0    0  0.34039111462E+02  0.52166857992E+02  0.55807835353E+02  0.15047052506E+03  0.12508725851E+03 0.  0.
        -24    2    1    2    0    0 -0.74397635283E+02 -0.44283587733E+02  0.56552973564E+03  0.57679823379E+03  0.73323095497E+02 0.  0.
        -13    1    3    3    0    0  0.55993613560E+02 -0.15717120528E+01 -0.17313962811E+04  0.17323021784E+04  0.00000000000E+00 0.  1.
         14    1    3    3    0    0 -0.15635089739E+02 -0.63115582070E+01 -0.11705564116E+03  0.11826375153E+03  0.00000000000E+00 0. -1.
         13    1    5    5    0    0 -0.25166999861E+02  0.16002584930E+02  0.25169648041E+03  0.25345725252E+03  0.00000000000E+00 0. -1.
        -14    1    5    5    0    0 -0.49230635422E+02 -0.60286172662E+02  0.31383325524E+03  0.32334098127E+03  0.00000000000E+00 0.  1.
          5    1    4    4  501    0  0.57188046542E+02  0.79916454789E+02  0.57715133004E+02  0.11404219128E+03  0.41800000000E+01 0.  1.
         -5    1    4    4    0  501 -0.23148935079E+02 -0.27749596797E+02 -0.19072976509E+01  0.36428333781E+02  0.41800000000E+01 0.  1.
</event>
<event>
11    1  0.8479398E-009  0.1303068E+03  0.7561462E-02  0.1118893E+00
         22   -1    0    0    0    0  0.00000000000E+00  0.00000000000E+00  0.10967295418E+04  0.10967295418E+04  0.00000000000E+00 0.  1.
         22   -1    0    0    0    0 -0.00000000000E+00 -0.00000000000E+00 -0.13383308296E+03  0.13383308296E+03  0.00000000000E+00 0. -1.
        -24    2    1    2    0    0 -0.84516053256E+01 -0.35793321598E+02 -0.10577509848E+03  0.13793025879E+03  0.80522005228E+02 0.  0.
         25    2    1    2    0    0 -0.44825151479E+01  0.29922805066E+02  0.46021218235E+03  0.47786917213E+03  0.12509286826E+03 0.  0.
         24    2    1    2    0    0  0.12934120474E+02  0.58705165318E+01  0.60845937497E+03  0.61476319383E+03  0.86655750333E+02 0.  0.
        -13    1    5    5    0    0  0.26369338688E+02  0.35753002992E+02  0.48499719043E+03  0.48702761110E+03  0.00000000000E+00 0.  1.
         14    1    5    5    0    0 -0.13435218214E+02 -0.29882486460E+02  0.12346218454E+03  0.12773558273E+03  0.00000000000E+00 0. -1.
         11    1    3    3    0    0  0.18830496103E+01 -0.39734143279E+01 -0.10435126260E+03  0.10444386005E+03  0.00000000000E+00 0. -1.
        -12    1    3    3    0    0 -0.10334654936E+02 -0.31819907270E+02 -0.14238358843E+01  0.33486398730E+02  0.00000000000E+00 0.  1.
          5    1    4    4  501    0 -0.37726208795E+02 -0.23582724791E+01  0.40389379013E+02  0.55476144569E+02  0.41800000000E+01 0.  1.
         -5    1    4    4    0  501  0.33243693647E+02  0.32281077545E+02  0.41982280333E+03  0.42239302756E+03  0.41800000000E+01 0.  1.
</event>
<event>
11    1  0.8479398E-009  0.1495865E+03  0.7561462E-02  0.1097302E+00
         22   -1    0    0    0    0  0.00000000000E+00  0.00000000000E+00  0.40885633977E+03  0.40885633977E+03  0.00000000000E+00 0. -1.
         22   -1    0    0    0    0 -0.00000000000E+00 -0.00000000000E+00 -0.26779752708E+03  0.26779752708E+03  0.00000000000E+00 0.  1.
        -24    2    1    2    0    0 -0.82156554689E+02 -0.26039834153E+02 -0.17549307276E+03  0.21102840655E+03  0.79419124543E+02 0.  0.
         25    2    1    2    0    0  0.45185683303E+02  0.60440924471E+02  0.11896599019E+02  0.14657326194E+03  0.12508933096E+03 0.  0.
         24    2    1    2    0    0  0.36970871386E+02 -0.34401090318E+02  0.30465528643E+03  0.31905219837E+03  0.80182176241E+02 0.  0.
        -11    1    5    5    0    0  0.10001292516E+02 -0.23063535795E+02  0.18025723612E+02  0.30933464841E+02  0.00000000000E+00 0.  1.
         12    1    5    5    0    0  0.26969578870E+02 -0.11337554524E+02  0.28662956282E+03  0.28811873353E+03  0.00000000000E+00 0. -1.
         11    1    3    3    0    0 -0.50513642040E+02  0.97280926344E+01 -0.33921775492E+02  0.61619401742E+02  0.00000000000E+00 0. -1.
        -12    1    3    3    0    0 -0.31642912649E+02 -0.35767926787E+02 -0.14157129727E+03  0.14940900481E+03  0.00000000000E+00 0.  1.
          5    1    4    4  501    0 -0.16613136208E+02 -0.28889601121E+02 -0.11271994487E+02  0.35427893069E+02  0.41800000000E+01 0.  1.
         -5    1    4    4    0  501  0.61798819511E+02  0.89330525593E+02  0.23168593505E+02  0.11114536887E+03  0.41800000000E+01 0.  1.
</event>
<event>
11    1  0.8479398E-009  0.1364215E+03  0.7561462E-02  0.1111621E+00
         22   -1    0    0    0    0  0.00000000000E+00  0.00000000000E+00  0.15895024908E+02  0.15895024908E+02  0.00000000000E+00 0.  1.
         22   -1    0    0    0    0 -0.00000000000E+00 -0.00000000000E+00 -0.24528257423E+04  0.24528257423E+04  0.00000000000E+00 0.  1.
        -24    2    1    2    0    0  0.42263628346E+02  0.36446735281E+02 -0.13127217124E+04  0.13163401024E+04  0.79989949509E+02 0.  0.
         25    2    1    2    0    0 -0.33213975394E+02 -0.39215116650E+02 -0.96562938086E+03  0.97505215159E+03  0.12508238728E+03 0.  0.
         24    2    1    2    0    0 -0.90496529517E+01  0.27683813690E+01 -0.15857962410E+03  0.17732851324E+03  0.78793047133E+02 0.  0.
        -11    1    5    5    0    0 -0.13640484893E+02 -0.17567278907E+02 -0.56006233214E+01  0.22935542241E+02  0.00000000000E+00 0.  1.
         12    1    5    5    0    0  0.45908319416E+01  0.20335660276E+02 -0.15297900077E+03  0.15439297100E+03  0.00000000000E+00 0. -1.
         13    1    3    3    0    0  0.33376107157E+02 -0.16347532405E+02 -0.31532615968E+03  0.31750872953E+03  0.00000000000E+00 0. -1.
        -14    1    3    3    0    0  0.88875211887E+01  0.52794267686E+02 -0.99739555276E+03  0.99883137286E+03  0.00000000000E+00 0.  1.
          5    1    4    4  501    0  0.28103731295E+02 -0.63074933759E+02 -0.47388281273E+03  0.47890568966E+03  0.41800000000E+01 0.  1.
         -5    1    4    4    0  501 -0.61317706689E+02  0.23859817109E+02 -0.49174656813E+03  0.49614646193E+03  0.41800000000E+01 0.  1.
</event>
<event>
11    1  0.8479398E-009  0.1643862E+03  0.7561462E-02  0.1083023E+00
         22   -1    0    0    0    0  0.00000000000E+00  0.00000000000E+00  0.64774653533E+03  0.64774653533E+03  0.00000000000E+00 0.  1.
         22   -1    0    0    0    0 -0.00000000000E+00 -0.00000000000E+00 -0.65223150125E+03  0.65223150125E+03  0.00000000000E+00 0. -1.
        -24    2    1    2    0    0 -0.10029043469E+03 -0.41204948670E+02 -0.57054586540E+03  0.58618211074E+03  0.79566722612E+02 0.  0.
         25    2    1    2    0    0  0.62993519297E+02  0.72525956343E+02  0.19172973930E+02  0.15887953828E+03  0.12508759706E+03 0.  0.
         24    2    1    2    0    0  0.37296915390E+02 -0.31321007672E+02  0.54688792555E+03  0.55491638755E+03  0.80459484503E+02 0.  0.
        -13    1    5    5    0    0 -0.13334944582E+02 -0.19914133984E+02  0.36451614948E+03  0.36530318464E+03  0.00000000000E+00 0.  1.
         14    1    5    5    0    0  0.50631859972E+02 -0.11406873688E+02  0.18237177607E+03  0.18961320291E+03  0.00000000000E+00 0. -1.
         11    1    3    3    0    0 -0.10793518623E+03 -0.17337025267E+02 -0.47294280269E+03  0.48541268163E+03  0.00000000000E+00 0. -1.
        -12    1    3    3    0    0  0.76447515400E+01 -0.23867923403E+02 -0.97603062707E+02  0.10076942911E+03  0.00000000000E+00 0.  1.
          5    1    4    4  501    0  0.30921892916E+02 -0.13468339469E+02 -0.37753794844E+02  0.50797451262E+02  0.41800000000E+01 0.  1.
         -5    1    4    4    0  501  0.32071626381E+02  0.85994295812E+02  0.56926768774E+02  0.10808208702E+03  0.41800000000E+01 0.  1.
</event>
<event>
11    1  0.8479398E-009  0.1439453E+03  0.7561462E-02  0.1103231E+00
         22   -1    0    0    0    0  0.00000000000E+00  0.00000000000E+00  0.18512848344E+04  0.18512848344E+04  0.00000000000E+00 0.  1.
         22   -1    0    0    0    0 -0.00000000000E+00 -0.00000000000E+00 -0.52826337533E+03  0.52826337533E+03  0.00000000000E+00 0.  1.
        -24    2    1    2    0    0  0.69898929994E+02 -0.15791878215E+02 -0.51202559044E+03  0.52344055139E+03  0.81759169185E+02 0.  0.
         25    2    1    2    0    0 -0.34303636294E+02  0.73460617595E+01  0.45781224741E+03  0.47588958289E+03  0.12509251435E+03 0.  0.
         24    2    1    2    0    0 -0.35595293700E+02  0.84458164553E+01  0.13772348021E+04  0.13802180755E+04  0.82993246135E+02 0.  0.
        -11    1    5    5    0    0 -0.59694126457E+02 -0.38264616132E+01  0.11121253360E+04  0.11137328196E+04  0.00000000000E+00 0.  1.
         12    1    5    5    0    0  0.24098832757E+02  0.12272278068E+02  0.26510946612E+03  0.26648525584E+03  0.00000000000E+00 0. -1.
         11    1    3    3    0    0  0.76688953206E+01  0.19086688693E+02 -0.31321977443E+02  0.37472388657E+02  0.00000000000E+00 0. -1.
        -12    1    3    3    0    0  0.62230034673E+02 -0.34878566908E+02 -0.48070361300E+03  0.48596816274E+03  0.00000000000E+00 0.  1.
          5    1    4    4  501    0 -0.45215325111E+02 -0.51612088447E+02  0.21359491009E+03  0.22438469492E+03  0.41800000000E+01 0. -1.
         -5    1    4    4    0  501  0.10911688818E+02  0.58958150206E+02  0.24421733732E+03  0.25150488798E+03  0.41800000000E+01 0. -1.
</event>
<event>
11    1  0.8479398E-009  0.1603646E+03  0.7561462E-02  0.1086735E+00
         22   -1    0    0    0    0  0.00000000000E+00  0.00000000000E+00  0.58525374942E+03  0.58525374942E+03  0.00000000000E+00 0.  1.
         22   -1    0    0    0    0 -0.00000000000E+00 -0.00000000000E+00 -0.25518074508E+03  0.25518074508E+03  0.00000000000E+00 0.  1.
        -24    2    1    2    0    0  0.29820299778E+02  0.27983605080E+02 -0.19365009963E+03  0.21370244381E+03  0.80598020877E+02 0.  0.
         25    2    1    2    0    0 -0.11835879427E+03 -0.57345814929E+02  0.15541382805E+03  0.23895162433E+03  0.12508826543E+03 0.  0.
         24    2    1    2    0    0  0.88538494493E+02  0.29362209849E+02  0.36830927593E+03  0.38778042636E+03  0.77593375762E+02 0.  0.
        -13    1    5    5    0    0  0.95318351949E+02  0.20029103746E+02  0.36148557478E+03  0.37437758211E+03  0.00000000000E+00 0.  1.
         14    1    5    5    0    0 -0.67798574558E+01  0.93331061025E+01  0.68237011476E+01  0.13402844250E+02  0.00000000000E+00 0. -1.
         11    1    3    3    0    0  0.85317886072E+01  0.22311150784E+02 -0.58211869910E+01  0.24585871636E+02  0.00000000000E+00 0. -1.
        -12    1    3    3    0    0  0.21288511171E+02  0.56724542965E+01 -0.18782891264E+03  0.18911657217E+03  0.00000000000E+00 0.  1.
          5    1    4    4  501    0 -0.13240202971E+03 -0.36856054816E+02  0.79189542546E+02  0.15867300431E+03  0.41800000000E+01 0. -1.
         -5    1    4    4    0  501  0.14043235441E+02 -0.20489760113E+02  0.76224285501E+02  0.80278620013E+02  0.41800000000E+01 0. -1.
</event>
<event>
11    1  0.8479398E-009  0.2838880E+03  0.7561462E-02  0.1007250E+00
         22   -1    0    0    0    0  0.00000000000E+00  0.00000000000E+00  0.37352474219E+03  0.37352474219E+03  0.00000000000E+00 0. -1.
         22   -1    0    0    0    0 -0.00000000000E+00 -0.00000000000E+00 -0.17311216798E+04  0.17311216798E+04  0.00000000000E+00 0.  1.
         24    2    1    2    0    0 -0.17381489016E+02  0.20686163098E+00 -0.14119965228E+04  0.14143589608E+04  0.79843163220E+02 0.  0.
         25    2    1    2    0    0 -0.97136550260E+02 -0.22948663181E+03 -0.18074095635E+03  0.33228796668E+03  0.12509346874E+03 0.  0.
        -24    2    1    2    0    0  0.11451803928E+03  0.22927977018E+03  0.23514054155E+03  0.35799949446E+03  0.84787790517E+02 0.  0.
        -11    1    3    3    0    0  0.12670038664E+02  0.12341405194E+02 -0.11775678113E+04  0.11777006370E+04  0.00000000000E+00 0.  1.
         12    1    3    3    0    0 -0.30051527679E+02 -0.12134543563E+02 -0.23442871145E+03  0.23665832379E+03  0.00000000000E+00 0. -1.
         11    1    5    5    0    0  0.33098015224E+02  0.15536365861E+03  0.15487408577E+03  0.22185429333E+03  0.00000000000E+00 0. -1.
        -12    1    5    5    0    0  0.81420024052E+02  0.73916111576E+02  0.80266455782E+02  0.13614520113E+03  0.00000000000E+00 0.  1.
          5    1    4    4  501    0 -0.70320462223E+02 -0.29216706126E+02 -0.58256999600E+02  0.95968399624E+02  0.41800000000E+01 0. -1.
         -5    1    4    4    0  501 -0.26816088038E+02 -0.20026992569E+03 -0.12248395675E+03  0.23631956706E+03  0.41800000000E+01 0. -1.
</event>
<event>
11    1  0.8479398E-009  0.1525644E+03  0.7561462E-02  0.1094287E+00
         22   -1    0    0    0    0  0.00000000000E+00  0.00000000000E+00  0.56218497147E+03  0.56218497147E+03  0.00000000000E+00 0. -1.
         22   -1    0    0    0    0 -0.00000000000E+00 -0.00000000000E+00 -0.10096702803E+03  0.10096702803E+03  0.00000000000E+00 0. -1.
        -24    2    1    2    0    0 -0.38062016287E+02 -0.69112690665E+02  0.50708348059E+02  0.12292243009E+03  0.79456316051E+02 0.  0.
         25    2    1    2    0    0  0.64690505109E+02  0.74567114968E+02  0.46111019552E+02  0.16589165565E+03  0.12509476089E+03 0.  0.
         24    2    1    2    0    0 -0.26628488822E+02 -0.54544243029E+01  0.36439857583E+03  0.37433791376E+03  0.81263303241E+02 0.  0.
        -13    1    5    5    0    0  0.16669937952E+02 -0.30405065748E+02  0.12144989497E+03  0.12630293680E+03  0.00000000000E+00 0.  1.
         14    1    5    5    0    0 -0.43298426774E+02  0.24950641445E+02  0.24294868086E+03  0.24803497697E+03  0.00000000000E+00 0. -1.
         13    1    3    3    0    0 -0.12302165967E+02 -0.81238421097E+02  0.29046928962E+02  0.87147853857E+02  0.00000000000E+00 0. -1.
        -14    1    3    3    0    0 -0.25759850320E+02  0.12125730432E+02  0.21661419096E+02  0.35774576228E+02  0.00000000000E+00 0.  1.
          5    1    4    4  501    0 -0.69025639684E+01  0.75732638374E+02 -0.72343336271E+01  0.76504156014E+02  0.41800000000E+01 0. -1.
         -5    1    4    4    0  501  0.71593069078E+02 -0.11655234060E+01  0.53345353179E+02  0.89387499632E+02  0.41800000000E+01 0. -1.
</event>
<event>
11    1  0.8479398E-009  0.2485533E+03  0.7561462E-02  0.1024673E+00
         22   -1    0    0    0    0  0.00000000000E+00  0.00000000000E+00  0.36301985669E+03  0.36301985669E+03  0.00000000000E+00 0.  1.
         22   -1    0    0    0    0 -0.00000000000E+00 -0.00000000000E+00 -0.26743921634E+04  0.26743921634E+04  0.00000000000E+00 0.  1.
         24    2    1    2    0    0 -0.19615676401E+03  0.14762497147E+03 -0.22281367051E+04  0.22429772398E+04  0.77994316712E+02 0.  0.
         25    2    1    2    0    0  0.93723766703E+02 -0.95895116244E+02 -0.40469356324E+03  0.44430054634E+03  0.12508428194E+03 0.  0.
        -24    2    1    2    0    0  0.10243299731E+03 -0.51729855223E+02  0.32145796161E+03  0.35013423395E+03  0.78040142517E+02 0.  0.
        -13    1    3    3    0    0 -0.19341008201E+03  0.13005662032E+03 -0.21607519948E+04  0.21732858457E+04  0.00000000000E+00 0.  1.
         14    1    3    3    0    0 -0.27466820081E+01  0.17568351151E+02 -0.67384710309E+02  0.69691394071E+02  0.00000000000E+00 0. -1.
         11    1    5    5    0    0  0.12184689859E+02 -0.46828819228E+02  0.11046990615E+03  0.12060267469E+03  0.00000000000E+00 0. -1.
        -12    1    5    5    0    0  0.90248307452E+02 -0.49010359954E+01  0.21098805546E+03  0.22953155927E+03  0.00000000000E+00 0.  1.
          5    1    4    4  501    0 -0.91138665979E+01 -0.31493657497E+02 -0.22513114796E+03  0.22754432361E+03  0.41800000000E+01 0. -1.
         -5    1    4    4    0  501  0.10283763330E+03 -0.64401458747E+02 -0.17956241528E+03  0.21675622274E+03  0.41800000000E+01 0. -1.
</event>
<event>
11    1  0.8479398E-009  0.1626722E+03  0.7561462E-02  0.1084591E+00
         22   -1    0    0    0    0  0.00000000000E+00  0.00000000000E+00  0.74868837156E+03  0.74868837156E+03  0.00000000000E+00 0. -1.
         22   -1    0    0    0    0 -0.00000000000E+00 -0.00000000000E+00 -0.44076919194E+03  0.44076919194E+03  0.00000000000E+00 0.  1.
        -24    2    1    2    0    0  0.91865082973E+01  0.58151445586E+02 -0.38957820828E+03  0.40226838157E+03  0.81133765384E+02 0.  0.
         25    2    1    2    0    0  0.96151568405E+02 -0.55530219614E+02  0.15273005545E+03  0.22650146399E+03  0.12509082283E+03 0.  0.
         24    2    1    2    0    0 -0.10533807670E+03 -0.26212259718E+01  0.54476733244E+03  0.56068771794E+03  0.80599561556E+02 0.  0.
        -13    1    5    5    0    0 -0.35652316822E+02 -0.25657923612E+02  0.91272599141E+02  0.10129217192E+03  0.00000000000E+00 0.  1.
         14    1    5    5    0    0 -0.69685759880E+02  0.23036697640E+02  0.45349473330E+03  0.45939554602E+03  0.00000000000E+00 0. -1.
         13    1    3    3    0    0 -0.65359947281E+01  0.42226380042E+02 -0.70723301739E+02  0.82629122029E+02  0.00000000000E+00 0. -1.
        -14    1    3    3    0    0  0.15722503025E+02  0.15925065544E+02 -0.31885490654E+03  0.31963925954E+03  0.00000000000E+00 0.  1.
          5    1    4    4  501    0 -0.17076736471E+02  0.22292368359E+02  0.38129987649E+02  0.47538752336E+02  0.41800000000E+01 0.  1.
         -5    1    4    4    0  501  0.11322830488E+03 -0.77822587972E+02  0.11460006780E+03  0.17896271166E+03  0.41800000000E+01 0.  1.
</event>
<event>
11    1  0.8479398E-009  0.1370957E+03  0.7561462E-02  0.1110846E+00
         22   -1    0    0    0    0  0.00000000000E+00  0.00000000000E+00  0.10276317784E+03  0.10276317784E+03  0.00000000000E+00 0. -1.
         22   -1    0    0    0    0 -0.00000000000E+00 -0.00000000000E+00 -0.11363748046E+04  0.11363748046E+04  0.00000000000E+00 0.  1.
         24    2    1    2    0    0  0.18002257308E+02 -0.17462312574E+02 -0.99488363381E+03  0.99843667883E+03  0.80332703088E+02 0.  0.
         25    2    1    2    0    0 -0.53528824911E+02 -0.25434956175E+02 -0.12418943416E+02  0.13902439109E+03  0.12514503214E+03 0.  0.
        -24    2    1    2    0    0  0.35526567603E+02  0.42897268749E+02 -0.26309049518E+02  0.10167691250E+03  0.80893236910E+02 0.  0.
        -11    1    3    3    0    0 -0.12207002588E+02 -0.16303629643E+02 -0.85854405861E+03  0.85878560761E+03  0.00000000000E+00 0.  1.
         12    1    3    3    0    0  0.30209259896E+02 -0.11586829316E+01 -0.13633957519E+03  0.13965107122E+03  0.00000000000E+00 0. -1.
         11    1    5    5    0    0  0.28170447237E+02 -0.10694007284E+02  0.14957007073E+02  0.33639975474E+02  0.00000000000E+00 0. -1.
        -12    1    5    5    0    0  0.73561203667E+01  0.53591276033E+02 -0.41266056590E+02  0.68036937029E+02  0.00000000000E+00 0.  1.
          5    1    4    4  501    0 -0.10469925498E+02 -0.52934839886E+02  0.38773983313E+02  0.66577855144E+02  0.41800000000E+01 0. -1.
         -5    1    4    4    0  501 -0.43058899413E+02  0.27499883711E+02 -0.51192926729E+02  0.72446535941E+02  0.41800000000E+01 0. -1.
</event>
<event>
11    1  0.8479398E-009  0.1456129E+03  0.7561462E-02  0.1101448E+00
         22   -1    0    0    0    0  0.00000000000E+00  0.00000000000E+00  0.27225575504E+04  0.27225575504E+04  0.00000000000E+00 0.  1.
         22   -1    0    0    0    0 -0.00000000000E+00 -0.00000000000E+00 -0.16297479106E+04  0.16297479106E+04  0.00000000000E+00 0.  1.
         24    2    1    2    0    0 -0.50277716162E+01 -0.13914654856E+02 -0.15111186174E+04  0.15133995942E+04  0.81731022087E+02 0.  0.
         25    2    1    2    0    0  0.34113008859E+02  0.82418039122E+02 -0.65628239745E+02  0.16705217204E+03  0.12507170657E+03 0.  0.
        -24    2    1    2    0    0 -0.29085237243E+02 -0.68503384266E+02  0.26695564969E+04  0.26718536947E+04  0.82046396059E+02 0.  0.
        -13    1    3    3    0    0 -0.16929319767E+02 -0.20819991917E+02 -0.14656255786E+04  0.14658712122E+04  0.00000000000E+00 0.  1.
         14    1    3    3    0    0  0.11901548151E+02  0.69053370610E+01 -0.45493038733E+02  0.47528382063E+02  0.00000000000E+00 0. -1.
         11    1    5    5    0    0 -0.10342072227E+01 -0.42069411856E+01  0.61450641665E+01  0.75186270242E+01  0.00000000000E+00 0. -1.
        -12    1    5    5    0    0 -0.28051030020E+02 -0.64296443080E+02  0.26634114327E+04  0.26643350677E+04  0.00000000000E+00 0.  1.
          5    1    4    4  501    0  0.45956658524E+01  0.84712489937E+02 -0.93397961218E+02  0.12624570351E+03  0.41800000000E+01 0. -1.
         -5    1    4    4    0  501  0.29517343007E+02 -0.22944508148E+01  0.27769721473E+02  0.40806468524E+02  0.41800000000E+01 0. -1.
</event>
<event>
11    1  0.8479398E-009  0.1398062E+03  0.7561462E-02  0.1107775E+00
         22   -1    0    0    0    0  0.00000000000E+00  0.00000000000E+00  0.10115349877E+03  0.10115349877E+03  0.00000000000E+00 0. -1.
         22   -1    0    0    0    0 -0.00000000000E+00 -0.00000000000E+00 -0.15532742500E+04  0.15532742500E+04  0.00000000000E+00 0.  1.
        -24    2    1    2    0    0 -0.73106056088E+01 -0.15191434824E+02 -0.13443035366E+04  0.13468207538E+04  0.80560037224E+02 0.  0.
         25    2    1    2    0    0 -0.33687148540E+02 -0.35410499000E+02 -0.14761946662E+03  0.19956945538E+03  0.12509089967E+03 0.  0.
         24    2    1    2    0    0  0.40997754148E+02  0.50601933824E+02  0.39802252014E+02  0.10803753959E+03  0.76462534252E+02 0.  0.
        -13    1    5    5    0    0  0.46485746236E+02  0.18321155294E+02 -0.74816367707E+01  0.50522907905E+02  0.00000000000E+00 0.  1.
         14    1    5    5    0    0 -0.54879920880E+01  0.32280778531E+02  0.47283888785E+02  0.57514631689E+02  0.00000000000E+00 0. -1.
         13    1    3    3    0    0  0.28318608474E+02 -0.48920722361E+01 -0.21545642388E+03  0.21736454759E+03  0.00000000000E+00 0. -1.
        -14    1    3    3    0    0 -0.35629214083E+02 -0.10299362588E+02 -0.11288471128E+04  0.11294562062E+04  0.00000000000E+00 0.  1.
          5    1    4    4  501    0 -0.64542256328E+02 -0.42162005438E+01 -0.25345084410E+02  0.69594000479E+02  0.41800000000E+01 0. -1.
         -5    1    4    4    0  501  0.30855107789E+02 -0.31194298456E+02 -0.12227438221E+03  0.12997545490E+03  0.41800000000E+01 0. -1.
</event>
<event>
11    1  0.8479398E-009  0.1522256E+03  0.7561462E-02  0.1094626E+00
         22   -1    0    0    0    0  0.00000000000E+00  0.00000000000E+00  0.15589282459E+04  0.15589282459E+04  0.00000000000E+00 0.  1.
         22   -1    0    0    0    0 -0.00000000000E+00 -0.00000000000E+00 -0.22150686881E+03  0.22150686881E+03  0.00000000000E+00 0.  1.
         24    2    1    2    0    0  0.18573331943E+02  0.47255116216E+02 -0.18642487957E+03  0.20855208762E+03  0.78496642350E+02 0.  0.
         25    2    1    2    0    0  0.67012856999E+02 -0.19350138944E+02  0.21648996232E+03  0.25956705080E+03  0.12506797829E+03 0.  0.
        -24    2    1    2    0    0 -0.85586188942E+02 -0.27904977272E+02  0.13073562943E+04  0.13123159763E+04  0.69921797504E+02 0.  0.
        -13    1    3    3    0    0  0.37133737770E+02  0.28677477047E+02 -0.17262296044E+03  0.17888543440E+03  0.00000000000E+00 0.  1.
         14    1    3    3    0    0 -0.18560405826E+02  0.18577639169E+02 -0.13801919132E+02  0.29666653220E+02  0.00000000000E+00 0. -1.
         11    1    5    5    0    0 -0.37242904064E+02 -0.34600822256E+02  0.34523875344E+03  0.34896138422E+03  0.00000000000E+00 0. -1.
        -12    1    5    5    0    0 -0.48343284878E+02  0.66958449842E+01  0.96211754088E+03  0.96335459204E+03  0.00000000000E+00 0.  1.
          5    1    4    4  501    0 -0.79406217324E+01  0.16392816733E+02  0.15508121751E+03  0.15620318287E+03  0.41800000000E+01 0.  1.
         -5    1    4    4    0  501  0.74953478731E+02 -0.35742955677E+02  0.61408744816E+02  0.10336386793E+03  0.41800000000E+01 0.  1.
</event>
<event>
11    1  0.8479398E-009  0.4100005E+03  0.7561462E-02  0.9620703E-01
         22   -1    0    0    0    0  0.00000000000E+00  0.00000000000E+00  0.18443988771E+04  0.18443988771E+04  0.00000000000E+00 0.  1.
         22   -1    0    0    0    0 -0.00000000000E+00 -0.00000000000E+00 -0.13750324982E+04  0.13750324982E+04  0.00000000000E+00 0. -1.
         24    2    1    2    0    0  0.18164260505E+03  0.35109867470E+03 -0.10419281873E+04  0.11172540748E+04  0.79862412529E+02 0.  0.
         25    2    1    2    0    0 -0.16187290288E+03 -0.33670416992E+03 -0.16256517276E+03  0.42620275341E+03  0.12509523128E+03 0.  0.
        -24    2    1    2    0    0 -0.19769702177E+02 -0.14394504781E+02  0.16738597390E+04  0.16759745471E+04  0.80537033235E+02 0.  0.
        -13    1    3    3    0    0  0.18034917221E+02  0.90629949886E+02 -0.18501259756E+03  0.20680596537E+03  0.00000000000E+00 0.  1.
         14    1    3    3    0    0  0.16360768783E+03  0.26046872482E+03 -0.85691558974E+03  0.91044810948E+03  0.00000000000E+00 0. -1.
         13    1    5    5    0    0 -0.40641660846E+02 -0.12367074290E+02  0.46589195475E+03  0.46782475632E+03  0.00000000000E+00 0. -1.
        -14    1    5    5    0    0  0.20871958670E+02 -0.20274304919E+01  0.12079677842E+04  0.12081497907E+04  0.00000000000E+00 0.  1.
          5    1    4    4  501    0 -0.48175929445E+02 -0.96304305528E+02  0.11449842573E+02  0.10836978701E+03  0.41800000000E+01 0. -1.
         -5    1    4    4    0  501 -0.11369697343E+03 -0.24039986439E+03 -0.17401501534E+03  0.31783296640E+03  0.41800000000E+01 0. -1.
</event>
<event>
11    1  0.8479398E-009  0.1408298E+03  0.7561462E-02  0.1106635E+00
         22   -1    0    0    0    0  0.00000000000E+00  0.00000000000E+00  0.22093824904E+03  0.22093824904E+03  0.00000000000E+00 0. -1.
         22   -1    0    0    0    0 -0.00000000000E+00 -0.00000000000E+00 -0.12835115990E+04  0.12835115990E+04  0.00000000000E+00 0.  1.
        -24    2    1    2    0    0 -0.18778947159E+02  0.12250341797E+02 -0.58413524086E+03  0.59338155014E+03  0.10190664700E+03 0.  0.
         25    2    1    2    0    0  0.11849679709E+01  0.50365738952E+02 -0.67382153430E+03  0.68718345837E+03  0.12509010180E+03 0.  0.
         24    2    1    2    0    0  0.17593979188E+02 -0.62616080748E+02  0.19538342523E+03  0.22388483948E+03  0.87860211824E+02 0.  0.
        -11    1    5    5    0    0 -0.18048288679E+02  0.14529473202E+02  0.56476790339E+02  0.61044853696E+02  0.00000000000E+00 0.  1.
         12    1    5    5    0    0  0.35642267867E+02 -0.77145553950E+02  0.13890663490E+03  0.16283998579E+03  0.00000000000E+00 0. -1.
         13    1    3    3    0    0  0.35040862795E+02  0.21935664269E+02 -0.14255856078E+03  0.14843173072E+03  0.00000000000E+00 0. -1.
        -14    1    3    3    0    0 -0.53819809954E+02 -0.96853224718E+01 -0.44157668008E+03  0.44494981942E+03  0.00000000000E+00 0.  1.
          5    1    4    4  501    0 -0.32590885577E+02  0.81641939774E+02 -0.47226025221E+03  0.48039024800E+03  0.41800000000E+01 0.  1.
         -5    1    4    4    0  501  0.33775853548E+02 -0.31276200822E+02 -0.20156128208E+03  0.20679321037E+03  0.41800000000E+01 0.  1.
</event>
<event>
11    1  0.8479398E-009  0.1500339E+03  0.7561462E-02  0.1096844E+00
         22   -1    0    0    0    0  0.00000000000E+00  0.00000000000E+00  0.43155999657E+03  0.43155999657E+03  0.00000000000E+00 0. -1.
         22   -1    0    0    0    0 -0.00000000000E+00 -0.00000000000E+00 -0.15716905607E+04  0.15716905607E+04  0.00000000000E+00 0.  1.
        -24    2    1    2    0    0  0.83921453732E+02 -0.22199404003E+02 -0.13891107066E+04  0.13941677169E+04  0.80866826954E+02 0.  0.
         25    2    1    2    0    0 -0.48251650552E+02 -0.22796226347E+02 -0.14742072128E+03  0.20055984636E+03  0.12507395090E+03 0.  0.
         24    2    1    2    0    0 -0.35669803180E+02  0.44995630350E+02  0.39640086376E+03  0.40852299401E+03  0.80376926004E+02 0.  0.
        -11    1    5    5    0    0  0.21061553911E+02  0.34819533099E+02  0.14519649123E+03  0.15079127960E+03  0.00000000000E+00 0.  1.
         12    1    5    5    0    0 -0.56731357091E+02  0.10176097251E+02  0.25120437253E+03  0.25773171440E+03  0.00000000000E+00 0. -1.
         13    1    3    3    0    0  0.14249919051E+02 -0.72911234452E+01 -0.38713004258E+02  0.41891733943E+02  0.00000000000E+00 0. -1.
        -14    1    3    3    0    0  0.69671534681E+02 -0.14908280558E+02 -0.13503977023E+04  0.13522759829E+04  0.00000000000E+00 0.  1.
          5    1    4    4  501    0  0.78923434416E+01  0.33719859197E+02 -0.22993624384E+01  0.34958224452E+02  0.41800000000E+01 0. -1.
         -5    1    4    4    0  501 -0.56143993993E+02 -0.56516085543E+02 -0.14512135885E+03  0.16560162191E+03  0.41800000000E+01 0. -1.
</event>
<event>
11    1  0.8479398E-009  0.1531672E+03  0.7561462E-02  0.1093686E+00
         22   -1    0    0    0    0  0.00000000000E+00  0.00000000000E+00  0.27152440599E+04  0.27152440599E+04  0.00000000000E+00 0.  1.
         22   -1    0    0    0    0 -0.00000000000E+00 -0.00000000000E+00 -0.50338541051E+02  0.50338541051E+02  0.00000000000E+00 0. -1.
        -24    2    1    2    0    0 -0.99311431097E+01 -0.50939958599E+02  0.48788573242E+02  0.10743582169E+03  0.80427755885E+02 0.  0.
         25    2    1    2    0    0 -0.66409480441E+02  0.14452702408E+01  0.23824543871E+03  0.27717350317E+03  0.12510776913E+03 0.  0.
         24    2    1    2    0    0  0.76340623551E+02  0.49494688358E+02  0.23778715069E+04  0.23809732761E+04  0.80518464793E+02 0.  0.
        -13    1    5    5    0    0  0.18976910088E+02  0.59976423728E+02  0.11539828017E+04  0.11556961543E+04  0.00000000000E+00 0.  1.
         14    1    5    5    0    0  0.57363713463E+02 -0.10481735370E+02  0.12238887053E+04  0.12252771218E+04  0.00000000000E+00 0. -1.
         11    1    3    3    0    0  0.19590532451E+02  0.41297118022E+01 -0.93418658577E+01  0.22093300771E+02  0.00000000000E+00 0. -1.
        -12    1    3    3    0    0 -0.29521675561E+02 -0.55069670401E+02  0.58130439100E+02  0.85342520914E+02  0.00000000000E+00 0.  1.
          5    1    4    4  501    0  0.21466093493E+02  0.29030626616E+00  0.15338052863E+03  0.15493203803E+03  0.41800000000E+01 0.  1.
         -5    1    4    4    0  501 -0.87875573934E+02  0.11549639747E+01  0.84864910084E+02  0.12224146514E+03  0.41800000000E+01 0.  1.
</event>
<event>
11    1  0.8479398E-009  0.1302912E+03  0.7561462E-02  0.1118912E+00
         22   -1    0    0    0    0  0.00000000000E+00  0.00000000000E+00  0.10034877278E+04  0.10034877278E+04  0.00000000000E+00 0. -1.
         22   -1    0    0    0    0 -0.00000000000E+00 -0.00000000000E+00 -0.11505123612E+03  0.11505123612E+03  0.00000000000E+00 0. -1.
         24    2    1    2    0    0 -0.72001004170E+01 -0.37760668629E+02 -0.71972576616E+02  0.12856596652E+03  0.99355152968E+02 0.  0.
         25    2    1    2    0    0  0.37077880573E+02  0.16434125765E+01  0.36717924402E+03  0.38967338693E+03  0.12508909309E+03 0.  0.
        -24    2    1    2    0    0 -0.29877780156E+02  0.36117256052E+02  0.59322982430E+03  0.60029961050E+03  0.78999113868E+02 0.  0.
        -13    1    3    3    0    0  0.16167521906E+01  0.62748946258E+01  0.22793739841E+02  0.23696893597E+02  0.00000000000E+00 0.  1.
         14    1    3    3    0    0 -0.88168526076E+01 -0.44035563255E+02 -0.94766316457E+02  0.10486907292E+03  0.00000000000E+00 0. -1.
         13    1    5    5    0    0 -0.32793179229E+02  0.18763605429E+02  0.56952735141E+03  0.57077917753E+03  0.00000000000E+00 0. -1.
        -14    1    5    5    0    0  0.29153990729E+01  0.17353650624E+02  0.23702472890E+02  0.29520432972E+02  0.00000000000E+00 0.  1.
          5    1    4    4  501    0  0.24196055927E+02 -0.76884838855E+01  0.37172143334E+03  0.37261086714E+03  0.41800000000E+01 0. -1.
         -5    1    4    4    0  501  0.12881824646E+02  0.93318964620E+01 -0.45421893206E+01  0.17062519791E+02  0.41800000000E+01 0. -1.
</event>
<event>
11    1  0.8479398E-009  0.1493609E+03  0.7561462E-02  0.1097534E+00
         22   -1    0    0    0    0  0.00000000000E+00  0.00000000000E+00  0.65932815784E+03  0.65932815784E+03  0.00000000000E+00 0.  1.
         22   -1    0    0    0    0 -0.00000000000E+00 -0.00000000000E+00 -0.13577941252E+04  0.13577941252E+04  0.00000000000E+00 0. -1.
        -24    2    1    2    0    0 -0.72649188175E+02  0.36493128520E+02 -0.12847563947E+04  0.12898660740E+04  0.80906380177E+02 0.  0.
         25    2    1    2    0    0  0.93891633737E+02 -0.20554615498E+02  0.25086477606E+02  0.15973175649E+03  0.12508705595E+03 0.  0.
         24    2    1    2    0    0 -0.21242445562E+02 -0.15938513022E+02  0.56120394967E+03  0.56752445254E+03  0.80180131066E+02 0.  0.
        -13    1    5    5    0    0  0.25847706758E+02 -0.13893079560E+01  0.33573842972E+03  0.33673480265E+03  0.00000000000E+00 0.  1.
         14    1    5    5    0    0 -0.47090152321E+02 -0.14549205066E+02  0.22546551995E+03  0.23078964989E+03  0.00000000000E+00 0. -1.
         13    1    3    3    0    0  0.44697228695E+00  0.37880614590E+02 -0.60619712095E+03  0.60737969195E+03  0.00000000000E+00 0. -1.
        -14    1    3    3    0    0 -0.73096160462E+02 -0.13874860703E+01 -0.67855927370E+03  0.68248638208E+03  0.00000000000E+00 0.  1.
          5    1    4    4  501    0  0.24079537737E+01 -0.51264029771E+02 -0.17203844919E+02  0.54288522449E+02  0.41800000000E+01 0. -1.
         -5    1    4    4    0  501  0.91483679964E+02  0.30709414273E+02  0.42290322525E+02  0.10544323404E+03  0.41800000000E+01 0. -1.
</event>
<event>
11    1  0.8479398E-009  0.1769486E+03  0.7561462E-02  0.1072138E+00
         22   -1    0    0    0    0  0.00000000000E+00  0.00000000000E+00  0.77049900521E+03  0.77049900521E+03  0.00000000000E+00 0.  1.
         22   -1    0    0    0    0 -0.00000000000E+00 -0.00000000000E+00 -0.66257089633E+03  0.66257089633E+03  0.00000000000E+00 0.  1.
         24    2    1    2    0    0  0.77052626004E+02 -0.84983453022E+02 -0.42071390401E+03  0.44392276758E+03  0.83114018603E+02 0.  0.
         25    2    1    2    0    0 -0.12630604872E+03  0.11372658116E+03 -0.17772916965E+03  0.27590185745E+03  0.12508886440E+03 0.  0.
        -24    2    1    2    0    0  0.49253422715E+02 -0.28743128140E+02  0.70637118254E+03  0.71324527651E+03  0.80662939968E+02 0.  0.
        -11    1    3    3    0    0  0.40642843667E+02 -0.14021576410E+02 -0.27004299952E+03  0.27344408375E+03  0.00000000000E+00 0.  1.
         12    1    3    3    0    0  0.36409782337E+02 -0.70961876612E+02 -0.15067090449E+03  0.17047868383E+03  0.00000000000E+00 0. -1.
         11    1    5    5    0    0  0.11256956092E+02  0.24447463625E+02  0.10753939482E+03  0.11085629876E+03  0.00000000000E+00 0. -1.
        -12    1    5    5    0    0  0.37996466623E+02 -0.53190591765E+02  0.59883178772E+03  0.60238897775E+03  0.00000000000E+00 0.  1.
          5    1    4    4  501    0 -0.14067024800E+03  0.57836411548E+02 -0.11625988537E+03  0.19148629852E+03  0.41800000000E+01 0.  1.
         -5    1    4    4    0  501  0.14364199285E+02  0.55890169614E+02 -0.61469284278E+02  0.84415558935E+02  0.41800000000E+01 0.  1.
</event>
<event>
11    1  0.8479398E-009  0.1326130E+03  0.7561462E-02  0.1116099E+00
         22   -1    0    0    0    0  0.00000000000E+00  0.00000000000E+00  0.63688942704E+03  0.63688942704E+03  0.00000000000E+00 0.  1.
         22   -1    0    0    0    0 -0.00000000000E+00 -0.00000000000E+00 -0.51653749818E+03  0.51653749818E+03  0.00000000000E+00 0.  1.
        -24    2    1    2    0    0 -0.54628031191E+01 -0.40893478239E+02 -0.48381274666E+03  0.49238557127E+03  0.81649606136E+02 0.  0.
         25    2    1    2    0    0 -0.23404251145E+02 -0.20430672584E+01  0.15865835037E+03  0.20340269393E+03  0.12509296807E+03 0.  0.
         24    2    1    2    0    0  0.28867054264E+02  0.42936545497E+02  0.44550632515E+03  0.45763866002E+03  0.90996723177E+02 0.  0.
        -11    1    5    5    0    0  0.22459027283E+02  0.78203990342E+00  0.37186900142E+03  0.37254741135E+03  0.00000000000E+00 0.  1.
         12    1    5    5    0    0  0.64080269813E+01  0.42154505594E+02  0.73637323737E+02  0.85091248662E+02  0.00000000000E+00 0. -1.
         13    1    3    3    0    0 -0.24854663825E+02 -0.30198219234E+02 -0.92268981412E+02  0.10021602511E+03  0.00000000000E+00 0. -1.
        -14    1    3    3    0    0  0.19391860706E+02 -0.10695259005E+02 -0.39154376525E+03  0.39216954616E+03  0.00000000000E+00 0.  1.
          5    1    4    4  501    0 -0.11171800728E+01  0.36893199354E+02 -0.13506883551E+01  0.37170593336E+02  0.41800000000E+01 0.  1.
         -5    1    4    4    0  501 -0.22287071072E+02 -0.38936266612E+02  0.16000903873E+03  0.16623210060E+03  0.41800000000E+01 0.  1.
</event>
<event>
11    1  0.8479398E-009  0.1491179E+03  0.7561462E-02  0.1097784E+00
         22   -1    0    0    0    0  0.00000000000E+00  0.00000000000E+00  0.98603419630E+03  0.98603419630E+03  0.00000000000E+00 0. -1.
         22   -1    0    0    0    0 -0.00000000000E+00 -0.00000000000E+00 -0.30694712991E+03  0.30694712991E+03  0.00000000000E+00 0. -1.
        -24    2    1    2    0    0  0.22021782477E+02  0.73454510884E+01 -0.60085593885E+02  0.10126844271E+03  0.78141566026E+02 0.  0.
         25    2    1    2    0    0 -0.73025154403E+02 -0.70104035692E+02 -0.19375303215E+03  0.25186313039E+03  0.12509016741E+03 0.  0.
         24    2    1    2    0    0  0.51003371926E+02  0.62758584603E+02  0.93292569243E+03  0.93984975312E+03  0.80169987819E+02 0.  0.
        -13    1    5    5    0    0  0.37347461522E+02  0.26871268890E+00  0.16085830829E+03  0.16513721699E+03  0.00000000000E+00 0.  1.
         14    1    5    5    0    0  0.13655910404E+02  0.62489871914E+02  0.77206738414E+03  0.77471253613E+03  0.00000000000E+00 0. -1.
         11    1    3    3    0    0  0.39734513465E+02  0.28951042434E+02 -0.53313520477E+02  0.72521209890E+02  0.00000000000E+00 0. -1.
        -12    1    3    3    0    0 -0.17712730988E+02 -0.21605591346E+02 -0.67720734080E+01  0.28747232818E+02  0.00000000000E+00 0.  1.
          5    1    4    4  501    0 -0.97780551809E+01 -0.26907133460E+02  0.12718132678E+02  0.31604232200E+02  0.41800000000E+01 0. -1.
         -5    1    4    4    0  501 -0.63247099222E+02 -0.43196902232E+02 -0.20647116483E+03  0.22025889819E+03  0.41800000000E+01 0. -1.
</event>
<event>
11    1  0.8479398E-009  0.1358675E+03  0.7561462E-02  0.1112263E+00
         22   -1    0    0    0    0  0.00000000000E+00  0.00000000000E+00  0.25608233261E+03  0.25608233261E+03  0.00000000000E+00 0. -1.
         22   -1    0    0    0    0 -0.00000000000E+00 -0.00000000000E+00 -0.44636192985E+03  0.44636192985E+03  0.00000000000E+00 0. -1.
        -24    2    1    2    0    0 -0.43524301720E+02 -0.15988318682E+02 -0.24638837407E+03  0.26329938443E+03  0.80432231052E+02 0.  0.
         25    2    1    2    0    0  0.66661267050E+02  0.39086526852E+02 -0.15324447150E+03  0.21236818703E+03  0.12507956552E+03 0.  0.
         24    2    1    2    0    0 -0.23136965330E+02 -0.23098208170E+02  0.20935324833E+03  0.22677669100E+03  0.80808654301E+02 0.  0.
        -13    1    5    5    0    0  0.30599992918E+01  0.43774323789E+00 -0.69599474663E+01  0.76155159734E+01  0.00000000000E+00 0.  1.
         14    1    5    5    0    0 -0.26196964622E+02 -0.23535951408E+02  0.21631319580E+03  0.21916117503E+03  0.00000000000E+00 0. -1.
         13    1    3    3    0    0 -0.34368594738E+02 -0.39937201694E+02 -0.22108436825E+03  0.22727621580E+03  0.00000000000E+00 0. -1.
        -14    1    3    3    0    0 -0.91557069819E+01  0.23948883012E+02 -0.25304005814E+02  0.36023168629E+02  0.00000000000E+00 0.  1.
          5    1    4    4  501    0  0.53025738165E+02  0.52623075839E+01  0.13584219649E+01  0.53467172165E+02  0.41800000000E+01 0.  1.
         -5    1    4    4    0  501  0.13635528884E+02  0.33824219268E+02 -0.15460289347E+03  0.15890101487E+03  0.41800000000E+01 0.  1.
</event>
<event>
11    1  0.8479398E-009  0.1444414E+03  0.7561462E-02  0.1102698E+00
         22   -1    0    0    0    0  0.00000000000E+00  0.00000000000E+00  0.23480178601E+03  0.23480178601E+03  0.00000000000E+00 0.  1.
         22   -1    0    0    0    0 -0.00000000000E+00 -0.00000000000E+00 -0.71862530992E+03  0.71862530992E+03  0.00000000000E+00 0. -1.
        -24    2    1    2    0    0  0.32223393748E+02 -0.89347742619E+01 -0.51059281581E+03  0.51712877385E+03  0.74826251326E+02 0.  0.
         25    2    1    2    0    0 -0.19815807762E+02  0.79815325328E+02 -0.16114291358E+03  0.21994927468E+03  0.12508993740E+03 0.  0.
         24    2    1    2    0    0 -0.12407585987E+02 -0.70880551066E+02  0.18791220549E+03  0.21634904741E+03  0.79485298216E+02 0.  0.
        -13    1    5    5    0    0 -0.17460903785E+02 -0.30749703394E+02  0.16721565538E+03  0.17091372918E+03  0.00000000000E+00 0.  1.
         14    1    5    5    0    0  0.50533177983E+01 -0.40130847672E+02  0.20696550113E+02  0.45435318226E+02  0.00000000000E+00 0. -1.
         13    1    3    3    0    0  0.18672550990E+02 -0.35886807352E+02 -0.41308397979E+03  0.41506011789E+03  0.00000000000E+00 0. -1.
        -14    1    3    3    0    0  0.13550842758E+02  0.26952033090E+02 -0.97508836019E+02  0.10206865596E+03  0.00000000000E+00 0.  1.
          5    1    4    4  501    0  0.13238868511E+02 -0.24101682994E+02 -0.32345377363E+01  0.28001667753E+02  0.41800000000E+01 0.  1.
         -5    1    4    4    0  501 -0.33054676273E+02  0.10391700832E+03 -0.15790837584E+03  0.19194760692E+03  0.41800000000E+01 0.  1.
</event>
<event>
11    1  0.8479398E-009  0.1389997E+03  0.7561462E-02  0.1108681E+00
         22   -1    0    0    0    0  0.00000000000E+00  0.00000000000E+00  0.82868493149E+03  0.82868493149E+03  0.00000000000E+00 0.  1.
         22   -1    0    0    0    0 -0.00000000000E+00 -0.00000000000E+00 -0.92563852329E+03  0.92563852329E+03  0.00000000000E+00 0.  1.
        -24    2    1    2    0    0  0.48633758626E+02 -0.36379308805E+02 -0.89565042975E+03  0.90141173427E+03  0.81637771741E+02 0.  0.
         25    2    1    2    0    0 -0.70152090684E+02 -0.61863128096E+01  0.19562952046E+03  0.24264242792E+03  0.12507938384E+03 0.  0.
         24    2    1    2    0    0  0.21518332058E+02  0.42565621614E+02  0.60306731750E+03  0.61026929259E+03  0.80396201891E+02 0.  0.
        -13    1    5    5    0    0  0.36980346821E+02  0.56048503101E+02  0.35077976774E+03  0.35714902521E+03  0.00000000000E+00 0.  1.
         14    1    5    5    0    0 -0.15462014763E+02 -0.13482881487E+02  0.25228754976E+03  0.25312026738E+03  0.00000000000E+00 0. -1.
         13    1    3    3    0    0 -0.13193143248E+02 -0.20796303469E+02 -0.92112477527E+02  0.95348066488E+02  0.00000000000E+00 0. -1.
        -14    1    3    3    0    0  0.61826901874E+02 -0.15583005336E+02 -0.80353795222E+03  0.80606366778E+03  0.00000000000E+00 0.  1.
          5    1    4    4  501    0 -0.92885110031E+02 -0.34235818589E+02  0.10197921915E+03  0.14218638640E+03  0.41800000000E+01 0.  1.
         -5    1    4    4    0  501  0.22733019347E+02  0.28049505780E+02  0.93650301307E+02  0.10045604152E+03  0.41800000000E+01 0.  1.
</event>
<event>
11    1  0.8479398E-009  0.1750490E+03  0.7561462E-02  0.1073719E+00
         22   -1    0    0    0    0  0.00000000000E+00  0.00000000000E+00  0.32240056721E+03  0.32240056721E+03  0.00000000000E+00 0. -1.
         22   -1    0    0    0    0 -0.00000000000E+00 -0.00000000000E+00 -0.12607287956E+04  0.12607287956E+04  0.00000000000E+00 0.  1.
        -24    2    1    2    0    0  0.71103707892E+02 -0.60874738065E+01 -0.10719354622E+04  0.10773353319E+04  0.80703083466E+02 0.  0.
         25    2    1    2    0    0 -0.15810988185E+03  0.83111139300E+02 -0.94467746330E+02  0.23765054346E+03  0.12508968580E+03 0.  0.
         24    2    1    2    0    0  0.87006173959E+02 -0.77023665493E+02  0.22807498010E+03  0.26814348747E+03  0.79874989636E+02 0.  0.
        -11    1    5    5    0    0  0.60621547606E+01 -0.35281511094E+02  0.19991457674E+02  0.41002355120E+02  0.00000000000E+00 0.  1.
         12    1    5    5    0    0  0.80944019199E+02 -0.41742154399E+02  0.20808352243E+03  0.22714113235E+03  0.00000000000E+00 0. -1.
         13    1    3    3    0    0  0.36339145867E+02  0.95724252215E+01 -0.15082283794E+03  0.15543388721E+03  0.00000000000E+00 0. -1.
        -14    1    3    3    0    0  0.34764562025E+02 -0.15659899028E+02 -0.92111262425E+03  0.92190144471E+03  0.00000000000E+00 0.  1.
          5    1    4    4  501    0 -0.13597015625E+01 -0.19513685621E+01 -0.54659730294E+02  0.54870895231E+02  0.41800000000E+01 0.  1.
         -5    1    4    4    0  501 -0.15675018029E+03  0.85062507862E+02 -0.39808016036E+02  0.18277964822E+03  0.41800000000E+01 0.  1.
</event>
<event>
11    1  0.8479398E-009  0.1839764E+03  0.7561462E-02  0.1066471E+00
         22   -1    0    0    0    0  0.00000000000E+00  0.00000000000E+00  0.87120746212E+03  0.87120746212E+03  0.00000000000E+00 0. -1.
         22   -1    0    0    0    0 -0.00000000000E+00 -0.00000000000E+00 -0.10784981815E+03  0.10784981815E+03  0.00000000000E+00 0.  1.
        -24    2    1    2    0    0  0.11882729827E+03 -0.37629757591E+02  0.29707818904E+02  0.14848415532E+03  0.75027091145E+02 0.  0.
         25    2    1    2    0    0 -0.18359703279E+03 -0.33298902565E+02  0.27527526834E+03  0.35530465543E+03  0.12509291525E+03 0.  0.
         24    2    1    2    0    0  0.64769734519E+02  0.70928660156E+02  0.45837455673E+03  0.47526846953E+03  0.80912857605E+02 0.  0.
        -13    1    5    5    0    0 -0.17207606335E+02  0.15191066190E+02  0.13837832958E+03  0.14026914238E+03  0.00000000000E+00 0.  1.
         14    1    5    5    0    0  0.81977340854E+02  0.55737593966E+02  0.31999622715E+03  0.33499932714E+03  0.00000000000E+00 0. -1.
         13    1    3    3    0    0  0.11096229329E+03 -0.39844776906E+02  0.48890059624E+02  0.12763414398E+03  0.00000000000E+00 0. -1.
        -14    1    3    3    0    0  0.78650049857E+01  0.22150193148E+01 -0.19182240721E+02  0.20850011344E+02  0.00000000000E+00 0.  1.
          5    1    4    4  501    0 -0.13345331703E+03 -0.44019478064E+02  0.99711757520E+02  0.17235837451E+03  0.41800000000E+01 0.  1.
         -5    1    4    4    0  501 -0.50143715761E+02  0.10720575499E+02  0.17556351082E+03  0.18294628092E+03  0.41800000000E+01 0.  1.
</event>
<event>
11    1  0.8479398E-009  0.1486874E+03  0.7561462E-02  0.1098228E+00
         22   -1    0    0    0    0  0.00000000000E+00  0.00000000000E+00  0.19317648855E+03  0.19317648855E+03  0.00000000000E+00 0. -1.
         22   -1    0    0    0    0 -0.00000000000E+00 -0.00000000000E+00 -0.13165226032E+04  0.13165226032E+04  0.00000000000E+00 0.  1.
        -24    2    1    2    0    0  0.15868130150E+01 -0.14213885057E+02 -0.11294806223E+04  0.11321777287E+04  0.76781383426E+02 0.  0.
         25    2    1    2    0    0 -0.79719692129E+02  0.30708436737E+02 -0.13022467561E+03  0.19976327601E+03  0.12509461581E+03 0.  0.
         24    2    1    2    0    0  0.78132879114E+02 -0.16494551679E+02  0.13635918324E+03  0.17775808701E+03  0.81408191279E+02 0.  0.
        -13    1    5    5    0    0  0.24072336714E+01  0.22328590069E+02  0.81774053629E+01  0.23900432358E+02  0.00000000000E+00 0.  1.
         14    1    5    5    0    0  0.75725645443E+02 -0.38823141749E+02  0.12818177788E+03  0.15385765465E+03  0.00000000000E+00 0. -1.
         13    1    3    3    0    0  0.12002445910E+02  0.29837786799E+02 -0.54398138606E+03  0.54493128063E+03  0.00000000000E+00 0. -1.
        -14    1    3    3    0    0 -0.10415632895E+02 -0.44051671856E+02 -0.58549923622E+03  0.58724644811E+03  0.00000000000E+00 0.  1.
          5    1    4    4  501    0 -0.71515319592E+02 -0.16377006194E+02 -0.15071372746E+02  0.75015104776E+02  0.41800000000E+01 0. -1.
         -5    1    4    4    0  501 -0.82043725374E+01  0.47085442930E+02 -0.11515330287E+03  0.12474817123E+03  0.41800000000E+01 0. -1.
</event>
<event>
11    1  0.8479398E-009  0.1440561E+03  0.7561462E-02  0.1103112E+00
         22   -1    0    0    0    0  0.00000000000E+00  0.00000000000E+00  0.10679556556E+03  0.10679556556E+03  0.00000000000E+00 0.  1.
         22   -1    0    0    0    0 -0.00000000000E+00 -0.00000000000E+00 -0.58021847776E+03  0.58021847776E+03  0.00000000000E+00 0. -1.
         24    2    1    2    0    0  0.17056458496E+02  0.31359461809E+02 -0.41834369644E+03  0.42714745072E+03  0.78543985643E+02 0.  0.
         25    2    1    2    0    0 -0.21388214024E+02  0.52498263662E+02 -0.38273581883E+02  0.14256646064E+03  0.12508719056E+03 0.  0.
        -24    2    1    2    0    0  0.43317555280E+01 -0.83857725471E+02 -0.16805633876E+02  0.11730013197E+03  0.80162393947E+02 0.  0.
        -11    1    3    3    0    0  0.45535614605E+02  0.85087541890E+01 -0.17270041208E+03  0.17880526678E+03  0.00000000000E+00 0.  1.
         12    1    3    3    0    0 -0.28479156109E+02  0.22850707620E+02 -0.24564328436E+03  0.24834218393E+03  0.00000000000E+00 0. -1.
         11    1    5    5    0    0  0.97733240401E+01  0.68411237362E+01 -0.23331093105E+02  0.26204174138E+02  0.00000000000E+00 0. -1.
        -12    1    5    5    0    0 -0.54415685121E+01 -0.90698849207E+02  0.65254592290E+01  0.91095957833E+02  0.00000000000E+00 0.  1.
          5    1    4    4  501    0  0.10438249371E+02  0.82901818562E+02  0.64687300920E+00  0.83663369616E+02  0.41800000000E+01 0. -1.
         -5    1    4    4    0  501 -0.31826463395E+02 -0.30403554900E+02 -0.38920454892E+02  0.58903091020E+02  0.41800000000E+01 0. -1.
</event>
<event>
11    1  0.8479398E-009  0.1453136E+03  0.7561462E-02  0.1101766E+00
         22   -1    0    0    0    0  0.00000000000E+00  0.00000000000E+00  0.10196546943E+04  0.10196546943E+04  0.00000000000E+00 0. -1.
         22   -1    0    0    0    0 -0.00000000000E+00 -0.00000000000E+00 -0.33753890958E+03  0.33753890958E+03  0.00000000000E+00 0. -1.
         24    2    1    2    0    0 -0.20865366677E+02 -0.66963259916E+02 -0.24970345275E+03  0.27260845677E+03  0.83929224245E+02 0.  0.
         25    2    1    2    0    0  0.80369504978E+02  0.85475779425E+02  0.26614627220E+02  0.17355058523E+03  0.12508437574E+03 0.  0.
        -24    2    1    2    0    0 -0.59504138301E+02 -0.18512519509E+02  0.90520461027E+03  0.91103456189E+03  0.81884862185E+02 0.  0.
        -11    1    3    3    0    0 -0.12786200835E+02 -0.12460745336E+02 -0.19198588280E+03  0.19281425336E+03  0.00000000000E+00 0.  1.
         12    1    3    3    0    0 -0.80791658417E+01 -0.54502514579E+02 -0.57717569949E+02  0.79794203405E+02  0.00000000000E+00 0. -1.
         13    1    5    5    0    0 -0.18256980181E+02 -0.44391447480E+02  0.60555748811E+03  0.60745682096E+03  0.00000000000E+00 0. -1.
        -14    1    5    5    0    0 -0.41247158121E+02  0.25878927971E+02  0.29964712216E+03  0.30357774092E+03  0.00000000000E+00 0.  1.
          5    1    4    4  501    0  0.57326113072E+02  0.11432454447E+03  0.39981995538E+02  0.13406124375E+03  0.41800000000E+01 0. -1.
         -5    1    4    4    0  501  0.23043391906E+02 -0.28848765044E+02 -0.13367368317E+02  0.39489341484E+02  0.41800000000E+01 0. -1.
</event>
<event>
11    1  0.8479398E-009  0.1340293E+03  0.7561462E-02  0.1114415E+00
         22   -1    0    0    0    0  0.00000000000E+00  0.00000000000E+00  0.49531079138E+03  0.49531079138E+03  0.00000000000E+00 0. -1.
         22   -1    0    0    0    0 -0.00000000000E+00 -0.00000000000E+00 -0.12316921078E+03  0.12316921078E+03  0.00000000000E+00 0. -1.
         24    2    1    2    0    0 -0.39757592783E+02  0.25523969316E+02 -0.25011064975E+02  0.96433672368E+02  0.80260579375E+02 0.  0.
         25    2    1    2    0    0  0.52571162620E+02  0.22122947031E+02  0.27648441043E+02  0.14023076214E+03  0.12508828256E+03 0.  0.
        -24    2    1    2    0    0 -0.12813569837E+02 -0.47646916347E+02  0.36950420453E+03  0.38181556765E+03  0.82555159289E+02 0.  0.
        -13    1    3    3    0    0  0.68198599533E+01  0.26402550478E+02  0.18287417051E+02  0.32833440026E+02  0.00000000000E+00 0.  1.
         14    1    3    3    0    0 -0.46577452736E+02 -0.87858116249E+00 -0.43298482026E+02  0.63600232342E+02  0.00000000000E+00 0. -1.
         11    1    5    5    0    0  0.18625810399E+02 -0.44383438253E+02  0.31621463064E+03  0.31985700404E+03  0.00000000000E+00 0. -1.
        -12    1    5    5    0    0 -0.31439380237E+02 -0.32634780939E+01  0.53289573890E+02  0.61958563608E+02  0.00000000000E+00 0.  1.
          5    1    4    4  501    0 -0.22985261243E+02 -0.22420207891E+02  0.40103080153E+02  0.51543354509E+02  0.41800000000E+01 0. -1.
         -5    1    4    4    0  501  0.75556423863E+02  0.44543154922E+02 -0.12454639110E+02  0.88687407633E+02  0.41800000000E+01 0. -1.
</event>
<event>
11    1  0.8479398E-009  0.1365455E+03  0.7561462E-02  0.1111478E+00
         22   -1    0    0    0    0  0.00000000000E+00  0.00000000000E+00  0.10613183569E+04  0.10613183569E+04  0.00000000000E+00 0.  1.
         22   -1    0    0    0    0 -0.00000000000E+00 -0.00000000000E+00 -0.29630142103E+03  0.29630142103E+03  0.00000000000E+00 0.  1.
        -24    2    1    2    0    0 -0.22950141038E+02 -0.28871254602E+02 -0.20457575909E+03  0.22268349581E+03  0.79852612884E+02 0.  0.
         25    2    1    2    0    0  0.23682983644E+02  0.82771668317E+02 -0.84501982330E+01  0.15208442078E+03  0.12508490079E+03 0.  0.
         24    2    1    2    0    0 -0.73284260589E+00 -0.53900413715E+02  0.97804289317E+03  0.98285186131E+03  0.80771831393E+02 0.  0.
        -13    1    5    5    0    0  0.25252991536E+02 -0.40256607635E+02  0.85643091455E+03  0.85774834272E+03  0.00000000000E+00 0.  1.
         14    1    5    5    0    0 -0.25985834142E+02 -0.13643806081E+02  0.12161197861E+03  0.12510351859E+03  0.00000000000E+00 0. -1.
         11    1    3    3    0    0 -0.27681553938E+02  0.12397793107E+02 -0.27972060651E+02  0.41260269987E+02  0.00000000000E+00 0. -1.
        -12    1    3    3    0    0  0.47314128997E+01 -0.41269047709E+02 -0.17660369844E+03  0.18142322582E+03  0.00000000000E+00 0.  1.
          5    1    4    4  501    0  0.58532340430E+02  0.75433399855E+02  0.29356311588E+02  0.99977488066E+02  0.41800000000E+01 0.  1.
         -5    1    4    4    0  501 -0.34849356786E+02  0.73382684618E+01 -0.37806509821E+02  0.52106932718E+02  0.41800000000E+01 0.  1.
</event>
<event>
11    1  0.8479398E-009  0.1958788E+03  0.7561462E-02  0.1057477E+00
         22   -1    0    0    0    0  0.00000000000E+00  0.00000000000E+00  0.19098144270E+04  0.19098144270E+04  0.00000000000E+00 0.  1.
         22   -1    0    0    0    0 -0.00000000000E+00 -0.00000000000E+00 -0.86474011633E+03  0.86474011633E+03  0.00000000000E+00 0.  1.
        -24    2    1    2    0    0 -0.12524124623E+02  0.25710237737E+02 -0.84140832741E+03  0.84520372057E+03  0.74722726167E+02 0.  0.
         25    2    1    2    0    0 -0.14076211105E+03 -0.39367805973E+01  0.54595069173E+03  0.57752818737E+03  0.12508868559E+03 0.  0.
         24    2    1    2    0    0  0.15328623568E+03 -0.21773457140E+02  0.13405319463E+04  0.13518226354E+04  0.80173467249E+02 0.  0.
        -13    1    5    5    0    0  0.63419168408E+02 -0.41392009333E+02  0.79407153798E+03  0.79767468105E+03  0.00000000000E+00 0.  1.
         14    1    5    5    0    0  0.89867067269E+02  0.19618552193E+02  0.54646040835E+03  0.55414795431E+03  0.00000000000E+00 0. -1.
         11    1    3    3    0    0  0.22109485886E+02 -0.14569446629E+02 -0.24111516207E+03  0.24256467080E+03  0.00000000000E+00 0. -1.
        -12    1    3    3    0    0 -0.34633610509E+02  0.40279684367E+02 -0.60029316534E+03  0.60263904977E+03  0.00000000000E+00 0.  1.
          5    1    4    4  501    0 -0.14304964206E+03 -0.66230141109E+01  0.30988315813E+03  0.34139728836E+03  0.41800000000E+01 0. -1.
         -5    1    4    4    0  501  0.22875310031E+01  0.26862335136E+01  0.23606753360E+03  0.23613089901E+03  0.41800000000E+01 0. -1.
</event>
<event>
11    1  0.8479398E-009  0.1415329E+03  0.7561462E-02  0.1105859E+00
         22   -1    0    0    0    0  0.00000000000E+00  0.00000000000E+00  0.58451625198E+03  0.58451625198E+03  0.00000000000E+00 0. -1.
         22   -1    0    0    0    0 -0.00000000000E+00 -0.00000000000E+00 -0.30302855723E+03  0.30302855723E+03  0.00000000000E+00 0. -1.
        -24    2    1    2    0    0 -0.46389225815E+02  0.48302245552E+02 -0.20373530463E+03  0.23104063375E+03  0.85945522835E+02 0.  0.
         25    2    1    2    0    0  0.46460375417E+02 -0.42625923961E+02 -0.22347442164E+02  0.14184877495E+03  0.12508449507E+03 0.  0.
         24    2    1    2    0    0 -0.71149601785E-01 -0.56763215919E+01  0.50757044154E+03  0.51465540050E+03  0.84912911017E+02 0.  0.
        -11    1    5    5    0    0 -0.93835433849E+01 -0.42357015285E+02  0.19295845502E+03  0.19777546105E+03  0.00000000000E+00 0.  1.
         12    1    5    5    0    0  0.93123937831E+01  0.36680693693E+02  0.31461198652E+03  0.31687993945E+03  0.00000000000E+00 0. -1.
         13    1    3    3    0    0 -0.66790105361E+02  0.29801588518E+02 -0.18137582638E+03  0.19556646760E+03  0.00000000000E+00 0. -1.
        -14    1    3    3    0    0  0.20400879546E+02  0.18500657034E+02 -0.22359478244E+02  0.35474166154E+02  0.00000000000E+00 0.  1.
          5    1    4    4  501    0 -0.23615850513E+02  0.15112874282E+02 -0.40227163650E+02  0.49211832518E+02  0.41800000000E+01 0. -1.
         -5    1    4    4    0  501  0.70076225930E+02 -0.57738798242E+02  0.17879721486E+02  0.92636942434E+02  0.41800000000E+01 0. -1.
</event>
<event>
11    1  0.8479398E-009  0.1460881E+03  0.7561462E-02  0.1100944E+00
         22   -1    0    0    0    0  0.00000000000E+00  0.00000000000E+00  0.52663970130E+03  0.52663970130E+03  0.00000000000E+00 0. -1.
         22   -1    0    0    0    0 -0.00000000000E+00 -0.00000000000E+00 -0.39075360649E+03  0.39075360649E+03  0.00000000000E+00 0.  1.
         24    2    1    2    0    0  0.23965603930E+02 -0.64433232611E+02 -0.23000332643E+03  0.25087114049E+03  0.72861562762E+02 0.  0.
         25    2    1    2    0    0 -0.21409182012E+02  0.10377716938E+03 -0.10017374115E+03  0.19212029141E+03  0.12508946398E+03 0.  0.
        -24    2    1    2    0    0 -0.25564219184E+01 -0.39343936768E+02  0.46606316239E+03  0.47440187589E+03  0.79295572719E+02 0.  0.
        -11    1    3    3    0    0  0.36860447619E+02 -0.68478560942E+02 -0.14258695682E+03  0.16241627431E+03  0.00000000000E+00 0.  1.
         12    1    3    3    0    0 -0.12894843688E+02  0.40453283317E+01 -0.87416369610E+02  0.88454866180E+02  0.00000000000E+00 0. -1.
         13    1    5    5    0    0  0.14158986117E+02 -0.50464871842E+02  0.42952525610E+03  0.43271136547E+03  0.00000000000E+00 0. -1.
        -14    1    5    5    0    0 -0.16715408035E+02  0.11120935074E+02  0.36537906289E+02  0.41690510416E+02  0.00000000000E+00 0.  1.
          5    1    4    4  501    0  0.40969575241E+02  0.45957124453E+02 -0.85911267376E+02  0.10577703742E+03  0.41800000000E+01 0.  1.
         -5    1    4    4    0  501 -0.62378757253E+02  0.57820044926E+02 -0.14262473776E+02  0.86343253992E+02  0.41800000000E+01 0.  1.
</event>
<event>
11    1  0.8479398E-009  0.1467410E+03  0.7561462E-02  0.1100256E+00
         22   -1    0    0    0    0  0.00000000000E+00  0.00000000000E+00  0.25064773801E+03  0.25064773801E+03  0.00000000000E+00 0.  1.
         22   -1    0    0    0    0 -0.00000000000E+00 -0.00000000000E+00 -0.90686207196E+03  0.90686207196E+03  0.00000000000E+00 0.  1.
         24    2    1    2    0    0  0.25926893806E+02  0.10858638199E+02 -0.64529750872E+03  0.65093902200E+03  0.80762749795E+02 0.  0.
         25    2    1    2    0    0  0.33170148473E+02  0.40222075124E+02 -0.22642672987E+03  0.26388510991E+03  0.12509281816E+03 0.  0.
        -24    2    1    2    0    0 -0.59097042279E+02 -0.51080713323E+02  0.21550990465E+03  0.24268567805E+03  0.79687638001E+02 0.  0.
        -13    1    3    3    0    0  0.24550537675E+02 -0.14166217500E+02 -0.58438436677E+03  0.58507136210E+03  0.00000000000E+00 0.  1.
         14    1    3    3    0    0  0.13763561315E+01  0.25024855700E+02 -0.60913141951E+02  0.65867659905E+02  0.00000000000E+00 0. -1.
         13    1    5    5    0    0  0.95106876075E+00 -0.35266123181E+01  0.12090214308E+03  0.12095730539E+03  0.00000000000E+00 0. -1.
        -14    1    5    5    0    0 -0.60048111040E+02 -0.47554101005E+02  0.94607761574E+02  0.12172837267E+03  0.00000000000E+00 0.  1.
          5    1    4    4  501    0  0.42509119619E+02  0.11485435197E+02 -0.22903788913E+03  0.23326973128E+03  0.41800000000E+01 0.  1.
         -5    1    4    4    0  501 -0.93389711459E+01  0.28736639927E+02  0.26111592566E+01  0.30615378636E+02  0.41800000000E+01 0.  1.
</event>
<event>
11    1  0.8479398E-009  0.1498446E+03  0.7561462E-02  0.1097038E+00
         22   -1    0    0    0    0  0.00000000000E+00  0.00000000000E+00  0.21235898123E+03  0.21235898123E+03  0.00000000000E+00 0.  1.
         22   -1    0    0    0    0 -0.00000000000E+00 -0.00000000000E+00 -0.17900999005E+04  0.17900999005E+04  0.00000000000E+00 0. -1.
        -24    2    1    2    0    0 -0.81360885914E+02  0.12660241673E+02 -0.15092647462E+04  0.15136665273E+04  0.80786175193E+02 0.  0.
         25    2    1    2    0    0  0.78958605899E+02 -0.36738319079E+02 -0.24796466239E+03  0.29106507935E+03  0.12509292981E+03 0.  0.
         24    2    1    2    0    0  0.24022800150E+01  0.24078077406E+02  0.17948848938E+03  0.19772727507E+03  0.79337461067E+02 0.  0.
        -13    1    5    5    0    0 -0.76352495653E+01 -0.28021267644E+02  0.50551612710E+02  0.58300549087E+02  0.00000000000E+00 0.  1.
         14    1    5    5    0    0  0.10037529580E+02  0.52099345050E+02  0.12893687667E+03  0.13942672599E+03  0.00000000000E+00 0. -1.
         13    1    3    3    0    0 -0.69778616583E+02  0.36485437976E+01 -0.56723087957E+03  0.57151836186E+03  0.00000000000E+00 0. -1.
        -14    1    3    3    0    0 -0.11582269330E+02  0.90116978752E+01 -0.94203386665E+03  0.94214816541E+03  0.00000000000E+00 0.  1.
          5    1    4    4  501    0 -0.91078021243E+01 -0.58698821018E+02 -0.12192863338E+03  0.13569291686E+03  0.41800000000E+01 0.  1.
         -5    1    4    4    0  501  0.88066408023E+02  0.21960501939E+02 -0.12603602901E+03  0.15537216249E+03  0.41800000000E+01 0.  1.
</event>
<event>
11    1  0.8479398E-009  0.2395066E+03  0.7561462E-02  0.1029643E+00
         22   -1    0    0    0    0  0.00000000000E+00  0.00000000000E+00  0.29169499248E+03  0.29169499248E+03  0.00000000000E+00 0.  1.
         22   -1    0    0    0    0 -0.00000000000E+00 -0.00000000000E+00 -0.70824105148E+03  0.70824105148E+03  0.00000000000E+00 0.  1.
         24    2    1    2    0    0 -0.69045920510E+02  0.14810043490E+03 -0.24347548912E+03  0.30386801649E+03  0.79714363110E+02 0.  0.
         25    2    1    2    0    0  0.36245145165E+02 -0.30556033893E+03 -0.32307252265E+03  0.46336122147E+03  0.12508771082E+03 0.  0.
        -24    2    1    2    0    0  0.32800775345E+02  0.15745990403E+03  0.15000195277E+03  0.23270680601E+03  0.76041827228E+02 0.  0.
        -13    1    3    3    0    0 -0.32713158661E+02  0.93165893162E+02 -0.20512429854E+03  0.22765327200E+03  0.00000000000E+00 0.  1.
         14    1    3    3    0    0 -0.36332761849E+02  0.54934541735E+02 -0.38351190580E+02  0.76214744492E+02  0.00000000000E+00 0. -1.
         11    1    5    5    0    0  0.52960470686E+02  0.72677555317E+02  0.87437323389E+02  0.12542776417E+03  0.00000000000E+00 0. -1.
        -12    1    5    5    0    0 -0.20159695341E+02  0.84782348712E+02  0.62564629383E+02  0.10727904184E+03  0.00000000000E+00 0.  1.
          5    1    4    4  501    0  0.78600885053E+02 -0.18292002840E+03 -0.16352811910E+03  0.25767567610E+03  0.41800000000E+01 0.  1.
         -5    1    4    4    0  501 -0.42355739887E+02 -0.12264031053E+03 -0.15954440355E+03  0.20568554537E+03  0.41800000000E+01 0.  1.
</event>
<event>
11    1  0.8479398E-009  0.1312941E+03  0.7561462E-02  0.1117689E+00
         22   -1    0    0    0    0  0.00000000000E+00  0.00000000000E+00  0.18851210502E+04  0.18851210502E+04  0.00000000000E+00 0. -1.
         22   -1    0    0    0    0 -0.00000000000E+00 -0.00000000000E+00 -0.91449934265E+02  0.91449934265E+02  0.00000000000E+00 0. -1.
        -24    2    1    2    0    0 -0.11849903366E+02 -0.47645519711E+02 -0.59828584830E+02  0.99115676646E+02  0.61918834259E+02 0.  0.
         25    2    1    2    0    0 -0.15212716822E+02  0.11325905473E+02  0.36889364334E+03  0.38998131884E+03  0.12507280304E+03 0.  0.
         24    2    1    2    0    0  0.27062620188E+02  0.36319614237E+02  0.14846060574E+04  0.14874739889E+04  0.80450123429E+02 0.  0.
        -11    1    5    5    0    0 -0.46885908491E+01  0.11227561661E+02  0.30964651469E+02  0.33269365272E+02  0.00000000000E+00 0.  1.
         12    1    5    5    0    0  0.31751211037E+02  0.25092052577E+02  0.14536414059E+04  0.14542046237E+04  0.00000000000E+00 0. -1.
         11    1    3    3    0    0 -0.22117204189E+02 -0.10367522571E+02 -0.54960808557E+02  0.60144382303E+02  0.00000000000E+00 0. -1.
        -12    1    3    3    0    0  0.10267300822E+02 -0.37277997140E+02 -0.48677762723E+01  0.38971294343E+02  0.00000000000E+00 0.  1.
          5    1    4    4  501    0 -0.31678222651E+02 -0.27348770576E+02  0.32965534578E+03  0.33232752586E+03  0.41800000000E+01 0. -1.
         -5    1    4    4    0  501  0.16465505829E+02  0.38674676049E+02  0.39238297562E+02  0.57653792983E+02  0.41800000000E+01 0. -1.
</event>
<event>
11    1  0.8479398E-009  0.1333209E+03  0.7561462E-02  0.1115255E+00
         22   -1    0    0    0    0  0.00000000000E+00  0.00000000000E+00  0.14278118946E+04  0.14278118946E+04  0.00000000000E+00 0.  1.
         22   -1    0    0    0    0 -0.00000000000E+00 -0.00000000000E+00 -0.28924639413E+03  0.28924639413E+03  0.00000000000E+00 0. -1.
         24    2    1    2    0    0  0.77261590629E+01  0.62162407817E+02 -0.23661154924E+03  0.25379901380E+03  0.67119711658E+02 0.  0.
         25    2    1    2    0    0  0.35305129732E+02 -0.77109868661E+02  0.92487201057E+02  0.17718332005E+03  0.12509061722E+03 0.  0.
        -24    2    1    2    0    0 -0.43031288795E+02  0.14947460844E+02  0.12826898487E+04  0.12860759549E+04  0.81381788367E+02 0.  0.
        -11    1    3    3    0    0 -0.16282705763E+02  0.40395386692E+01 -0.12201545248E+02  0.20744206084E+02  0.00000000000E+00 0.  1.
         12    1    3    3    0    0  0.24008864826E+02  0.58122869148E+02 -0.22441000399E+03  0.23305480771E+03  0.00000000000E+00 0. -1.
         13    1    5    5    0    0 -0.60540675212E+02  0.32294835384E+02  0.94268760696E+03  0.94518149266E+03  0.00000000000E+00 0. -1.
        -14    1    5    5    0    0  0.17509386416E+02 -0.17347374540E+02  0.34000224170E+03  0.34089446223E+03  0.00000000000E+00 0.  1.
          5    1    4    4  501    0  0.58450411202E+02 -0.97828702266E+02  0.50326878806E+02  0.12464819568E+03  0.41800000000E+01 0. -1.
         -5    1    4    4    0  501 -0.23145281470E+02  0.20718833605E+02  0.42160322251E+02  0.52535124370E+02  0.41800000000E+01 0. -1.
</event>
<event>
11    1  0.8479398E-009  0.1317043E+03  0.7561462E-02  0.1117193E+00
         22   -1    0    0    0    0  0.00000000000E+00  0.00000000000E+00  0.19442853574E+04  0.19442853574E+04  0.00000000000E+00 0. -1.
         22   -1    0    0    0    0 -0.00000000000E+00 -0.00000000000E+00 -0.14997978343E+04  0.14997978343E+04  0.00000000000E+00 0. -1.
         24    2    1    2    0    0  0.41105139565E+02  0.18202556016E+01 -0.14816901879E+04  0.14842961572E+04  0.77693780561E+02 0.  0.
         25    2    1    2    0    0 -0.58832806203E+02 -0.13374223207E+02  0.29027244031E+03  0.32178403829E+03  0.12508680492E+03 0.  0.
        -24    2    1    2    0    0  0.17727666638E+02  0.11553967605E+02  0.16359052707E+04  0.16380029962E+04  0.80124881417E+02 0.  0.
        -11    1    3    3    0    0  0.25440138496E+02  0.24445061407E+02 -0.27022468372E+03  0.27251814869E+03  0.00000000000E+00 0.  1.
         12    1    3    3    0    0  0.15665001069E+02 -0.22624805805E+02 -0.12114655042E+04  0.12117780085E+04  0.00000000000E+00 0. -1.
         13    1    5    5    0    0  0.45672988667E+02 -0.10972412556E+02  0.93660897050E+03  0.93778610533E+03  0.00000000000E+00 0. -1.
        -14    1    5    5    0    0 -0.27945322029E+02  0.22526380161E+02  0.69929630022E+03  0.70021689092E+03  0.00000000000E+00 0.  1.
          5    1    4    4  501    0 -0.38670532000E+02 -0.56471796432E+02  0.25023241498E+03  0.25945752590E+03  0.41800000000E+01 0. -1.
         -5    1    4    4    0  501 -0.20162274203E+02  0.43097573226E+02  0.40040025323E+02  0.62326512391E+02  0.41800000000E+01 0. -1.
</event>
<event>
11    1  0.8479398E-009  0.1373634E+03  0.7561462E-02  0.1110539E+00
         22   -1    0    0    0    0  0.00000000000E+00  0.00000000000E+00  0.10702360114E+04  0.10702360114E+04  0.00000000000E+00 0. -1.
         22   -1    0    0    0    0 -0.00000000000E+00 -0.00000000000E+00 -0.60168095951E+03  0.60168095951E+03  0.00000000000E+00 0. -1.
         24    2    1    2    0    0  0.10878652165E+02 -0.24159068656E+02 -0.49648961113E+03  0.50558851512E+03  0.91737707602E+02 0.  0.
         25    2    1    2    0    0 -0.63161727858E+02  0.21277950067E+01 -0.48369381379E+02  0.14826080612E+03  0.12509091973E+03 0.  0.
        -24    2    1    2    0    0  0.52283075693E+02  0.22031273650E+02  0.10134140444E+04  0.10180676497E+04  0.78960856740E+02 0.  0.
        -11    1    3    3    0    0  0.13945157158E+02 -0.56662649686E+02 -0.23818809180E+03  0.24523191137E+03  0.00000000000E+00 0.  1.
         12    1    3    3    0    0 -0.30665049931E+01  0.32503581029E+02 -0.25830151932E+03  0.26035660375E+03  0.00000000000E+00 0. -1.
         13    1    5    5    0    0  0.70565880101E+02  0.93882922078E+01  0.87381497630E+03  0.87670992710E+03  0.00000000000E+00 0. -1.
        -14    1    5    5    0    0 -0.18282804409E+02  0.12642981442E+02  0.13959906810E+03  0.14135772257E+03  0.00000000000E+00 0.  1.
          5    1    4    4  501    0 -0.20418398917E+02  0.58368339142E+02  0.98588719616E+00  0.61985630609E+02  0.41800000000E+01 0. -1.
         -5    1    4    4    0  501 -0.42743328941E+02 -0.56240544135E+02 -0.49355268575E+02  0.86275175513E+02  0.41800000000E+01 0. -1.
</event>
<event>
11    1  0.8479398E-009  0.1831177E+03  0.7561462E-02  0.1067149E+00
         22   -1    0    0    0    0  0.00000000000E+00  0.00000000000E+00  0.28429278374E+03  0.28429278374E+03  0.00000000000E+00 0. -1.
         22   -1    0    0    0    0 -0.00000000000E+00 -0.00000000000E+00 -0.29436434137E+04  0.29436434137E+04  0.00000000000E+00 0. -1.
        -24    2    1    2    0    0  0.78685965524E+02  0.17333213576E+02 -0.25113541311E+04  0.25140036757E+04  0.82601381199E+02 0.  0.
         25    2    1    2    0    0  0.26238419157E+02 -0.10445449368E+03 -0.39079503069E+03  0.42422614951E+03  0.12509146266E+03 0.  0.
         24    2    1    2    0    0 -0.10492438468E+03  0.87121280108E+02  0.24279853191E+03  0.28970637214E+03  0.79871215150E+02 0.  0.
        -11    1    5    5    0    0  0.77156939628E+00 -0.10769504497E+02  0.36654425746E+02  0.38211575121E+02  0.00000000000E+00 0.  1.
         12    1    5    5    0    0 -0.10569595408E+03  0.97890784605E+02  0.20614410616E+03  0.25149479701E+03  0.00000000000E+00 0. -1.
         11    1    3    3    0    0  0.90492244259E+02  0.18099047326E+02 -0.16571459340E+04  0.16597135501E+04  0.00000000000E+00 0. -1.
        -12    1    3    3    0    0 -0.11806278735E+02 -0.76583374944E+00 -0.85420819710E+03  0.85429012561E+03  0.00000000000E+00 0.  1.
          5    1    4    4  501    0 -0.43249375909E+02 -0.75149138476E+02 -0.17019698064E+03  0.19105597648E+03  0.41800000000E+01 0.  1.
         -5    1    4    4    0  501  0.69487795065E+02 -0.29305355208E+02 -0.22059805005E+03  0.23317017303E+03  0.41800000000E+01 0.  1.
</event>
<event>
11    1  0.8479398E-009  0.1803074E+03  0.7561462E-02  0.1069394E+00
         22   -1    0    0    0    0  0.00000000000E+00  0.00000000000E+00  0.15919783461E+04  0.15919783461E+04  0.00000000000E+00 0.  1.
         22   -1    0    0    0    0 -0.00000000000E+00 -0.00000000000E+00 -0.11839431346E+04  0.11839431346E+04  0.00000000000E+00 0. -1.
         24    2    1    2    0    0 -0.86621961878E+02 -0.97733641471E+02 -0.11596528024E+04  0.11697367871E+04  0.80214087983E+02 0.  0.
         25    2    1    2    0    0  0.50224992985E+02  0.66130352471E+02  0.30405785718E+03  0.33910859241E+03  0.12509070106E+03 0.  0.
        -24    2    1    2    0    0  0.36396968893E+02  0.31603289000E+02  0.12636301567E+04  0.12670761012E+04  0.79982287131E+02 0.  0.
        -11    1    3    3    0    0  0.71572586534E+01 -0.31176416886E+02 -0.13936982618E+03  0.14299350954E+03  0.00000000000E+00 0.  1.
         12    1    3    3    0    0 -0.93779220531E+02 -0.66557224584E+02 -0.10202829762E+04  0.10267432775E+04  0.00000000000E+00 0. -1.
         13    1    5    5    0    0  0.28073689741E+02  0.31032832898E+02  0.25495526336E+03  0.25836670662E+03  0.00000000000E+00 0. -1.
        -14    1    5    5    0    0  0.83232791521E+01  0.57045610192E+00  0.10086748933E+04  0.10087093946E+04  0.00000000000E+00 0.  1.
          5    1    4    4  501    0  0.49058859417E+02  0.49958331303E+02  0.54079674810E+02  0.88570255625E+02  0.41800000000E+01 0. -1.
         -5    1    4    4    0  501  0.11661335674E+01  0.16172021168E+02  0.24997818237E+03  0.25053833679E+03  0.41800000000E+01 0. -1.
</event>
<event>
11    1  0.8479398E-009  0.1372438E+03  0.7561462E-02  0.1110676E+00
         22   -1    0    0    0    0  0.00000000000E+00  0.00000000000E+00  0.22198129260E+03  0.22198129260E+03  0.00000000000E+00 0. -1.
         22   -1    0    0    0    0 -0.00000000000E+00 -0.00000000000E+00 -0.11508665331E+04  0.11508665331E+04  0.00000000000E+00 0. -1.
         24    2    1    2    0    0  0.25732453816E+02  0.50809176677E+02 -0.97249317905E+03  0.97744040015E+03  0.80018878654E+02 0.  0.
         25    2    1    2    0    0 -0.35698338523E+02 -0.38972160319E+02 -0.13935257571E+03  0.19457541679E+03  0.12508897556E+03 0.  0.
        -24    2    1    2    0    0  0.99658847066E+01 -0.11837016358E+02  0.18296051425E+03  0.20083200877E+03  0.81360384463E+02 0.  0.
        -11    1    3    3    0    0  0.51021147781E+01 -0.18895530400E+01 -0.28405016109E+01  0.61376245650E+01  0.00000000000E+00 0.  1.
         12    1    3    3    0    0  0.20630339038E+02  0.52698729717E+02 -0.96965267744E+03  0.97130277559E+03  0.00000000000E+00 0. -1.
         11    1    5    5    0    0 -0.13819202305E+02  0.11992863449E+02  0.15765580478E+03  0.15871405705E+03  0.00000000000E+00 0. -1.
        -12    1    5    5    0    0  0.23785087011E+02 -0.23829879808E+02  0.25304709470E+02  0.42117951720E+02  0.00000000000E+00 0.  1.
          5    1    4    4  501    0 -0.58042647288E+02 -0.69490590048E+02 -0.12387556940E+03  0.15349436505E+03  0.41800000000E+01 0. -1.
         -5    1    4    4    0  501  0.22344308765E+02  0.30518429729E+02 -0.15477006318E+02  0.41081051738E+02  0.41800000000E+01 0. -1.
</event>
<event>
11    1  0.8479398E-009  0.1739301E+03  0.7561462E-02  0.1074661E+00
         22   -1    0    0    0    0  0.00000000000E+00  0.00000000000E+00  0.43931505622E+03  0.43931505622E+03  0.00000000000E+00 0. -1.
         22   -1    0    0    0    0 -0.00000000000E+00 -0.00000000000E+00 -0.74685262242E+03  0.74685262242E+03  0.00000000000E+00 0. -1.
        -24    2    1    2    0    0  0.53124852064E+02 -0.24569081986E+02 -0.67602007835E+03  0.68307473589E+03  0.78498782081E+02 0.  0.
         25    2    1    2    0    0  0.51343816486E+02 -0.88026461591E+02  0.22838507594E+03  0.27962776997E+03  0.12508837434E+03 0.  0.
         24    2    1    2    0    0 -0.10446866855E+03  0.11259554358E+03  0.14009743621E+03  0.22346517278E+03  0.81962995753E+02 0.  0.
        -13    1    5    5    0    0 -0.55461467800E+02  0.38805006375E+02  0.11139691383E+03  0.13034981910E+03  0.00000000000E+00 0.  1.
         14    1    5    5    0    0 -0.49007200749E+02  0.73790537202E+02  0.28700522382E+02  0.93115353679E+02  0.00000000000E+00 0. -1.
         11    1    3    3    0    0  0.15418566467E+02  0.21493913014E+02 -0.39157747206E+03  0.39246991874E+03  0.00000000000E+00 0. -1.
        -12    1    3    3    0    0  0.37706285596E+02 -0.46062995000E+02 -0.28444260628E+03  0.29060481715E+03  0.00000000000E+00 0.  1.
          5    1    4    4  501    0  0.64354439450E+02 -0.60639813271E+02  0.56449081933E+02  0.10498881884E+03  0.41800000000E+01 0.  1.
         -5    1    4    4    0  501 -0.13010622965E+02 -0.27386648320E+02  0.17193599401E+03  0.17463895113E+03  0.41800000000E+01 0.  1.
</event>
<event>
11    1  0.8479398E-009  0.1428924E+03  0.7561462E-02  0.1104371E+00
         22   -1    0    0    0    0  0.00000000000E+00  0.00000000000E+00  0.12830445559E+04  0.12830445559E+04  0.00000000000E+00 0.  1.
         22   -1    0    0    0    0 -0.00000000000E+00 -0.00000000000E+00 -0.27234224017E+03  0.27234224017E+03  0.00000000000E+00 0.  1.
         24    2    1    2    0    0  0.39712199219E+02 -0.68524044014E+02 -0.23258089793E+03  0.25796524332E+03  0.78610363855E+02 0.  0.
         25    2    1    2    0    0 -0.94061364638E+02  0.24588998529E+02  0.23860971299E+03  0.28641654708E+03  0.12509070366E+03 0.  0.
        -24    2    1    2    0    0  0.54349165418E+02  0.43935045484E+02  0.10046735007E+04  0.10110050057E+04  0.88758991229E+02 0.  0.
        -13    1    3    3    0    0  0.12702329001E+02 -0.61167657238E+02 -0.21723839079E+03  0.22604280543E+03  0.00000000000E+00 0.  1.
         14    1    3    3    0    0  0.27009870218E+02 -0.73563867760E+01 -0.15342507141E+02  0.31922437892E+02  0.00000000000E+00 0. -1.
         13    1    5    5    0    0 -0.17954793460E+02  0.33816584913E+02  0.43274136071E+03  0.43443183734E+03  0.00000000000E+00 0. -1.
        -14    1    5    5    0    0  0.72303958878E+02  0.10118460571E+02  0.57193213998E+03  0.57657316834E+03  0.00000000000E+00 0.  1.
          5    1    4    4  501    0 -0.39463336240E+02  0.17144047848E+02  0.18236408478E+01  0.43267439833E+02  0.41800000000E+01 0. -1.
         -5    1    4    4    0  501 -0.54598028397E+02  0.74449506817E+01  0.23678607214E+03  0.24314910724E+03  0.41800000000E+01 0. -1.
</event>
<event>
11    1  0.8479398E-009  0.1439490E+03  0.7561462E-02  0.1103227E+00
         22   -1    0    0    0    0  0.00000000000E+00  0.00000000000E+00  0.10458972889E+03  0.10458972889E+03  0.00000000000E+00 0.  1.
         22   -1    0    0    0    0 -0.00000000000E+00 -0.00000000000E+00 -0.75736128016E+03  0.75736128016E+03  0.00000000000E+00 0. -1.
         24    2    1    2    0    0  0.35381175406E+02 -0.56863955898E+02 -0.53539335600E+03  0.54553771837E+03  0.80498568068E+02 0.  0.
         25    2    1    2    0    0 -0.55512635514E+02  0.83315685899E+02 -0.15251908378E+03  0.22120683775E+03  0.12508892009E+03 0.  0.
        -24    2    1    2    0    0  0.20131460107E+02 -0.26451730001E+02  0.35140888514E+02  0.95206452939E+02  0.82002542214E+02 0.  0.
        -13    1    3    3    0    0 -0.21574301910E+02 -0.20744404933E+02 -0.84837449969E+02  0.89962068429E+02  0.00000000000E+00 0.  1.
         14    1    3    3    0    0  0.56955477316E+02 -0.36119550964E+02 -0.45055590603E+03  0.45557564994E+03  0.00000000000E+00 0. -1.
         11    1    5    5    0    0 -0.19331945969E+02  0.19793395514E+02  0.11969174720E+02  0.30145709221E+02  0.00000000000E+00 0. -1.
        -12    1    5    5    0    0  0.39463406077E+02 -0.46245125515E+02  0.23171713794E+02  0.65060743719E+02  0.00000000000E+00 0.  1.
          5    1    4    4  501    0 -0.69392420238E+02 -0.59421818575E+01 -0.64658732057E+02  0.95125399042E+02  0.41800000000E+01 0. -1.
         -5    1    4    4    0  501  0.13879784724E+02  0.89257867756E+02 -0.87860351724E+02  0.12608143870E+03  0.41800000000E+01 0. -1.
</event>
<event>
11    1  0.8479398E-009  0.1515936E+03  0.7561462E-02  0.1095262E+00
         22   -1    0    0    0    0  0.00000000000E+00  0.00000000000E+00  0.17198430652E+03  0.17198430652E+03  0.00000000000E+00 0.  1.
         22   -1    0    0    0    0 -0.00000000000E+00 -0.00000000000E+00 -0.13708255815E+04  0.13708255815E+04  0.00000000000E+00 0.  1.
         24    2    1    2    0    0 -0.78902015009E+02  0.38020415902E+02 -0.77452441987E+03  0.78359754946E+03  0.80411209153E+02 0.  0.
         25    2    1    2    0    0  0.57698004765E+02 -0.63347201608E+02 -0.56993832502E+03  0.58976225245E+03  0.12509153601E+03 0.  0.
        -24    2    1    2    0    0  0.21204010244E+02  0.25326785706E+02  0.14562146996E+03  0.16945008607E+03  0.80104076247E+02 0.  0.
        -11    1    3    3    0    0 -0.59013274995E+02  0.37008832566E+02 -0.74334109109E+03  0.74659774847E+03  0.00000000000E+00 0.  1.
         12    1    3    3    0    0 -0.19888740014E+02  0.10115833364E+01 -0.31183328779E+02  0.36999800998E+02  0.00000000000E+00 0. -1.
         13    1    5    5    0    0 -0.95143958374E+01  0.40841648764E+02  0.38470274351E+02  0.56908048732E+02  0.00000000000E+00 0. -1.
        -14    1    5    5    0    0  0.30718406081E+02 -0.15514863058E+02  0.10715119560E+03  0.11254203733E+03  0.00000000000E+00 0.  1.
          5    1    4    4  501    0  0.45104389551E+02 -0.70160951352E+02 -0.16863009980E+03  0.18817690616E+03  0.41800000000E+01 0.  1.
         -5    1    4    4    0  501  0.12593615214E+02  0.68137497440E+01 -0.40130822522E+03  0.40158534629E+03  0.41800000000E+01 0.  1.
</event>
<event>
11    1  0.8479398E-009  0.1686075E+03  0.7561462E-02  0.1079250E+00
         22   -1    0    0    0    0  0.00000000000E+00  0.00000000000E+00  0.16063337431E+04  0.16063337431E+04  0.00000000000E+00 0. -1.
         22   -1    0    0    0    0 -0.00000000000E+00 -0.00000000000E+00 -0.40279166335E+03  0.40279166335E+03  0.00000000000E+00 0.  1.
        -24    2    1    2    0    0 -0.97542380242E+02 -0.36278295050E+02 -0.34936137051E+03  0.37330971504E+03  0.80474502167E+02 0.  0.
         25    2    1    2    0    0  0.12096696952E+03  0.14165839325E+03  0.29443687992E+03  0.37017567246E+03  0.12504736756E+03 0.  0.
         24    2    1    2    0    0 -0.23424589273E+02 -0.10538009820E+03  0.12584665703E+04  0.12656400189E+04  0.80329772993E+02 0.  0.
        -11    1    5    5    0    0 -0.24136166032E+01 -0.33011909604E+02  0.11434405885E+03  0.11903854634E+03  0.00000000000E+00 0.  1.
         12    1    5    5    0    0 -0.21010972670E+02 -0.72368188592E+02  0.11441225115E+04  0.11466014726E+04  0.00000000000E+00 0. -1.
         11    1    3    3    0    0 -0.83822147259E+01 -0.31076270736E+02 -0.40152773112E+02  0.51461066013E+02  0.00000000000E+00 0. -1.
        -12    1    3    3    0    0 -0.89160165516E+02 -0.52020243133E+01 -0.30920859740E+03  0.32184864902E+03  0.00000000000E+00 0.  1.
          5    1    4    4  501    0  0.43596429991E+02 -0.15035599190E+02  0.38394820306E+02  0.60152743722E+02  0.41800000000E+01 0.  1.
         -5    1    4    4    0  501  0.77370539525E+02  0.15669399244E+03  0.25604205961E+03  0.31002292874E+03  0.41800000000E+01 0.  1.
</event>
<event>
11    1  0.8479398E-009  0.1440017E+03  0.7561462E-02  0.1103170E+00
         22   -1    0    0    0    0  0.00000000000E+00  0.00000000000E+00  0.54051794838E+02  0.54051794838E+02  0.00000000000E+00 0. -1.
         22   -1    0    0    0    0 -0.00000000000E+00 -0.00000000000E+00 -0.17787591628E+04  0.17787591628E+04  0.00000000000E+00 0.  1.
        -24    2    1    2    0    0 -0.40786749712E+02  0.58953529198E+02 -0.14541175825E+04  0.14581096281E+04  0.80539841236E+02 0.  0.
         25    2    1    2    0    0  0.15062394806E+02 -0.71476910346E+02 -0.24522867633E+03  0.28481650728E+03  0.12509002628E+03 0.  0.
         24    2    1    2    0    0  0.25724354906E+02  0.12523381148E+02 -0.25361109055E+02  0.89884822263E+02  0.81348127883E+02 0.  0.
        -13    1    5    5    0    0  0.39188028935E+02  0.64153497684E+01 -0.48341121754E+02  0.62559750454E+02  0.00000000000E+00 0.  1.
         14    1    5    5    0    0 -0.13463674029E+02  0.61080313792E+01  0.22980012699E+02  0.27325071809E+02  0.00000000000E+00 0. -1.
         11    1    3    3    0    0 -0.15338068159E+02  0.39641843151E+02 -0.25141324933E+03  0.25498108558E+03  0.00000000000E+00 0. -1.
        -12    1    3    3    0    0 -0.25448681554E+02  0.19311686047E+02 -0.12027043332E+04  0.12031285425E+04  0.00000000000E+00 0.  1.
          5    1    4    4  501    0  0.61158978550E+02 -0.18355092238E+02 -0.17048582013E+03  0.18209947098E+03  0.41800000000E+01 0. -1.
         -5    1    4    4    0  501 -0.46096583744E+02 -0.53121818108E+02 -0.74742856202E+02  0.10271703629E+03  0.41800000000E+01 0. -1.
</event>
<event>
11    1  0.8479398E-009  0.1420372E+03  0.7561462E-02  0.1105305E+00
         22   -1    0    0    0    0  0.00000000000E+00  0.00000000000E+00  0.13895786677E+03  0.13895786677E+03  0.00000000000E+00 0.  1.
         22   -1    0    0    0    0 -0.00000000000E+00 -0.00000000000E+00 -0.39889877344E+03  0.39889877344E+03  0.00000000000E+00 0. -1.
        -24    2    1    2    0    0 -0.14780618676E+02 -0.58408245656E+02 -0.20884647006E+03  0.23200186808E+03  0.81105048484E+02 0.  0.
         25    2    1    2    0    0 -0.35987380475E+02  0.94965950537E+02 -0.10216417454E+03  0.19078400144E+03  0.12508954125E+03 0.  0.
         24    2    1    2    0    0  0.50767999151E+02 -0.36557704881E+02  0.51069737922E+02  0.11507077068E+03  0.81971388975E+02 0.  0.
        -11    1    5    5    0    0  0.41125925234E+02 -0.59002966363E+02  0.54719477321E+02  0.90370974125E+02  0.00000000000E+00 0.  1.
         12    1    5    5    0    0  0.96420739172E+01  0.22445261482E+02 -0.36497393989E+01  0.24699796560E+02  0.00000000000E+00 0. -1.
         11    1    3    3    0    0 -0.15488969921E+02 -0.78480070058E+02 -0.15293346816E+03  0.17259106370E+03  0.00000000000E+00 0. -1.
        -12    1    3    3    0    0  0.70835124514E+00  0.20071824402E+02 -0.55913001896E+02  0.59410804382E+02  0.00000000000E+00 0.  1.
          5    1    4    4  501    0  0.15102191868E+02  0.32740148134E+02  0.22219552107E+02  0.42557894625E+02  0.41800000000E+01 0. -1.
         -5    1    4    4    0  501 -0.51089572343E+02  0.62225802402E+02 -0.12438372664E+03  0.14822610681E+03  0.41800000000E+01 0. -1.
</event>
<event>
11    1  0.8479398E-009  0.1549954E+03  0.7561462E-02  0.1091881E+00
         22   -1    0    0    0    0  0.00000000000E+00  0.00000000000E+00  0.92455839474E+03  0.92455839474E+03  0.00000000000E+00 0. -1.
         22   -1    0    0    0    0 -0.00000000000E+00 -0.00000000000E+00 -0.36984721565E+03  0.36984721565E+03  0.00000000000E+00 0. -1.
         24    2    1    2    0    0 -0.22579491814E+02 -0.69220773410E+01 -0.28946354292E+03  0.30142283478E+03  0.80677345284E+02 0.  0.
         25    2    1    2    0    0  0.51377991938E+01 -0.83631204195E+02  0.11676610455E+02  0.15101020386E+03  0.12508862116E+03 0.  0.
        -24    2    1    2    0    0  0.17441692620E+02  0.90553281536E+02  0.83249811155E+03  0.84197257176E+03  0.85793918324E+02 0.  0.
        -13    1    3    3    0    0 -0.23406620424E+02  0.10515799008E+02 -0.23217202678E+02  0.34604774363E+02  0.00000000000E+00 0.  1.
         14    1    3    3    0    0  0.82712861036E+00 -0.17437876349E+02 -0.26624634024E+03  0.26681806041E+03  0.00000000000E+00 0. -1.
         13    1    5    5    0    0 -0.18386932539E+02 -0.81668093486E+01  0.17281552068E+03  0.17398270101E+03  0.00000000000E+00 0. -1.
        -14    1    5    5    0    0  0.35828625159E+02  0.98720090884E+02  0.65968259088E+03  0.66798987075E+03  0.00000000000E+00 0.  1.
          5    1    4    4  501    0 -0.35024618548E+02 -0.21442976206E+02  0.52170004938E+02  0.66525987015E+02  0.41800000000E+01 0.  1.
         -5    1    4    4    0  501  0.40162417742E+02 -0.62188227988E+02 -0.40493394483E+02  0.84484216845E+02  0.41800000000E+01 0.  1.
</event>
<event>
11    1  0.8479398E-009  0.1419414E+03  0.7561462E-02  0.1105410E+00
         22   -1    0    0    0    0  0.00000000000E+00  0.00000000000E+00  0.18425512476E+03  0.18425512476E+03  0.00000000000E+00 0. -1.
         22   -1    0    0    0    0 -0.00000000000E+00 -0.00000000000E+00 -0.40514358724E+03  0.40514358724E+03  0.00000000000E+00 0.  1.
         24    2    1    2    0    0  0.12056529998E+02 -0.70796990980E+01 -0.26097765070E+03  0.27354322256E+03  0.80753194281E+02 0.  0.
         25    2    1    2    0    0 -0.35831942229E+02  0.67998000342E+02 -0.70264785502E+02  0.16275305806E+03  0.12507502426E+03 0.  0.
        -24    2    1    2    0    0  0.23775412231E+02 -0.60918301244E+02  0.11035397372E+03  0.15310243138E+03  0.83582565919E+02 0.  0.
        -11    1    3    3    0    0  0.11604650313E+02  0.34193403978E+02 -0.16766622525E+03  0.17151040748E+03  0.00000000000E+00 0.  1.
         12    1    3    3    0    0  0.45187968405E+00 -0.41273103076E+02 -0.93311425456E+02  0.10203281508E+03  0.00000000000E+00 0. -1.
         13    1    5    5    0    0  0.82650784134E+01 -0.64947284327E+02  0.11830526618E+03  0.13521315494E+03  0.00000000000E+00 0. -1.
        -14    1    5    5    0    0  0.15510333818E+02  0.40289830823E+01 -0.79512924601E+01  0.17889276441E+02  0.00000000000E+00 0.  1.
          5    1    4    4  501    0 -0.78411867877E+02  0.50405351122E+02 -0.21936997660E+02  0.95853141378E+02  0.41800000000E+01 0. -1.
         -5    1    4    4    0  501  0.42579925648E+02  0.17592649221E+02 -0.48327787842E+02  0.66899916685E+02  0.41800000000E+01 0. -1.
</event>
<event>
11    1  0.8479398E-009  0.1463255E+03  0.7561462E-02  0.1100694E+00
         22   -1    0    0    0    0  0.00000000000E+00  0.00000000000E+00  0.51021446404E+03  0.51021446404E+03  0.00000000000E+00 0.  1.
         22   -1    0    0    0    0 -0.00000000000E+00 -0.00000000000E+00 -0.34783463007E+04  0.34783463007E+04  0.00000000000E+00 0. -1.
        -24    2    1    2    0    0  0.65776784159E+02 -0.38817994120E+02 -0.30380058583E+04  0.30400399403E+04  0.80807309921E+02 0.  0.
         25    2    1    2    0    0 -0.42341351969E+02  0.65410348658E+02 -0.42299526016E+03  0.44793267697E+03  0.12508952465E+03 0.  0.
         24    2    1    2    0    0 -0.23435432191E+02 -0.26592354538E+02  0.49286928186E+03  0.50058814746E+03  0.80074912275E+02 0.  0.
        -13    1    5    5    0    0 -0.24542884509E+02  0.89088082943E+01  0.40458824312E+03  0.40542985400E+03  0.00000000000E+00 0.  1.
         14    1    5    5    0    0  0.11074523183E+01 -0.35501162832E+02  0.88281038739E+02  0.95158293459E+02  0.00000000000E+00 0. -1.
         11    1    3    3    0    0  0.72485112471E+02 -0.49609422431E+02 -0.29255843647E+04  0.29269026396E+04  0.00000000000E+00 0. -1.
        -12    1    3    3    0    0 -0.67083283112E+01  0.10791428312E+02 -0.11242149361E+03  0.11313730074E+03  0.00000000000E+00 0.  1.
          5    1    4    4  501    0  0.31822296696E+02  0.59075449305E+02 -0.14036518142E+03  0.15563554810E+03  0.41800000000E+01 0.  1.
         -5    1    4    4    0  501 -0.74163648665E+02  0.63348993533E+01 -0.28263007874E+03  0.29229712887E+03  0.41800000000E+01 0.  1.
</event>
<event>
11    1  0.8479398E-009  0.2637333E+03  0.7561462E-02  0.1016827E+00
         22   -1    0    0    0    0  0.00000000000E+00  0.00000000000E+00  0.22335367528E+03  0.22335367528E+03  0.00000000000E+00 0.  1.
         22   -1    0    0    0    0 -0.00000000000E+00 -0.00000000000E+00 -0.22009956235E+04  0.22009956235E+04  0.00000000000E+00 0.  1.
        -24    2    1    2    0    0 -0.69414023446E+02  0.22708493067E+03 -0.16641436891E+04  0.16828732834E+04  0.79387641884E+02 0.  0.
         25    2    1    2    0    0  0.24267130680E+03 -0.12575001105E+03 -0.40787197007E+03  0.50666510314E+03  0.12509018486E+03 0.  0.
         24    2    1    2    0    0 -0.17325728336E+03 -0.10133491962E+03  0.94373710924E+02  0.23481091224E+03  0.77090304325E+02 0.  0.
        -11    1    5    5    0    0 -0.68719009192E+02 -0.43722756433E+02 -0.18847814137E+01  0.81471062687E+02  0.00000000000E+00 0.  1.
         12    1    5    5    0    0 -0.10453827417E+03 -0.57612163190E+02  0.96258492338E+02  0.15333984955E+03  0.00000000000E+00 0. -1.
         11    1    3    3    0    0  0.73955620349E+01  0.81196920528E+02 -0.41875691121E+03  0.42662042254E+03  0.00000000000E+00 0. -1.
        -12    1    3    3    0    0 -0.76809585481E+02  0.14588801014E+03 -0.12453867779E+04  0.12562528609E+04  0.00000000000E+00 0.  1.
          5    1    4    4  501    0 -0.66758285016E+01  0.67356479465E+01 -0.48619847279E+02  0.49712147297E+02  0.41800000000E+01 0.  1.
         -5    1    4    4    0  501  0.24934713530E+03 -0.13248565900E+03 -0.35925212279E+03  0.45695295584E+03  0.41800000000E+01 0.  1.
</event>
<event>
11    1  0.8479398E-009  0.1398087E+03  0.7561462E-02  0.1107772E+00
         22   -1    0    0    0    0  0.00000000000E+00  0.00000000000E+00  0.75436784184E+03  0.75436784184E+03  0.00000000000E+00 0. -1.
         22   -1    0    0    0    0 -0.00000000000E+00 -0.00000000000E+00 -0.11632411567E+04  0.11632411567E+04  0.00000000000E+00 0.  1.
         24    2    1    2    0    0 -0.86561799656E+00 -0.46082050264E+02 -0.10063991470E+04  0.10106331023E+04  0.80098187504E+02 0.  0.
         25    2    1    2    0    0  0.59878037628E+02  0.65343384561E+02 -0.11224163423E+03  0.19000388196E+03  0.12509257935E+03 0.  0.
        -24    2    1    2    0    0 -0.59012419631E+02 -0.19261334297E+02  0.70976746639E+03  0.71697201429E+03  0.80159517555E+02 0.  0.
        -13    1    3    3    0    0  0.10862879445E+02  0.17546938571E+02 -0.45207012739E+03  0.45254093437E+03  0.00000000000E+00 0.  1.
         14    1    3    3    0    0 -0.11728497442E+02 -0.63628988835E+02 -0.55432901964E+03  0.55809216791E+03  0.00000000000E+00 0. -1.
         13    1    5    5    0    0 -0.45355941066E+02  0.17916735997E+02  0.55781145652E+03  0.55993909655E+03  0.00000000000E+00 0. -1.
        -14    1    5    5    0    0 -0.13656478565E+02 -0.37178070294E+02  0.15195600987E+03  0.15703291774E+03  0.00000000000E+00 0.  1.
          5    1    4    4  501    0  0.86234583270E+02  0.44501015885E+02 -0.30949390068E+02  0.10194155636E+03  0.41800000000E+01 0.  1.
         -5    1    4    4    0  501 -0.26356545642E+02  0.20842368675E+02 -0.81292244158E+02  0.88062325602E+02  0.41800000000E+01 0.  1.
</event>
<event>
11    1  0.8479398E-009  0.1693054E+03  0.7561462E-02  0.1078638E+00
         22   -1    0    0    0    0  0.00000000000E+00  0.00000000000E+00  0.17640359091E+04  0.17640359091E+04  0.00000000000E+00 0. -1.
         22   -1    0    0    0    0 -0.00000000000E+00 -0.00000000000E+00 -0.20720240621E+03  0.20720240621E+03  0.00000000000E+00 0.  1.
         24    2    1    2    0    0  0.11449012890E+03 -0.28380529490E+02 -0.16596183152E+03  0.21834783084E+03  0.78860646990E+02 0.  0.
         25    2    1    2    0    0 -0.55117571328E+02 -0.64693215505E+02  0.49645753509E+03  0.51898063746E+03  0.12509060358E+03 0.  0.
        -24    2    1    2    0    0 -0.59372557570E+02  0.93073744995E+02  0.12263377993E+04  0.12339098470E+04  0.80257647268E+02 0.  0.
        -11    1    3    3    0    0  0.87016619022E+02 -0.48754081344E+02 -0.87225770050E+02  0.13250353729E+03  0.00000000000E+00 0.  1.
         12    1    3    3    0    0  0.27473509877E+02  0.20373551854E+02 -0.78736061467E+02  0.85844293552E+02  0.00000000000E+00 0. -1.
         11    1    5    5    0    0 -0.74028977022E+02  0.93314675053E+02  0.99424246627E+03  0.10013520858E+04  0.00000000000E+00 0. -1.
        -12    1    5    5    0    0  0.14656419451E+02 -0.24093005795E+00  0.23209533303E+03  0.23255776120E+03  0.00000000000E+00 0.  1.
          5    1    4    4  501    0 -0.54889585700E+01  0.25994740955E+02  0.25333334825E+03  0.25475696842E+03  0.41800000000E+01 0.  1.
         -5    1    4    4    0  501 -0.49628612758E+02 -0.90687956460E+02  0.24312418685E+03  0.26422366904E+03  0.41800000000E+01 0.  1.
</event>
<event>
11    1  0.8479398E-009  0.1744061E+03  0.7561462E-02  0.1074260E+00
         22   -1    0    0    0    0  0.00000000000E+00  0.00000000000E+00  0.19040392268E+04  0.19040392268E+04  0.00000000000E+00 0.  1.
         22   -1    0    0    0    0 -0.00000000000E+00 -0.00000000000E+00 -0.18007732836E+03  0.18007732836E+03  0.00000000000E+00 0.  1.
         24    2    1    2    0    0  0.20393882309E+01  0.20573061510E+02 -0.15461088420E+03  0.17525565181E+03  0.79891226153E+02 0.  0.
         25    2    1    2    0    0  0.48302655755E+02  0.97359958836E+02  0.67429179102E+03  0.69434619638E+03  0.12504044483E+03 0.  0.
        -24    2    1    2    0    0 -0.50342043986E+02 -0.11793302035E+03  0.12042809916E+04  0.12145147070E+04  0.91163303927E+02 0.  0.
        -13    1    3    3    0    0 -0.14738750547E+02 -0.14075864202E+02 -0.12509796808E+03  0.12674723799E+03  0.00000000000E+00 0.  1.
         14    1    3    3    0    0  0.16778138778E+02  0.34648925712E+02 -0.29512916117E+02  0.48508413822E+02  0.00000000000E+00 0. -1.
         11    1    5    5    0    0 -0.39049194821E+01 -0.18214624417E+02  0.31572705738E+02  0.36658650909E+02  0.00000000000E+00 0. -1.
        -12    1    5    5    0    0 -0.46437124504E+02 -0.99718395928E+02  0.11727082859E+04  0.11778560561E+04  0.00000000000E+00 0.  1.
          5    1    4    4  501    0  0.35618422680E+02  0.11453150754E+03  0.65289216968E+03  0.66383115013E+03  0.41800000000E+01 0.  1.
         -5    1    4    4    0  501  0.12684233075E+02 -0.17171548708E+02  0.21399621342E+02  0.30515046244E+02  0.41800000000E+01 0.  1.
</event>
<event>
11    1  0.8479398E-009  0.1298989E+03  0.7561462E-02  0.1119393E+00
         22   -1    0    0    0    0  0.00000000000E+00  0.00000000000E+00  0.12448465789E+03  0.12448465789E+03  0.00000000000E+00 0. -1.
         22   -1    0    0    0    0 -0.00000000000E+00 -0.00000000000E+00 -0.18208250704E+04  0.18208250704E+04  0.00000000000E+00 0.  1.
        -24    2    1    2    0    0  0.88252044905E+01 -0.25527348318E+02 -0.14632403880E+04  0.14657522781E+04  0.81411165025E+02 0.  0.
         25    2    1    2    0    0  0.23526480210E+02  0.38698867189E+02 -0.32617663969E+03  0.35226318316E+03  0.12508817825E+03 0.  0.
         24    2    1    2    0    0 -0.32351684700E+02 -0.13171518871E+02  0.93076615233E+02  0.12729426703E+03  0.79501281145E+02 0.  0.
        -11    1    5    5    0    0 -0.10595115450E+01  0.28609777294E+02  0.57166905255E+02  0.63935099734E+02  0.00000000000E+00 0.  1.
         12    1    5    5    0    0 -0.31292173155E+02 -0.41781296165E+02  0.35909709978E+02  0.63359167298E+02  0.00000000000E+00 0. -1.
         11    1    3    3    0    0  0.16385259625E+02  0.10547134314E+02 -0.93158936868E+02  0.95175134849E+02  0.00000000000E+00 0. -1.
        -12    1    3    3    0    0 -0.75600551343E+01 -0.36074482631E+02 -0.13700814512E+04  0.13705771432E+04  0.00000000000E+00 0.  1.
          5    1    4    4  501    0  0.25375404405E+02 -0.25201312327E+02 -0.25066224373E+03  0.25323516762E+03  0.41800000000E+01 0.  1.
         -5    1    4    4    0  501 -0.18489241951E+01  0.63900179516E+02 -0.75514395962E+02  0.99028015533E+02  0.41800000000E+01 0.  1.
</event>
<event>
11    1  0.8479398E-009  0.1400550E+03  0.7561462E-02  0.1107497E+00
         22   -1    0    0    0    0  0.00000000000E+00  0.00000000000E+00  0.21362304803E+04  0.21362304803E+04  0.00000000000E+00 0. -1.
         22   -1    0    0    0    0 -0.00000000000E+00 -0.00000000000E+00 -0.36831083840E+03  0.36831083840E+03  0.00000000000E+00 0.  1.
        -24    2    1    2    0    0  0.96904385997E+01  0.32497358859E+02 -0.35569817753E+03  0.36700284275E+03  0.83784904121E+02 0.  0.
         25    2    1    2    0    0 -0.55900282004E+02  0.18831188428E+02  0.11547211000E+04  0.11629740745E+04  0.12509366079E+03 0.  0.
         24    2    1    2    0    0  0.46209843405E+02 -0.51328547287E+02  0.96889671942E+03  0.97456440144E+03  0.79024997680E+02 0.  0.
        -11    1    5    5    0    0 -0.45700383467E+01  0.15802709680E+02  0.78934769650E+02  0.80630693557E+02  0.00000000000E+00 0.  1.
         12    1    5    5    0    0  0.50779881751E+02 -0.67131256967E+02  0.88996194977E+03  0.89393370789E+03  0.00000000000E+00 0. -1.
         13    1    3    3    0    0 -0.79178433222E+01  0.58355646297E+02 -0.22005439974E+03  0.22779818380E+03  0.00000000000E+00 0. -1.
        -14    1    3    3    0    0  0.17608281922E+02 -0.25858287438E+02 -0.13564377779E+03  0.13920465895E+03  0.00000000000E+00 0.  1.
          5    1    4    4  501    0 -0.33667840927E+02 -0.17048836830E+02  0.93633785051E+02  0.10103932132E+03  0.41800000000E+01 0.  1.
         -5    1    4    4    0  501 -0.22232441077E+02  0.35880025258E+02  0.10610873150E+04  0.10619347532E+04  0.41800000000E+01 0.  1.
</event>
<event>
11    1  0.8479398E-009  0.1472981E+03  0.7561462E-02  0.1099672E+00
         22   -1    0    0    0    0  0.00000000000E+00  0.00000000000E+00  0.55438454569E+03  0.55438454569E+03  0.00000000000E+00 0.  1.
         22   -1    0    0    0    0 -0.00000000000E+00 -0.00000000000E+00 -0.53677235511E+03  0.53677235511E+03  0.00000000000E+00 0. -1.
         24    2    1    2    0    0  0.31218278054E+02 -0.21851048840E+02 -0.38958246033E+03  0.39923952714E+03  0.78521700265E+02 0.  0.
         25    2    1    2    0    0 -0.10610747783E+03  0.35046375336E+02 -0.83220347802E+02  0.18724368260E+03  0.12509006799E+03 0.  0.
        -24    2    1    2    0    0  0.74889199774E+02 -0.13195326496E+02  0.49041499871E+03  0.50467369107E+03  0.91685083874E+02 0.  0.
        -13    1    3    3    0    0  0.22842780949E+02 -0.14094595065E+02 -0.33284390040E+02  0.42758635057E+02  0.00000000000E+00 0.  1.
         14    1    3    3    0    0  0.83754971043E+01 -0.77564537751E+01 -0.35629807029E+03  0.35648089208E+03  0.00000000000E+00 0. -1.
         13    1    5    5    0    0  0.39893311431E+02 -0.47928651459E+02  0.18308046163E+03  0.19340911912E+03  0.00000000000E+00 0. -1.
        -14    1    5    5    0    0  0.34995888343E+02  0.34733324964E+02  0.30733453709E+03  0.31126457195E+03  0.00000000000E+00 0.  1.
          5    1    4    4  501    0 -0.89957678141E+02  0.72233768353E+02 -0.28320021978E+02  0.11886798220E+03  0.41800000000E+01 0.  1.
         -5    1    4    4    0  501 -0.16149799687E+02 -0.37187393017E+02 -0.54900325824E+02  0.68375700398E+02  0.41800000000E+01 0.  1.
</event>
<event>
11    1  0.8479398E-009  0.3728099E+03  0.7561462E-02  0.9733575E-01
         22   -1    0    0    0    0  0.00000000000E+00  0.00000000000E+00  0.39553742788E+03  0.39553742788E+03  0.00000000000E+00 0.  1.
         22   -1    0    0    0    0 -0.00000000000E+00 -0.00000000000E+00 -0.14336855719E+04  0.14336855719E+04  0.00000000000E+00 0. -1.
        -24    2    1    2    0    0 -0.85576239972E+01 -0.47809883164E+02 -0.46196528527E+03  0.47133780286E+03  0.79927353029E+02 0.  0.
         25    2    1    2    0    0  0.25078385499E+03 -0.21028524282E+03 -0.83928659695E+03  0.90948369040E+03  0.12508463536E+03 0.  0.
         24    2    1    2    0    0 -0.24222623100E+03  0.25809512598E+03  0.26310373816E+03  0.44840150656E+03  0.80954882564E+02 0.  0.
        -11    1    5    5    0    0 -0.16932222357E+03  0.22017930053E+03  0.17689973049E+03  0.32930601942E+03  0.00000000000E+00 0.  1.
         12    1    5    5    0    0 -0.72904007429E+02  0.37915825445E+02  0.86204007667E+02  0.11909548714E+03  0.00000000000E+00 0. -1.
         13    1    3    3    0    0 -0.79304406561E+01 -0.44989966417E+02 -0.46494714478E+03  0.46718608327E+03  0.00000000000E+00 0. -1.
        -14    1    3    3    0    0 -0.62718334113E+00 -0.28199167475E+01  0.29818595129E+01  0.41517195908E+01  0.00000000000E+00 0.  1.
          5    1    4    4  501    0  0.14023873599E+03 -0.84425942715E+02 -0.26738425339E+03  0.31353860088E+03  0.41800000000E+01 0. -1.
         -5    1    4    4    0  501  0.11054511900E+03 -0.12585930010E+03 -0.57190234356E+03  0.59594508952E+03  0.41800000000E+01 0. -1.
</event>
<event>
11    1  0.8479398E-009  0.1557067E+03  0.7561462E-02  0.1091186E+00
         22   -1    0    0    0    0  0.00000000000E+00  0.00000000000E+00  0.21684264975E+03  0.21684264975E+03  0.00000000000E+00 0. -1.
         22   -1    0    0    0    0 -0.00000000000E+00 -0.00000000000E+00 -0.62435419201E+03  0.62435419201E+03  0.00000000000E+00 0.  1.
        -24    2    1    2    0    0  0.29563872102E+02  0.42886850692E+02 -0.24541662233E+03  0.26401655947E+03  0.82232114546E+02 0.  0.
         25    2    1    2    0    0  0.72238224134E+01  0.45180062455E+02 -0.33726903497E+03  0.36261544201E+03  0.12508451217E+03 0.  0.
         24    2    1    2    0    0 -0.36787694515E+02 -0.88066913147E+02  0.17517411504E+03  0.21456484027E+03  0.79012558757E+02 0.  0.
        -11    1    5    5    0    0  0.15886151236E+02  0.43594789575E+01  0.14987903392E+02  0.22271329236E+02  0.00000000000E+00 0.  1.
         12    1    5    5    0    0 -0.52673845751E+02 -0.92426392105E+02  0.16018621165E+03  0.19229351103E+03  0.00000000000E+00 0. -1.
         11    1    3    3    0    0 -0.27587364573E+02  0.37272578745E+01 -0.62494497914E+02  0.68414307019E+02  0.00000000000E+00 0. -1.
        -12    1    3    3    0    0  0.57151236675E+02  0.39159592817E+02 -0.18292212442E+03  0.19560225245E+03  0.00000000000E+00 0.  1.
          5    1    4    4  501    0 -0.17901586838E+02 -0.39767757067E+02 -0.12952736652E+03  0.13673606837E+03  0.41800000000E+01 0.  1.
         -5    1    4    4    0  501  0.25125409252E+02  0.84947819523E+02 -0.20774166844E+03  0.22587937365E+03  0.41800000000E+01 0.  1.
</event>
<event>
11    1  0.8479398E-009  0.1521811E+03  0.7561462E-02  0.1094671E+00
         22   -1    0    0    0    0  0.00000000000E+00  0.00000000000E+00  0.22241777364E+03  0.22241777364E+03  0.00000000000E+00 0. -1.
         22   -1    0    0    0    0 -0.00000000000E+00 -0.00000000000E+00 -0.14105229907E+04  0.14105229907E+04  0.00000000000E+00 0. -1.
         24    2    1    2    0    0  0.96006783989E+02 -0.31405537803E+02 -0.10305288500E+04  0.10383962895E+04  0.77932874348E+02 0.  0.
         25    2    1    2    0    0 -0.48088871162E+02 -0.23088980617E+02 -0.35090793919E+03  0.37633307429E+03  0.12507821736E+03 0.  0.
        -24    2    1    2    0    0 -0.47917912828E+02  0.54494518420E+02  0.19333157215E+03  0.21821140059E+03  0.70521909003E+02 0.  0.
        -11    1    3    3    0    0  0.51554255384E+02 -0.28768442507E+02 -0.26160068779E+03  0.26817976133E+03  0.00000000000E+00 0.  1.
         12    1    3    3    0    0  0.44452528605E+02 -0.26370952959E+01 -0.76892816220E+03  0.77021652812E+03  0.00000000000E+00 0. -1.
         13    1    5    5    0    0 -0.26777755250E+02  0.14679215629E+02  0.15803260450E+03  0.16095599284E+03  0.00000000000E+00 0. -1.
        -14    1    5    5    0    0 -0.21140157578E+02  0.39815302791E+02  0.35298967649E+02  0.57255407743E+02  0.00000000000E+00 0.  1.
          5    1    4    4  501    0 -0.68417005631E+02  0.32575913413E+02 -0.17797207687E+03  0.19347767143E+03  0.41800000000E+01 0.  1.
         -5    1    4    4    0  501  0.20328134469E+02 -0.55664894030E+02 -0.17293586232E+03  0.18285540286E+03  0.41800000000E+01 0.  1.
</event>
<event>
11    1  0.8479398E-009  0.1334400E+03  0.7561462E-02  0.1115113E+00
         22   -1    0    0    0    0  0.00000000000E+00  0.00000000000E+00  0.10170810238E+04  0.10170810238E+04  0.00000000000E+00 0.  1.
         22   -1    0    0    0    0 -0.00000000000E+00 -0.00000000000E+00 -0.16668992299E+03  0.16668992299E+03  0.00000000000E+00 0.  1.
         24    2    1    2    0    0 -0.23503707901E+02  0.38424836480E+02 -0.11303712806E+03  0.14912901864E+03  0.86215889124E+02 0.  0.
         25    2    1    2    0    0  0.55555986775E+02 -0.32818310884E+02  0.11485960942E+03  0.18167109066E+03  0.12509255017E+03 0.  0.
        -24    2    1    2    0    0 -0.32052278874E+02 -0.56065255960E+01  0.84856861939E+03  0.85297083744E+03  0.80198291743E+02 0.  0.
        -13    1    3    3    0    0 -0.23069059444E+02  0.62183124563E+02 -0.54128943366E+02  0.85608790401E+02  0.00000000000E+00 0.  1.
         14    1    3    3    0    0 -0.43464845754E+00 -0.23758288083E+02 -0.58908184692E+02  0.63520228240E+02  0.00000000000E+00 0. -1.
         13    1    5    5    0    0  0.15960917008E+02  0.19442796052E+02  0.13313986194E+03  0.13549537271E+03  0.00000000000E+00 0. -1.
        -14    1    5    5    0    0 -0.48013195881E+02 -0.25049321648E+02  0.71542875746E+03  0.71747546473E+03  0.00000000000E+00 0.  1.
          5    1    4    4  501    0  0.38345281720E+02 -0.46879748540E+01  0.13655536266E+03  0.14197597406E+03  0.41800000000E+01 0.  1.
         -5    1    4    4    0  501  0.17210705055E+02 -0.28130336030E+02 -0.21695753234E+02  0.39695116602E+02  0.41800000000E+01 0.  1.
</event>
<event>
11    1  0.8479398E-009  0.1529381E+03  0.7561462E-02  0.1093914E+00
         22   -1    0    0    0    0  0.00000000000E+00  0.00000000000E+00  0.54898116761E+03  0.54898116761E+03  0.00000000000E+00 0.  1.
         22   -1    0    0    0    0 -0.00000000000E+00 -0.00000000000E+00 -0.21932409405E+03  0.21932409405E+03  0.00000000000E+00 0.  1.
         24    2    1    2    0    0 -0.30887547569E+02 -0.24488002836E+02 -0.10341133978E+03  0.13798652219E+03  0.82417669416E+02 0.  0.
         25    2    1    2    0    0 -0.58594727903E+02  0.10077297531E+02 -0.38294000465E+02  0.14369935900E+03  0.12509269060E+03 0.  0.
        -24    2    1    2    0    0  0.89482275472E+02  0.14410705305E+02  0.47136241381E+03  0.48661938047E+03  0.80007188708E+02 0.  0.
        -11    1    3    3    0    0 -0.15524339677E+02 -0.31934947979E+02 -0.11297059474E+03  0.11841959847E+03  0.00000000000E+00 0.  1.
         12    1    3    3    0    0 -0.15363207892E+02  0.74469451426E+01  0.95592549553E+01  0.19566923724E+02  0.00000000000E+00 0. -1.
         13    1    5    5    0    0  0.51465475240E+01 -0.19897762096E+02  0.18483535653E+03  0.18597450608E+03  0.00000000000E+00 0. -1.
        -14    1    5    5    0    0  0.84335727948E+02  0.34308467400E+02  0.28652705728E+03  0.30064487439E+03  0.00000000000E+00 0.  1.
          5    1    4    4  501    0  0.14617120215E+02  0.91460535818E+01  0.35484318321E+02  0.39672657412E+02  0.41800000000E+01 0.  1.
         -5    1    4    4    0  501 -0.73211848118E+02  0.93124394931E+00 -0.73778318786E+02  0.10402670159E+03  0.41800000000E+01 0.  1.
</event>
<event>
11    1  0.8479398E-009  0.1986018E+03  0.7561462E-02  0.1055517E+00
         22   -1    0    0    0    0  0.00000000000E+00  0.00000000000E+00  0.39620342120E+03  0.39620342120E+03  0.00000000000E+00 0.  1.
         22   -1    0    0    0    0 -0.00000000000E+00 -0.00000000000E+00 -0.12123145919E+04  0.12123145919E+04  0.00000000000E+00 0.  1.
        -24    2    1    2    0    0 -0.59449521115E+02 -0.15069267418E+03 -0.94260993684E+03  0.95982013806E+03  0.80614370718E+02 0.  0.
         25    2    1    2    0    0  0.18531171136E+02  0.12730288050E+03 -0.22303942598E+03  0.28625844962E+03  0.12509151348E+03 0.  0.
         24    2    1    2    0    0  0.40918349980E+02  0.23389793677E+02  0.34953819211E+03  0.36243942546E+03  0.83450557631E+02 0.  0.
        -11    1    5    5    0    0  0.42414359065E+02  0.48058467170E+02  0.17922182790E+03  0.19033932257E+03  0.00000000000E+00 0.  1.
         12    1    5    5    0    0 -0.14960090859E+01 -0.24668673493E+02  0.17031636421E+03  0.17210010289E+03  0.00000000000E+00 0. -1.
         13    1    3    3    0    0  0.18918666559E+02 -0.16341015565E+02 -0.10973396017E+03  0.11254548747E+03  0.00000000000E+00 0. -1.
        -14    1    3    3    0    0 -0.78368187675E+02 -0.13435165862E+03 -0.83287597667E+03  0.84727465059E+03  0.00000000000E+00 0.  1.
          5    1    4    4  501    0  0.62768784900E+02  0.55440735407E+02 -0.16069429401E+03  0.18125596274E+03  0.41800000000E+01 0.  1.
         -5    1    4    4    0  501 -0.44237613764E+02  0.71862145097E+02 -0.62345131969E+02  0.10500248687E+03  0.41800000000E+01 0.  1.
</event>
<event>
11    1  0.8479398E-009  0.1412484E+03  0.7561462E-02  0.1106172E+00
         22   -1    0    0    0    0  0.00000000000E+00  0.00000000000E+00  0.21295252570E+03  0.21295252570E+03  0.00000000000E+00 0.  1.
         22   -1    0    0    0    0 -0.00000000000E+00 -0.00000000000E+00 -0.11174380435E+04  0.11174380435E+04  0.00000000000E+00 0. -1.
         24    2    1    2    0    0  0.44231659429E+02  0.47139358178E+02 -0.10054864511E+04  0.10107816701E+04  0.80610312380E+02 0.  0.
         25    2    1    2    0    0 -0.67794617476E+02 -0.55648040991E+02 -0.37623448561E+02  0.15734515459E+03  0.12509659934E+03 0.  0.
        -24    2    1    2    0    0  0.23562958047E+02  0.85086828129E+01  0.13862438186E+03  0.16226374451E+03  0.80530695154E+02 0.  0.
        -13    1    3    3    0    0 -0.79505089210E+01  0.42043374614E+02 -0.26411512450E+03  0.26755869437E+03  0.00000000000E+00 0.  1.
         14    1    3    3    0    0  0.52182168350E+02  0.50959835639E+01 -0.74137132657E+03  0.74322297570E+03  0.00000000000E+00 0. -1.
         13    1    5    5    0    0  0.32815694800E+02 -0.28719927283E+02  0.54451305794E+02  0.69761370048E+02  0.00000000000E+00 0. -1.
        -14    1    5    5    0    0 -0.92527367528E+01  0.37228610096E+02  0.84173076066E+02  0.92502374464E+02  0.00000000000E+00 0.  1.
          5    1    4    4  501    0  0.16367089589E+02  0.22000474706E+02 -0.32384335699E+02  0.42639419644E+02  0.41800000000E+01 0.  1.
         -5    1    4    4    0  501 -0.84161707065E+02 -0.77648515697E+02 -0.52391128627E+01  0.11470573495E+03  0.41800000000E+01 0.  1.
</event>
<event>
11    1  0.8479398E-009  0.1869650E+03  0.7561462E-02  0.1064144E+00
         22   -1    0    0    0    0  0.00000000000E+00  0.00000000000E+00  0.63638563429E+03  0.63638563429E+03  0.00000000000E+00 0.  1.
         22   -1    0    0    0    0 -0.00000000000E+00 -0.00000000000E+00 -0.78285797993E+03  0.78285797993E+03  0.00000000000E+00 0. -1.
         24    2    1    2    0    0  0.66596720124E+02 -0.11586199869E+03 -0.64962289950E+03  0.66764242673E+03  0.76664023834E+02 0.  0.
         25    2    1    2    0    0 -0.87066485590E+02  0.20508253538E+03  0.22811288300E+02  0.25653016184E+03  0.12509176564E+03 0.  0.
        -24    2    1    2    0    0  0.20469765466E+02 -0.89220536686E+02  0.48033926556E+03  0.49507102564E+03  0.77396349528E+02 0.  0.
        -13    1    3    3    0    0 -0.11664582493E+02  0.94819253603E-01 -0.25627479710E+02  0.28157400301E+02  0.00000000000E+00 0.  1.
         14    1    3    3    0    0  0.78261302617E+02 -0.11595681795E+03 -0.62399541979E+03  0.63948502643E+03  0.00000000000E+00 0. -1.
         11    1    5    5    0    0  0.28243007673E+02  0.20055713298E+01  0.11222342537E+03  0.11574017021E+03  0.00000000000E+00 0. -1.
        -12    1    5    5    0    0 -0.77732422067E+01 -0.91226108015E+02  0.36811584019E+03  0.37933085543E+03  0.00000000000E+00 0.  1.
          5    1    4    4  501    0 -0.24718300765E+02  0.18252245996E+03  0.38617669706E+02  0.18823984593E+03  0.41800000000E+01 0. -1.
         -5    1    4    4    0  501 -0.62348184825E+02  0.22560075415E+02 -0.15806381406E+02  0.68290315909E+02  0.41800000000E+01 0. -1.
</event>
<event>
11    1  0.8479398E-009  0.1986425E+03  0.7561462E-02  0.1055488E+00
         22   -1    0    0    0    0  0.00000000000E+00  0.00000000000E+00  0.32438108260E+03  0.32438108260E+03  0.00000000000E+00 0.  1.
         22   -1    0    0    0    0 -0.00000000000E+00 -0.00000000000E+00 -0.10968713874E+04  0.10968713874E+04  0.00000000000E+00 0. -1.
         24    2    1    2    0    0  0.81372483830E+02  0.81544038469E+01 -0.96770440415E+03  0.97441472685E+03  0.79650930167E+02 0.  0.
         25    2    1    2    0    0  0.91208036870E+02  0.40649823944E+02 -0.12625243152E+02  0.16055473828E+03  0.12508842089E+03 0.  0.
        -24    2    1    2    0    0 -0.17258052070E+03 -0.48804227791E+02  0.20783934249E+03  0.28628300487E+03  0.81208853058E+02 0.  0.
        -13    1    3    3    0    0  0.25423329143E+02 -0.10388477469E+02 -0.76804116459E+02  0.81566772855E+02  0.00000000000E+00 0.  1.
         14    1    3    3    0    0  0.55949154687E+02  0.18542881316E+02 -0.89090028769E+03  0.89284795400E+03  0.00000000000E+00 0. -1.
         11    1    5    5    0    0 -0.18106193428E+03 -0.46631287054E+02  0.20400878508E+03  0.27672637273E+03  0.00000000000E+00 0. -1.
        -12    1    5    5    0    0  0.84814135790E+01 -0.21729407369E+01  0.38305574192E+01  0.95566321414E+01  0.00000000000E+00 0.  1.
          5    1    4    4  501    0 -0.29305978311E+02  0.17918672974E+02 -0.15253969130E+02  0.37816334832E+02  0.41800000000E+01 0.  1.
         -5    1    4    4    0  501  0.12051401518E+03  0.22731150969E+02  0.26287259788E+01  0.12273840344E+03  0.41800000000E+01 0.  1.
</event>
<event>
11    1  0.8479398E-009  0.2250908E+03  0.7561462E-02  0.1038075E+00
         22   -1    0    0    0    0  0.00000000000E+00  0.00000000000E+00  0.61542743430E+03  0.61542743430E+03  0.00000000000E+00 0. -1.
         22   -1    0    0    0    0 -0.00000000000E+00 -0.00000000000E+00 -0.46710949743E+03  0.46710949743E+03  0.00000000000E+00 0. -1.
         24    2    1    2    0    0 -0.72078366153E+02  0.16956621657E+03 -0.34023298914E+03  0.39617250843E+03  0.85124478669E+02 0.  0.
         25    2    1    2    0    0  0.88183514412E+02 -0.18256410432E+03  0.54448828978E+02  0.24437005036E+03  0.12508422016E+03 0.  0.
        -24    2    1    2    0    0 -0.16105148258E+02  0.12997887751E+02  0.43410209702E+03  0.44199437294E+03  0.80536166935E+02 0.  0.
        -11    1    3    3    0    0 -0.14890079164E+02  0.10220539214E+03 -0.11688342198E+03  0.15597881579E+03  0.00000000000E+00 0.  1.
         12    1    3    3    0    0 -0.57188286990E+02  0.67360824428E+02 -0.22334956715E+03  0.24019369264E+03  0.00000000000E+00 0. -1.
         11    1    5    5    0    0 -0.10261419203E+02  0.46226891932E+02  0.29995179053E+03  0.30366642702E+03  0.00000000000E+00 0. -1.
        -12    1    5    5    0    0 -0.58437290552E+01 -0.33229004181E+02  0.13415030650E+03  0.13832794592E+03  0.00000000000E+00 0.  1.
          5    1    4    4  501    0  0.85793043829E+02 -0.18689726781E+03  0.17029412648E+02  0.20639406092E+03  0.41800000000E+01 0.  1.
         -5    1    4    4    0  501  0.23904705823E+01  0.43331634943E+01  0.37419416330E+02  0.37975989440E+02  0.41800000000E+01 0.  1.
</event>
<event>
11    1  0.8479398E-009  0.1718085E+03  0.7561462E-02  0.1076468E+00
         22   -1    0    0    0    0  0.00000000000E+00  0.00000000000E+00  0.10426897060E+04  0.10426897060E+04  0.00000000000E+00 0.  1.
         22   -1    0    0    0    0 -0.00000000000E+00 -0.00000000000E+00 -0.15284578201E+03  0.15284578201E+03  0.00000000000E+00 0. -1.
        -24    2    1    2    0    0  0.90153515427E+01 -0.11365742959E+03 -0.76137499164E+02  0.16008696756E+03  0.82653678319E+02 0.  0.
         25    2    1    2    0    0  0.36596741096E+02  0.14800758252E+03  0.28213030022E+03  0.34422487049E+03  0.12509072394E+03 0.  0.
         24    2    1    2    0    0 -0.45612092638E+02 -0.34350152930E+02  0.68385112293E+03  0.69122364995E+03  0.82929969943E+02 0.  0.
        -13    1    5    5    0    0  0.21432276175E+02 -0.22479754970E+02  0.16210692848E+03  0.16505556066E+03  0.00000000000E+00 0.  1.
         14    1    5    5    0    0 -0.67044368813E+02 -0.11870397960E+02  0.52174419445E+03  0.52616808928E+03  0.00000000000E+00 0. -1.
         11    1    3    3    0    0  0.44393861401E+02 -0.65136168428E+02 -0.56219342820E+02  0.96820193527E+02  0.00000000000E+00 0. -1.
        -12    1    3    3    0    0 -0.35378509858E+02 -0.48521261166E+02 -0.19918156344E+02  0.63266774037E+02  0.00000000000E+00 0.  1.
          5    1    4    4  501    0  0.51383271009E+02  0.93953014725E+02  0.26440761091E+03  0.28530030954E+03  0.41800000000E+01 0.  1.
         -5    1    4    4    0  501 -0.14786529913E+02  0.54054567798E+02  0.17722689311E+02  0.58924560950E+02  0.41800000000E+01 0.  1.
</event>
<event>
11    1  0.8479398E-009  0.1333589E+03  0.7561462E-02  0.1115210E+00
         22   -1    0    0    0    0  0.00000000000E+00  0.00000000000E+00  0.24978790489E+03  0.24978790489E+03  0.00000000000E+00 0.  1.
         22   -1    0    0    0    0 -0.00000000000E+00 -0.00000000000E+00 -0.73439779674E+03  0.73439779674E+03  0.00000000000E+00 0. -1.
        -24    2    1    2    0    0  0.85931180127E+01  0.45097791695E+02 -0.56407338375E+03  0.57164433860E+03  0.80565595092E+02 0.  0.
         25    2    1    2    0    0  0.34671446074E+02 -0.23977567065E+02 -0.12602976073E+03  0.18251271347E+03  0.12510138726E+03 0.  0.
         24    2    1    2    0    0 -0.43264564086E+02 -0.21120224630E+02  0.20549325263E+03  0.23002864956E+03  0.91475769197E+02 0.  0.
        -11    1    5    5    0    0 -0.69962753278E+02 -0.18742614407E+02  0.17518951225E+03  0.18957172163E+03  0.00000000000E+00 0.  1.
         12    1    5    5    0    0  0.26698189192E+02 -0.23776102229E+01  0.30303740376E+02  0.40456927927E+02  0.00000000000E+00 0. -1.
         13    1    3    3    0    0 -0.16856590833E+02  0.48509710500E+02 -0.19403114274E+03  0.20071228418E+03  0.00000000000E+00 0. -1.
        -14    1    3    3    0    0  0.25449708845E+02 -0.34119188045E+01 -0.37004224101E+03  0.37093205442E+03  0.00000000000E+00 0.  1.
          5    1    4    4  501    0  0.77564325633E+02 -0.84341528999E+01 -0.10795353312E+03  0.13326213738E+03  0.41800000000E+01 0. -1.
         -5    1    4    4    0  501 -0.42892879559E+02 -0.15543414165E+02 -0.18076227609E+02  0.49250576092E+02  0.41800000000E+01 0. -1.
</event>
<event>
11    1  0.8479398E-009  0.1410885E+03  0.7561462E-02  0.1106349E+00
         22   -1    0    0    0    0  0.00000000000E+00  0.00000000000E+00  0.12995717304E+04  0.12995717304E+04  0.00000000000E+00 0. -1.
         22   -1    0    0    0    0 -0.00000000000E+00 -0.00000000000E+00 -0.68243141485E+03  0.68243141485E+03  0.00000000000E+00 0. -1.
         24    2    1    2    0    0 -0.60031335251E+02 -0.24805625038E+02 -0.65158585240E+03  0.65971586293E+03  0.80260927656E+02 0.  0.
         25    2    1    2    0    0  0.10154182737E+03 -0.23218299403E+02  0.24832702301E+03  0.29692413545E+03  0.12509116564E+03 0.  0.
        -24    2    1    2    0    0 -0.41510492123E+02  0.48023924441E+02  0.10203991450E+04  0.10253631469E+04  0.78267168619E+02 0.  0.
        -13    1    3    3    0    0 -0.12116347023E+01  0.17365306726E+02 -0.37081786901E+02  0.40964385216E+02  0.00000000000E+00 0.  1.
         14    1    3    3    0    0 -0.58819700549E+02 -0.42170931764E+02 -0.61450406550E+03  0.61875147771E+03  0.00000000000E+00 0. -1.
         13    1    5    5    0    0 -0.58639048762E+02  0.53178737121E+02  0.91858491098E+03  0.92198956328E+03  0.00000000000E+00 0. -1.
        -14    1    5    5    0    0  0.17128556639E+02 -0.51548126806E+01  0.10181423399E+03  0.10337358362E+03  0.00000000000E+00 0.  1.
          5    1    4    4  501    0  0.12883754141E+02 -0.43847025832E+00  0.18509765680E+03  0.18559309882E+03  0.41800000000E+01 0. -1.
         -5    1    4    4    0  501  0.88658073233E+02 -0.22779829145E+02  0.63229366212E+02  0.11133103663E+03  0.41800000000E+01 0. -1.
</event>
<event>
11    1  0.8479398E-009  0.1294913E+03  0.7561462E-02  0.1119896E+00
         22   -1    0    0    0    0  0.00000000000E+00  0.00000000000E+00  0.89821959681E+03  0.89821959681E+03  0.00000000000E+00 0. -1.
         22   -1    0    0    0    0 -0.00000000000E+00 -0.00000000000E+00 -0.66905996434E+03  0.66905996434E+03  0.00000000000E+00 0.  1.
        -24    2    1    2    0    0  0.11132365712E+02  0.31504432264E+02 -0.62979995686E+03  0.63538180332E+03  0.77107661778E+02 0.  0.
         25    2    1    2    0    0 -0.32227723200E+02 -0.27239605931E+02  0.93219847261E+02  0.16160933769E+03  0.12508803233E+03 0.  0.
         24    2    1    2    0    0  0.21095357488E+02 -0.42648263332E+01  0.76573974207E+03  0.77028842015E+03  0.80769392559E+02 0.  0.
        -13    1    5    5    0    0  0.11217770584E+02 -0.20399065820E+02  0.60947031049E+02  0.65241864296E+02  0.00000000000E+00 0.  1.
         14    1    5    5    0    0  0.98775869035E+01  0.16134239486E+02  0.70479271102E+03  0.70504655585E+03  0.00000000000E+00 0. -1.
         11    1    3    3    0    0 -0.10010977392E+02  0.38585930433E+02 -0.15452404008E+03  0.15958312147E+03  0.00000000000E+00 0. -1.
        -12    1    3    3    0    0  0.21143343104E+02 -0.70814981689E+01 -0.47527591678E+03  0.47579868185E+03  0.00000000000E+00 0.  1.
          5    1    4    4  501    0 -0.20943199496E+02 -0.51529335942E+02  0.11435675012E+03  0.12723532830E+03  0.41800000000E+01 0.  1.
         -5    1    4    4    0  501 -0.11284523705E+02  0.24289730011E+02 -0.21136902862E+02  0.34374009394E+02  0.41800000000E+01 0.  1.
</event>
<event>
11    1  0.8479398E-009  0.1317730E+03  0.7561462E-02  0.1117110E+00
         22   -1    0    0    0    0  0.00000000000E+00  0.00000000000E+00  0.90030284834E+02  0.90030284834E+02  0.00000000000E+00 0.  1.
         22   -1    0    0    0    0 -0.00000000000E+00 -0.00000000000E+00 -0.79407099138E+03  0.79407099138E+03  0.00000000000E+00 0.  1.
         24    2    1    2    0    0 -0.25106951684E+02 -0.20164328544E+02 -0.42315729854E+03  0.43273304636E+03  0.84609874929E+02 0.  0.
         25    2    1    2    0    0 -0.35739325773E+01 -0.13043715819E+02 -0.32599214949E+03  0.34943097716E+03  0.12509282453E+03 0.  0.
        -24    2    1    2    0    0  0.28680884261E+02  0.33208044363E+02  0.45108741483E+02  0.10193725270E+03  0.80193750364E+02 0.  0.
        -11    1    3    3    0    0 -0.39470145537E+02 -0.32357011456E+02 -0.39822732361E+03  0.40148458233E+03  0.00000000000E+00 0.  1.
         12    1    3    3    0    0  0.14363193853E+02  0.12192682912E+02 -0.24929974934E+02  0.31248464033E+02  0.00000000000E+00 0. -1.
         13    1    5    5    0    0 -0.23892090834E+02  0.30521972338E+02  0.18358356352E+02  0.42888833602E+02  0.00000000000E+00 0. -1.
        -14    1    5    5    0    0  0.52572975096E+02  0.26860720253E+01  0.26750385131E+02  0.59048419098E+02  0.00000000000E+00 0.  1.
          5    1    4    4  501    0  0.33027625095E+02  0.40168186998E+02 -0.83564028835E+02  0.98512570676E+02  0.41800000000E+01 0.  1.
         -5    1    4    4    0  501 -0.36601557672E+02 -0.53211902816E+02 -0.24242812066E+03  0.25091840648E+03  0.41800000000E+01 0.  1.
</event>
<event>
11    1  0.8479398E-009  0.2730060E+03  0.7561462E-02  0.1012310E+00
         22   -1    0    0    0    0  0.00000000000E+00  0.00000000000E+00  0.97425931447E+03  0.97425931447E+03  0.00000000000E+00 0.  1.
         22   -1    0    0    0    0 -0.00000000000E+00 -0.00000000000E+00 -0.43176130674E+03  0.43176130674E+03  0.00000000000E+00 0.  1.
        -24    2    1    2    0    0 -0.80433139709E+02  0.10349231002E+02 -0.26493712817E+03  0.28913493925E+03  0.82648258701E+02 0.  0.
         25    2    1    2    0    0 -0.18200448307E+02  0.21704104554E+03 -0.17636866194E+02  0.25178858228E+03  0.12509340250E+03 0.  0.
         24    2    1    2    0    0  0.98633588015E+02 -0.22739027655E+03  0.82507200208E+03  0.86509709968E+03  0.78830582305E+02 0.  0.
        -11    1    5    5    0    0  0.69583120883E+02 -0.17617483410E+03  0.72158069132E+03  0.74602820119E+03  0.00000000000E+00 0.  1.
         12    1    5    5    0    0  0.29050467132E+02 -0.51215442443E+02  0.10349131076E+03  0.11906889849E+03  0.00000000000E+00 0. -1.
         13    1    3    3    0    0  0.14763933468E+02  0.57741680314E+01 -0.15763917763E+02  0.22356561702E+02  0.00000000000E+00 0. -1.
        -14    1    3    3    0    0 -0.95197073176E+02  0.45750629710E+01 -0.24917321040E+03  0.26677837754E+03  0.00000000000E+00 0.  1.
          5    1    4    4  501    0  0.47327914840E+02  0.95402267868E+02 -0.35666357962E+02  0.11238810314E+03  0.41800000000E+01 0.  1.
         -5    1    4    4    0  501 -0.65528363147E+02  0.12163877768E+03  0.18029491767E+02  0.13940047914E+03  0.41800000000E+01 0.  1.
</event>
<event>
11    1  0.8479398E-009  0.3511984E+03  0.7561462E-02  0.9805851E-01
         22   -1    0    0    0    0  0.00000000000E+00  0.00000000000E+00  0.40276545594E+03  0.40276545594E+03  0.00000000000E+00 0.  1.
         22   -1    0    0    0    0 -0.00000000000E+00 -0.00000000000E+00 -0.38166990297E+03  0.38166990297E+03  0.00000000000E+00 0. -1.
         24    2    1    2    0    0  0.13431801239E+03 -0.13106258398E+03 -0.26307869942E+03  0.33266627252E+03  0.78979221387E+02 0.  0.
         25    2    1    2    0    0 -0.37290149664E+01 -0.29627938424E+02  0.13811614692E+03  0.18872280128E+03  0.12509398624E+03 0.  0.
        -24    2    1    2    0    0 -0.13058899743E+03  0.16069052240E+03  0.14605810547E+03  0.26304628511E+03  0.70607702841E+02 0.  0.
        -11    1    3    3    0    0  0.14287379607E+02 -0.56791221196E+02 -0.10880620811E+03  0.12356440808E+03  0.00000000000E+00 0.  1.
         12    1    3    3    0    0  0.12003063279E+03 -0.74271362782E+02 -0.15427249130E+03  0.20910186443E+03  0.00000000000E+00 0. -1.
         11    1    5    5    0    0 -0.13177653738E+02  0.32583044223E+02 -0.13506830034E+01  0.35172854212E+02  0.00000000000E+00 0. -1.
        -12    1    5    5    0    0 -0.11741134369E+03  0.12810747818E+03  0.14740878847E+03  0.22787343090E+03  0.00000000000E+00 0.  1.
          5    1    4    4  501    0  0.54917038468E+02  0.86598013513E+01  0.80573170892E+02  0.97981536736E+02  0.41800000000E+01 0.  1.
         -5    1    4    4    0  501 -0.58646053434E+02 -0.38287739776E+02  0.57542976025E+02  0.90741264540E+02  0.41800000000E+01 0.  1.
</event>
<event>
11    1  0.8479398E-009  0.1522482E+03  0.7561462E-02  0.1094604E+00
         22   -1    0    0    0    0  0.00000000000E+00  0.00000000000E+00  0.77195165103E+03  0.77195165103E+03  0.00000000000E+00 0.  1.
         22   -1    0    0    0    0 -0.00000000000E+00 -0.00000000000E+00 -0.41148433755E+03  0.41148433755E+03  0.00000000000E+00 0. -1.
        -24    2    1    2    0    0 -0.23160739426E+02  0.40571818057E+02 -0.35805185741E+03  0.36988717290E+03  0.80205335317E+02 0.  0.
         25    2    1    2    0    0  0.83873796194E+02 -0.94966635179E+02  0.14731734911E+03  0.23109342540E+03  0.12509314301E+03 0.  0.
         24    2    1    2    0    0 -0.60713056768E+02  0.54394817122E+02  0.57120182177E+03  0.58245539028E+03  0.79610860304E+02 0.  0.
        -11    1    5    5    0    0 -0.65990580481E+02  0.50114877376E+02  0.56943791605E+03  0.57543531164E+03  0.00000000000E+00 0.  1.
         12    1    5    5    0    0  0.52775237132E+01  0.42799397460E+01  0.17639057277E+01  0.70200786455E+01  0.00000000000E+00 0. -1.
         11    1    3    3    0    0 -0.41759857458E+02  0.74678156728E+01 -0.27879400957E+03  0.28200310945E+03  0.00000000000E+00 0. -1.
        -12    1    3    3    0    0  0.18599118033E+02  0.33104002384E+02 -0.79257847834E+02  0.87884063452E+02  0.00000000000E+00 0.  1.
          5    1    4    4  501    0  0.65094217162E+02 -0.58966599755E+02  0.16471977972E+03  0.18672009861E+03  0.41800000000E+01 0. -1.
         -5    1    4    4    0  501  0.18779579032E+02 -0.36000035424E+02 -0.17402430609E+02  0.44373326788E+02  0.41800000000E+01 0. -1.
</event>
<event>
11    1  0.8479398E-009  0.2127282E+03  0.7561462E-02  0.1045871E+00
         22   -1    0    0    0    0  0.00000000000E+00  0.00000000000E+00  0.79785938696E+03  0.79785938696E+03  0.00000000000E+00 0.  1.
         22   -1    0    0    0    0 -0.00000000000E+00 -0.00000000000E+00 -0.21601975728E+03  0.21601975728E+03  0.00000000000E+00 0. -1.
        -24    2    1    2    0    0  0.49295392213E+01 -0.31600483822E+02 -0.12696399912E+03  0.15458263504E+03  0.82176900942E+02 0.  0.
         25    2    1    2    0    0 -0.15510511751E+03 -0.56952062523E+02  0.11871230907E+03  0.23883420030E+03  0.12509207811E+03 0.  0.
         24    2    1    2    0    0  0.15017557829E+03  0.88552546345E+02  0.59009131974E+03  0.62046230889E+03  0.79821384025E+02 0.  0.
        -13    1    5    5    0    0  0.86919718361E+02  0.93600360400E+02  0.37149393608E+03  0.39284069221E+03  0.00000000000E+00 0.  1.
         14    1    5    5    0    0  0.63255859928E+02 -0.50478140547E+01  0.21859738366E+03  0.22762161669E+03  0.00000000000E+00 0. -1.
         11    1    3    3    0    0  0.42708225779E+02 -0.74804118548E+01 -0.62073762318E+02  0.75717244265E+02  0.00000000000E+00 0. -1.
        -12    1    3    3    0    0 -0.37778686558E+02 -0.24120071967E+02 -0.64890236805E+02  0.78865390777E+02  0.00000000000E+00 0.  1.
          5    1    4    4  501    0 -0.93677568747E+02 -0.53014568194E+02  0.30694750470E+01  0.10776328412E+03  0.41800000000E+01 0.  1.
         -5    1    4    4    0  501 -0.61427548764E+02 -0.39374943296E+01  0.11564283402E+03  0.13107091618E+03  0.41800000000E+01 0.  1.
</event>
<event>
11    1  0.8479398E-009  0.1476371E+03  0.7561462E-02  0.1099318E+00
         22   -1    0    0    0    0  0.00000000000E+00  0.00000000000E+00  0.37316767399E+03  0.37316767399E+03  0.00000000000E+00 0.  1.
         22   -1    0    0    0    0 -0.00000000000E+00 -0.00000000000E+00 -0.30861087490E+03  0.30861087490E+03  0.00000000000E+00 0.  1.
         24    2    1    2    0    0 -0.75609901787E+02  0.60133527077E+01 -0.21041141690E+03  0.23670903359E+03  0.77493125889E+02 0.  0.
         25    2    1    2    0    0  0.96150076204E+02  0.30182815016E+02  0.58426952644E+01  0.16073994975E+03  0.12508938757E+03 0.  0.
        -24    2    1    2    0    0 -0.20540174416E+02 -0.36196167723E+02  0.26912552073E+03  0.28432956555E+03  0.81747749901E+02 0.  0.
        -11    1    3    3    0    0 -0.76323138136E+02  0.16333359975E+02 -0.21230034777E+03  0.22619336357E+03  0.00000000000E+00 0.  1.
         12    1    3    3    0    0  0.71323634841E+00 -0.10320007268E+02  0.18889308618E+01  0.10515670016E+02  0.00000000000E+00 0. -1.
         13    1    5    5    0    0 -0.78611867070E+01 -0.18759601119E+02  0.72885997867E+01  0.21606586437E+02  0.00000000000E+00 0. -1.
        -14    1    5    5    0    0 -0.12678987709E+02 -0.17436566604E+02  0.26183692095E+03  0.26272297911E+03  0.00000000000E+00 0.  1.
          5    1    4    4  501    0  0.95111047582E+01  0.58557245002E+02 -0.24849394021E+02  0.64454455542E+02  0.41800000000E+01 0.  1.
         -5    1    4    4    0  501  0.86638971446E+02 -0.28374429987E+02  0.30692089285E+02  0.96285494208E+02  0.41800000000E+01 0.  1.
</event>
<event>
11    1  0.8479398E-009  0.1849886E+03  0.7561462E-02  0.1065678E+00
         22   -1    0    0    0    0  0.00000000000E+00  0.00000000000E+00  0.22202493479E+03  0.22202493479E+03  0.00000000000E+00 0. -1.
         22   -1    0    0    0    0 -0.00000000000E+00 -0.00000000000E+00 -0.53422114691E+03  0.53422114691E+03  0.00000000000E+00 0. -1.
        -24    2    1    2    0    0  0.99686328361E+02 -0.93731002477E+02 -0.34227677303E+03  0.37723159381E+03  0.80171198850E+02 0.  0.
         25    2    1    2    0    0 -0.55414119796E+02  0.13308482821E+03 -0.97954210539E+02  0.21452938613E+03  0.12508210894E+03 0.  0.
         24    2    1    2    0    0 -0.44272208565E+02 -0.39353825733E+02  0.12803477145E+03  0.16448510176E+03  0.84579512600E+02 0.  0.
        -13    1    5    5    0    0 -0.42599348469E+02 -0.12600724146E+02  0.12882513259E+02  0.46254101297E+02  0.00000000000E+00 0.  1.
         14    1    5    5    0    0 -0.16728600960E+01 -0.26753101587E+02  0.11515225819E+03  0.11823100047E+03  0.00000000000E+00 0. -1.
         13    1    3    3    0    0  0.10122448436E+03 -0.69030631547E+02 -0.32421483627E+03  0.34659325496E+03  0.00000000000E+00 0. -1.
        -14    1    3    3    0    0 -0.15381560000E+01 -0.24700370929E+02 -0.18061936758E+02  0.30638338848E+02  0.00000000000E+00 0.  1.
          5    1    4    4  501    0 -0.15266690542E+02  0.10535507174E+03 -0.12030611142E+03  0.16069784015E+03  0.41800000000E+01 0.  1.
         -5    1    4    4    0  501 -0.40147429254E+02  0.27729756468E+02  0.22351900886E+02  0.53831545981E+02  0.41800000000E+01 0.  1.
</event>
<event>
11    1  0.8479398E-009  0.1550972E+03  0.7561462E-02  0.1091781E+00
         22   -1    0    0    0    0  0.00000000000E+00  0.00000000000E+00  0.22501714787E+03  0.22501714787E+03  0.00000000000E+00 0. -1.
         22   -1    0    0    0    0 -0.00000000000E+00 -0.00000000000E+00 -0.69339232814E+03  0.69339232814E+03  0.00000000000E+00 0.  1.
        -24    2    1    2    0    0 -0.43529826508E+02  0.41361688341E+01 -0.48163773591E+03  0.49050122385E+03  0.81881550159E+02 0.  0.
         25    2    1    2    0    0 -0.51461399889E+02  0.86078963818E+01 -0.16320391420E+03  0.21214130224E+03  0.12508414347E+03 0.  0.
         24    2    1    2    0    0  0.94991226397E+02 -0.12744065216E+02  0.17646646984E+03  0.21576694993E+03  0.78925391439E+02 0.  0.
        -11    1    5    5    0    0  0.47330003027E+02  0.29120767340E+02  0.11355941863E+03  0.12642740935E+03  0.00000000000E+00 0.  1.
         12    1    5    5    0    0  0.47661223370E+02 -0.41864832556E+02  0.62907051213E+02  0.89339540577E+02  0.00000000000E+00 0. -1.
         11    1    3    3    0    0 -0.16483399764E+02  0.20026856361E+02 -0.39517558958E+02  0.47269598153E+02  0.00000000000E+00 0. -1.
        -12    1    3    3    0    0 -0.27046426744E+02 -0.15890687527E+02 -0.44212017695E+03  0.44323162569E+03  0.00000000000E+00 0.  1.
          5    1    4    4  501    0 -0.26323189341E+02  0.64807829505E+02 -0.11122532660E+03  0.13145915997E+03  0.41800000000E+01 0.  1.
         -5    1    4    4    0  501 -0.25138210548E+02 -0.56199933123E+02 -0.51978587607E+02  0.80682142276E+02  0.41800000000E+01 0.  1.
</event>
<event>
11    1  0.8479398E-009  0.3273928E+03  0.7561462E-02  0.9892212E-01
         22   -1    0    0    0    0  0.00000000000E+00  0.00000000000E+00  0.24947965484E+03  0.24947965484E+03  0.00000000000E+00 0. -1.
         22   -1    0    0    0    0 -0.00000000000E+00 -0.00000000000E+00 -0.81962558841E+03  0.81962558841E+03  0.00000000000E+00 0.  1.
         24    2    1    2    0    0  0.31533338432E+03 -0.20499688373E+03 -0.20229133993E+03  0.43381218178E+03  0.76238817183E+02 0.  0.
         25    2    1    2    0    0 -0.21869960768E+03  0.16031274711E+03 -0.39928489338E+03  0.49860152873E+03  0.12508142581E+03 0.  0.
        -24    2    1    2    0    0 -0.96633776638E+02  0.44684136621E+02  0.31430299731E+02  0.13669153275E+03  0.79761848849E+02 0.  0.
        -11    1    3    3    0    0  0.28397515810E+03 -0.15341732623E+03 -0.17924525714E+03  0.36919863030E+03  0.00000000000E+00 0.  1.
         12    1    3    3    0    0  0.31358226214E+02 -0.51579557496E+02 -0.23046082789E+02  0.64613551478E+02  0.00000000000E+00 0. -1.
         11    1    5    5    0    0 -0.10673780767E+03  0.53700691536E+02  0.28432885379E+02  0.12282163014E+03  0.00000000000E+00 0. -1.
        -12    1    5    5    0    0  0.10104031036E+02 -0.90165549154E+01  0.29974143523E+01  0.13869902614E+02  0.00000000000E+00 0.  1.
          5    1    4    4  501    0 -0.22140368622E+03  0.13283801598E+03 -0.39256315990E+03  0.46988172732E+03  0.41800000000E+01 0. -1.
         -5    1    4    4    0  501  0.27040785408E+01  0.27474731134E+02 -0.67217334748E+01  0.28719801402E+02  0.41800000000E+01 0. -1.
</event>
<event>
11    1  0.8479398E-009  0.2110062E+03  0.7561462E-02  0.1047002E+00
         22   -1    0    0    0    0  0.00000000000E+00  0.00000000000E+00  0.22623481979E+04  0.22623481979E+04  0.00000000000E+00 0.  1.
         22   -1    0    0    0    0 -0.00000000000E+00 -0.00000000000E+00 -0.59086307162E+02  0.59086307162E+02  0.00000000000E+00 0.  1.
        -24    2    1    2    0    0  0.24517801180E+02 -0.16618845478E+02  0.26481962421E+02  0.89301609725E+02  0.79976087464E+02 0.  0.
         25    2    1    2    0    0 -0.12847982343E+03  0.14422976084E+03  0.56638890410E+03  0.61135337421E+03  0.12508904241E+03 0.  0.
         24    2    1    2    0    0  0.10396202225E+03 -0.12761091536E+03  0.16103910242E+04  0.16207795212E+04  0.80463391891E+02 0.  0.
        -11    1    5    5    0    0  0.57444151830E+02 -0.12006597892E+03  0.10481859036E+04  0.10566027439E+04  0.00000000000E+00 0.  1.
         12    1    5    5    0    0  0.46517870424E+02 -0.75449364476E+01  0.56220512064E+03  0.56417677727E+03  0.00000000000E+00 0. -1.
         11    1    3    3    0    0 -0.11669819113E+02  0.20656071940E+02  0.28781453523E+02  0.37299196412E+02  0.00000000000E+00 0. -1.
        -12    1    3    3    0    0  0.36187620293E+02 -0.37274917418E+02 -0.22994911017E+01  0.52002413312E+02  0.00000000000E+00 0.  1.
          5    1    4    4  501    0 -0.72162410669E+02  0.15481459028E+03  0.38836514447E+03  0.42428755428E+03  0.41800000000E+01 0. -1.
         -5    1    4    4    0  501 -0.56317412765E+02 -0.10584829434E+02  0.17802375963E+03  0.18706581993E+03  0.41800000000E+01 0. -1.
</event>
<event>
11    1  0.8479398E-009  0.1372304E+03  0.7561462E-02  0.1110691E+00
         22   -1    0    0    0    0  0.00000000000E+00  0.00000000000E+00  0.56829213120E+03  0.56829213120E+03  0.00000000000E+00 0. -1.
         22   -1    0    0    0    0 -0.00000000000E+00 -0.00000000000E+00 -0.37004058504E+04  0.37004058504E+04  0.00000000000E+00 0. -1.
         24    2    1    2    0    0  0.49009676491E+02  0.27595420486E+02 -0.36237408466E+04  0.36249615639E+04  0.75400001850E+02 0.  0.
         25    2    1    2    0    0 -0.78101822444E+02 -0.22344858836E+02  0.39235834450E+01  0.14920789918E+03  0.12509362608E+03 0.  0.
        -24    2    1    2    0    0  0.29092145953E+02 -0.52505616495E+01  0.48770354402E+03  0.49452851852E+03  0.76353044632E+02 0.  0.
        -13    1    3    3    0    0  0.11337952485E+02 -0.16103895031E+02 -0.26718473202E+03  0.26790962212E+03  0.00000000000E+00 0.  1.
         14    1    3    3    0    0  0.37671724006E+02  0.43699315517E+02 -0.33565561146E+04  0.33570519418E+04  0.00000000000E+00 0. -1.
         13    1    5    5    0    0  0.10934338477E+02 -0.31020185842E+02  0.39966548557E+03  0.40101659821E+03  0.00000000000E+00 0. -1.
        -14    1    5    5    0    0  0.18157807476E+02  0.25769624192E+02  0.88038058455E+02  0.93511920309E+02  0.00000000000E+00 0.  1.
          5    1    4    4  501    0 -0.41845143835E+02 -0.13904856150E+02  0.64345231049E+02  0.78116209879E+02  0.41800000000E+01 0.  1.
         -5    1    4    4    0  501 -0.36256678608E+02 -0.84400026861E+01 -0.60421647604E+02  0.71091689305E+02  0.41800000000E+01 0.  1.
</event>
<event>
11    1  0.8479398E-009  0.1573390E+03  0.7561462E-02  0.1089607E+00
         22   -1    0    0    0    0  0.00000000000E+00  0.00000000000E+00  0.81447260572E+02  0.81447260572E+02  0.00000000000E+00 0. -1.
         22   -1    0    0    0    0 -0.00000000000E+00 -0.00000000000E+00 -0.32337309911E+04  0.32337309911E+04  0.00000000000E+00 0.  1.
        -24    2    1    2    0    0  0.30577745033E+02 -0.51244696516E+01 -0.24553675842E+04  0.24569123310E+04  0.81406203081E+02 0.  0.
         25    2    1    2    0    0  0.16075314221E+02  0.89195138156E+02 -0.71477189508E+03  0.73127234980E+03  0.12508476798E+03 0.  0.
         24    2    1    2    0    0 -0.46653059255E+02 -0.84070668504E+02  0.17855748767E+02  0.12699357088E+03  0.81019467048E+02 0.  0.
        -13    1    5    5    0    0 -0.22414435565E+02  0.12738903216E+02  0.11497811884E+01  0.25807141911E+02  0.00000000000E+00 0.  1.
         14    1    5    5    0    0 -0.24238623689E+02 -0.96809571720E+02  0.16705967579E+02  0.10118642897E+03  0.00000000000E+00 0. -1.
         13    1    3    3    0    0  0.15936958673E+00 -0.14044045011E+02 -0.73277635988E+02  0.74611477234E+02  0.00000000000E+00 0. -1.
        -14    1    3    3    0    0  0.30418375447E+02  0.89195753591E+01 -0.23820899482E+04  0.23823008537E+04  0.00000000000E+00 0.  1.
          5    1    4    4  501    0 -0.45438759217E+01  0.11161418733E+03 -0.65038690922E+03  0.65992346352E+03  0.41800000000E+01 0.  1.
         -5    1    4    4    0  501  0.20619190143E+02 -0.22419049177E+02 -0.64384985864E+02  0.71348886277E+02  0.41800000000E+01 0.  1.
</event>
<event>
11    1  0.8479398E-009  0.1401560E+03  0.7561462E-02  0.1107384E+00
         22   -1    0    0    0    0  0.00000000000E+00  0.00000000000E+00  0.65624450106E+03  0.65624450106E+03  0.00000000000E+00 0.  1.
         22   -1    0    0    0    0 -0.00000000000E+00 -0.00000000000E+00 -0.16671762741E+03  0.16671762741E+03  0.00000000000E+00 0.  1.
         24    2    1    2    0    0 -0.44822659927E+02 -0.44121752573E+02 -0.11163537231E+03  0.15076398348E+03  0.79445090918E+02 0.  0.
         25    2    1    2    0    0  0.33547891652E+02  0.59280771905E+02  0.12645782438E+03  0.19047028467E+03  0.12509067528E+03 0.  0.
        -24    2    1    2    0    0  0.11274768275E+02 -0.15159019332E+02  0.47470442158E+03  0.48172786033E+03  0.79752913950E+02 0.  0.
        -11    1    3    3    0    0 -0.47567609716E+02 -0.48695028565E+02 -0.12165947504E+03  0.13940915023E+03  0.00000000000E+00 0.  1.
         12    1    3    3    0    0  0.27449497889E+01  0.45732759913E+01  0.10024102729E+02  0.11354833251E+02  0.00000000000E+00 0. -1.
         11    1    5    5    0    0 -0.47879084450E+01  0.30171909171E+02  0.12233796839E+03  0.12609459417E+03  0.00000000000E+00 0. -1.
        -12    1    5    5    0    0  0.16062676720E+02 -0.45330928503E+02  0.35236645319E+03  0.35563326616E+03  0.00000000000E+00 0.  1.
          5    1    4    4  501    0 -0.47725718212E+02  0.23909813363E+02  0.43321837357E+02  0.68874359132E+02  0.41800000000E+01 0.  1.
         -5    1    4    4    0  501  0.81273609864E+02  0.35370958542E+02  0.83135987021E+02  0.12159592553E+03  0.41800000000E+01 0.  1.
</event>
<event>
11    1  0.8479398E-009  0.2815810E+03  0.7561462E-02  0.1008303E+00
         22   -1    0    0    0    0  0.00000000000E+00  0.00000000000E+00  0.60066705702E+03  0.60066705702E+03  0.00000000000E+00 0.  1.
         22   -1    0    0    0    0 -0.00000000000E+00 -0.00000000000E+00 -0.19442016248E+04  0.19442016248E+04  0.00000000000E+00 0. -1.
         24    2    1    2    0    0 -0.11552502107E+01 -0.20203360562E+02 -0.15950753009E+04  0.15972593162E+04  0.81009859026E+02 0.  0.
         25    2    1    2    0    0 -0.19894436084E+03  0.17207714735E+03 -0.24819072066E+03  0.38266851371E+03  0.12508858548E+03 0.  0.
        -24    2    1    2    0    0  0.20009961105E+03 -0.15187378679E+03  0.49973145377E+03  0.56494085191E+03  0.79505589817E+02 0.  0.
        -13    1    3    3    0    0  0.28048463868E+02 -0.12506796539E+02 -0.25483903973E+03  0.25668282462E+03  0.00000000000E+00 0.  1.
         14    1    3    3    0    0 -0.29203714079E+02 -0.76965640228E+01 -0.13402362612E+04  0.13405764916E+04  0.00000000000E+00 0. -1.
         13    1    5    5    0    0  0.47076127650E+02 -0.79208740913E+02  0.20991331892E+03  0.22924612950E+03  0.00000000000E+00 0. -1.
        -14    1    5    5    0    0  0.15302348340E+03 -0.72665045876E+02  0.28981813485E+03  0.33569472241E+03  0.00000000000E+00 0.  1.
          5    1    4    4  501    0 -0.77051553985E+02  0.21021067338E+02 -0.18818931670E+02  0.82161133346E+02  0.41800000000E+01 0. -1.
         -5    1    4    4    0  501 -0.12189280686E+03  0.15105608001E+03 -0.22937178899E+03  0.30050738037E+03  0.41800000000E+01 0. -1.
</event>
<event>
11    1  0.8479398E-009  0.2316636E+03  0.7561462E-02  0.1034148E+00
         22   -1    0    0    0    0  0.00000000000E+00  0.00000000000E+00  0.11276587900E+04  0.11276587900E+04  0.00000000000E+00 0. -1.
         22   -1    0    0    0    0 -0.00000000000E+00 -0.00000000000E+00 -0.14327230527E+03  0.14327230527E+03  0.00000000000E+00 0.  1.
         24    2    1    2    0    0 -0.82531225832E+02 -0.56204325967E+02  0.58172662022E+02  0.14620294497E+03  0.89559550121E+02 0.  0.
         25    2    1    2    0    0  0.25323456890E+03  0.11949082045E+03  0.18724461102E+03  0.35932317907E+03  0.12508716803E+03 0.  0.
        -24    2    1    2    0    0 -0.17070334307E+03 -0.63286494478E+02  0.73896921173E+03  0.76540497125E+03  0.81390800539E+02 0.  0.
        -11    1    3    3    0    0 -0.67792268035E+02  0.56981602839E+01  0.43971261254E+02  0.81004521184E+02  0.00000000000E+00 0.  1.
         12    1    3    3    0    0 -0.14738957797E+02 -0.61902486251E+02  0.14201400767E+02  0.65198423791E+02  0.00000000000E+00 0. -1.
         13    1    5    5    0    0 -0.63631636779E+02  0.96766993297E+01  0.33628353667E+03  0.34238755927E+03  0.00000000000E+00 0. -1.
        -14    1    5    5    0    0 -0.10707170629E+03 -0.72963193808E+02  0.40268567506E+03  0.42301741198E+03  0.00000000000E+00 0.  1.
          5    1    4    4  501    0  0.71785418247E+02  0.95093000123E+02  0.10381299212E+03  0.15808363191E+03  0.41800000000E+01 0.  1.
         -5    1    4    4    0  501  0.18144915066E+03  0.24397820323E+02  0.83431618894E+02  0.20123954716E+03  0.41800000000E+01 0.  1.
</event>
<event>
11    1  0.8479398E-009  0.1489765E+03  0.7561462E-02  0.1097929E+00
         22   -1    0    0    0    0  0.00000000000E+00  0.00000000000E+00  0.25525531918E+04  0.25525531918E+04  0.00000000000E+00 0.  1.
         22   -1    0    0    0    0 -0.00000000000E+00 -0.00000000000E+00 -0.55101904816E+03  0.55101904816E+03  0.00000000000E+00 0. -1.
        -24    2    1    2    0    0 -0.18550728697E+01 -0.85559865618E+02 -0.50698822132E+03  0.52068864679E+03  0.82192934224E+02 0.  0.
         25    2    1    2    0    0 -0.20449345288E+02  0.45609647200E+01  0.76562599113E+02  0.14815134524E+03  0.12509201170E+03 0.  0.
         24    2    1    2    0    0  0.22304418158E+02  0.80998900898E+02  0.24319597659E+04  0.24347322480E+04  0.80215381296E+02 0.  0.
        -13    1    5    5    0    0  0.44741162389E+02  0.82265281165E+02  0.19864291403E+04  0.19886352299E+04  0.00000000000E+00 0.  1.
         14    1    5    5    0    0 -0.22436744231E+02 -0.12663802667E+01  0.44553062557E+03  0.44609701807E+03  0.00000000000E+00 0. -1.
         11    1    3    3    0    0  0.37870740752E+02 -0.43593943691E+02 -0.31276435671E+03  0.31805057421E+03  0.00000000000E+00 0. -1.
        -12    1    3    3    0    0 -0.39725813622E+02 -0.41965921927E+02 -0.19422386462E+03  0.20263807258E+03  0.00000000000E+00 0.  1.
          5    1    4    4  501    0 -0.59067578590E+02 -0.21837509363E+02  0.79009155906E+02  0.10112257301E+03  0.41800000000E+01 0. -1.
         -5    1    4    4    0  501  0.38618233302E+02  0.26398474083E+02 -0.24465567932E+01  0.47028772229E+02  0.41800000000E+01 0. -1.
</event>
<event>
11    1  0.8479398E-009  0.1708557E+03  0.7561462E-02  0.1077289E+00
         22   -1    0    0    0    0  0.00000000000E+00  0.00000000000E+00  0.20494558523E+03  0.20494558523E+03  0.00000000000E+00 0.  1.
         22   -1    0    0    0    0 -0.00000000000E+00 -0.00000000000E+00 -0.98158826938E+03  0.98158826938E+03  0.00000000000E+00 0. -1.
        -24    2    1    2    0    0 -0.27550659030E+02  0.10056641773E+02 -0.79967298983E+03  0.80428706237E+03  0.80874057444E+02 0.  0.
         25    2    1    2    0    0  0.70919172558E+02 -0.11401259766E+03 -0.88948487643E+02  0.20393004388E+03  0.12508887993E+03 0.  0.
         24    2    1    2    0    0 -0.43368513528E+02  0.10395595589E+03  0.11197879332E+03  0.17831674836E+03  0.81055190218E+02 0.  0.
        -11    1    5    5    0    0 -0.47344850578E+02  0.10944349892E+03  0.75328887121E+02  0.14104557975E+03  0.00000000000E+00 0.  1.
         12    1    5    5    0    0  0.39763370501E+01 -0.54875430332E+01  0.36649906202E+02  0.37271168609E+02  0.00000000000E+00 0. -1.
         11    1    3    3    0    0 -0.32668580915E+02  0.98423992568E+01 -0.79823884156E+03  0.79896768218E+03  0.00000000000E+00 0. -1.
        -12    1    3    3    0    0  0.51179218851E+01  0.21424251620E+00 -0.14341482758E+01  0.53193801853E+01  0.00000000000E+00 0.  1.
          5    1    4    4  501    0  0.26124125355E+02 -0.11428353837E+03 -0.10371263704E+03  0.15657899141E+03  0.41800000000E+01 0.  1.
         -5    1    4    4    0  501  0.44795047203E+02  0.27094071084E+00  0.14764149401E+02  0.47351052473E+02  0.41800000000E+01 0.  1.
</event>
<event>
11    1  0.8479398E-009  0.1465003E+03  0.7561462E-02  0.1100509E+00
         22   -1    0    0    0    0  0.00000000000E+00  0.00000000000E+00  0.19763699205E+03  0.19763699205E+03  0.00000000000E+00 0. -1.
         22   -1    0    0    0    0 -0.00000000000E+00 -0.00000000000E+00 -0.47057909125E+03  0.47057909125E+03  0.00000000000E+00 0. -1.
        -24    2    1    2    0    0 -0.14230189642E+02  0.72808016441E+02 -0.34351738403E+03  0.36029880292E+03  0.79419951502E+02 0.  0.
         25    2    1    2    0    0  0.63254097664E+02 -0.80025252758E+02 -0.35838831037E+02  0.16533430254E+03  0.12508352344E+03 0.  0.
         24    2    1    2    0    0 -0.49023908023E+02  0.72172363167E+01  0.10641411586E+03  0.14258297784E+03  0.80935217658E+02 0.  0.
        -11    1    5    5    0    0 -0.14615192425E+02 -0.54098083162E+01 -0.11328985798E+02  0.19266961225E+02  0.00000000000E+00 0.  1.
         12    1    5    5    0    0 -0.34408715598E+02  0.12627044633E+02  0.11774310166E+03  0.12331601662E+03  0.00000000000E+00 0. -1.
         13    1    3    3    0    0  0.20792451741E+02  0.67235853860E+02 -0.26422955912E+03  0.27344148553E+03  0.00000000000E+00 0. -1.
        -14    1    3    3    0    0 -0.35022641383E+02  0.55721625812E+01 -0.79287824907E+02  0.86857317387E+02  0.00000000000E+00 0.  1.
          5    1    4    4  501    0 -0.32228614857E+02 -0.16909335722E+02  0.15552493812E+02  0.39799016495E+02  0.41800000000E+01 0.  1.
         -5    1    4    4    0  501  0.95482712522E+02 -0.63115917036E+02 -0.51391324849E+02  0.12553528605E+03  0.41800000000E+01 0.  1.
</event>
<event>
11    1  0.8479398E-009  0.1313706E+03  0.7561462E-02  0.1117596E+00
         22   -1    0    0    0    0  0.00000000000E+00  0.00000000000E+00  0.10122318583E+04  0.10122318583E+04  0.00000000000E+00 0.  1.
         22   -1    0    0    0    0 -0.00000000000E+00 -0.00000000000E+00 -0.14454461705E+03  0.14454461705E+03  0.00000000000E+00 0. -1.
         24    2    1    2    0    0 -0.17768451826E+02  0.56618244705E+01 -0.12065098811E+03  0.14375684461E+03  0.75905173104E+02 0.  0.
         25    2    1    2    0    0  0.42656523538E+02  0.21297311970E+02  0.57061993894E+03  0.58611303811E+03  0.12509286242E+03 0.  0.
        -24    2    1    2    0    0 -0.24888071713E+02 -0.26959136441E+02  0.41771829041E+03  0.42690659262E+03  0.80090308562E+02 0.  0.
        -11    1    3    3    0    0 -0.45664483347E+02 -0.45673723010E+00 -0.50886860288E+02  0.68373431961E+02  0.00000000000E+00 0.  1.
         12    1    3    3    0    0  0.27896031521E+02  0.61185617006E+01 -0.69764127820E+02  0.75383412648E+02  0.00000000000E+00 0. -1.
         11    1    5    5    0    0 -0.15570424895E+02 -0.28578258723E+01  0.10788363580E+02  0.19157089781E+02  0.00000000000E+00 0. -1.
        -12    1    5    5    0    0 -0.93176468171E+01 -0.24101310568E+02  0.40692992683E+03  0.40774950284E+03  0.00000000000E+00 0.  1.
          5    1    4    4  501    0  0.65324968936E+02  0.26236894208E+02  0.16042087258E+03  0.17523713916E+03  0.41800000000E+01 0. -1.
         -5    1    4    4    0  501 -0.22668445397E+02 -0.49395822375E+01  0.41019906636E+03  0.41087589895E+03  0.41800000000E+01 0. -1.
</event>
<event>
11    1  0.8479398E-009  0.1451666E+03  0.7561462E-02  0.1101922E+00
         22   -1    0    0    0    0  0.00000000000E+00  0.00000000000E+00  0.64024093600E+03  0.64024093600E+03  0.00000000000E+00 0. -1.
         22   -1    0    0    0    0 -0.00000000000E+00 -0.00000000000E+00 -0.74921159561E+03  0.74921159561E+03  0.00000000000E+00 0.  1.
         24    2    1    2    0    0 -0.67966053974E+02  0.28791593653E+02 -0.71483576102E+03  0.72298605057E+03  0.79185375773E+02 0.  0.
         25    2    1    2    0    0  0.81850222328E+02  0.28664182315E+02  0.21803089982E+03  0.26590628976E+03  0.12509031702E+03 0.  0.
        -24    2    1    2    0    0 -0.13884168355E+02 -0.57455775968E+02  0.38783420159E+03  0.40056019129E+03  0.80865088883E+02 0.  0.
        -11    1    3    3    0    0 -0.52593340392E+02  0.52275523712E+02 -0.60875604831E+03  0.61325583258E+03  0.00000000000E+00 0.  1.
         12    1    3    3    0    0 -0.15372713582E+02 -0.23483930059E+02 -0.10607971270E+03  0.10973021799E+03  0.00000000000E+00 0. -1.
         11    1    5    5    0    0  0.17493412904E+02 -0.25198644747E+02  0.30282522893E+03  0.30437495047E+03  0.00000000000E+00 0. -1.
        -12    1    5    5    0    0 -0.31377581259E+02 -0.32257131221E+02  0.85008972651E+02  0.96185240819E+02  0.00000000000E+00 0.  1.
          5    1    4    4  501    0 -0.31623019568E+02 -0.36189751477E+01  0.30301950139E+02  0.44145134838E+02  0.41800000000E+01 0. -1.
         -5    1    4    4    0  501  0.11347324190E+03  0.32283157463E+02  0.18772894968E+03  0.22176115492E+03  0.41800000000E+01 0. -1.
</event>
<event>
11    1  0.8479398E-009  0.1428536E+03  0.7561462E-02  0.1104413E+00
         22   -1    0    0    0    0  0.00000000000E+00  0.00000000000E+00  0.20969658175E+03  0.20969658175E+03  0.00000000000E+00 0. -1.
         22   -1    0    0    0    0 -0.00000000000E+00 -0.00000000000E+00 -0.90595853498E+03  0.90595853498E+03  0.00000000000E+00 0. -1.
        -24    2    1    2    0    0 -0.11631122222E+01 -0.70197596880E+02 -0.83739603713E+03  0.84416443224E+03  0.80326896006E+02 0.  0.
         25    2    1    2    0    0  0.34216278816E+02  0.29759102460E+02  0.66082700919E+02  0.14855986468E+03  0.12508697821E+03 0.  0.
         24    2    1    2    0    0 -0.33053166594E+02  0.40438494420E+02  0.75051382977E+02  0.12293081980E+03  0.82167467516E+02 0.  0.
        -11    1    5    5    0    0 -0.38478269238E+02  0.25817204579E+02  0.61961162582E-01  0.46336908561E+02  0.00000000000E+00 0.  1.
         12    1    5    5    0    0  0.54251026440E+01  0.14621289841E+02  0.74989421815E+02  0.76593911242E+02  0.00000000000E+00 0. -1.
         11    1    3    3    0    0  0.14114988582E+02 -0.73276640544E+02 -0.42693771539E+03  0.43341032726E+03  0.00000000000E+00 0. -1.
        -12    1    3    3    0    0 -0.15278100805E+02  0.30790436641E+01 -0.41045832174E+03  0.41075410498E+03  0.00000000000E+00 0.  1.
          5    1    4    4  501    0  0.54555651573E+02  0.65544848953E+02  0.22140298773E+02  0.88204940750E+02  0.41800000000E+01 0.  1.
         -5    1    4    4    0  501 -0.20339372757E+02 -0.35785746494E+02  0.43942402146E+02  0.60354923930E+02  0.41800000000E+01 0.  1.
</event>
<event>
11    1  0.8479398E-009  0.2035761E+03  0.7561462E-02  0.1052023E+00
         22   -1    0    0    0    0  0.00000000000E+00  0.00000000000E+00  0.22183306944E+04  0.22183306944E+04  0.00000000000E+00 0.  1.
         22   -1    0    0    0    0 -0.00000000000E+00 -0.00000000000E+00 -0.87968474795E+03  0.87968474795E+03  0.00000000000E+00 0. -1.
         24    2    1    2    0    0 -0.71369343607E+02 -0.11929196913E+03 -0.47401514162E+03  0.50081858312E+03  0.82490857693E+02 0.  0.
         25    2    1    2    0    0  0.16180774330E+03  0.17605945429E+03 -0.34359633642E+03  0.43690423016E+03  0.12509271239E+03 0.  0.
        -24    2    1    2    0    0 -0.90438399688E+02 -0.56767485160E+02  0.21562574245E+04  0.21602926291E+04  0.77566172211E+02 0.  0.
        -13    1    3    3    0    0 -0.26883589056E+02 -0.43511958370E+02 -0.66269676718E+02  0.83711934239E+02  0.00000000000E+00 0.  1.
         14    1    3    3    0    0 -0.44485754551E+02 -0.75780010759E+02 -0.40774546491E+03  0.41710664888E+03  0.00000000000E+00 0. -1.
         11    1    5    5    0    0 -0.40227227657E+02 -0.33823587839E+02  0.43700222833E+03  0.44015135182E+03  0.00000000000E+00 0. -1.
        -12    1    5    5    0    0 -0.50211172031E+02 -0.22943897321E+02  0.17192551962E+04  0.17201412773E+04  0.00000000000E+00 0.  1.
          5    1    4    4  501    0  0.76410951227E+02  0.39177417693E+02 -0.21164200329E+03  0.22843667280E+03  0.41800000000E+01 0.  1.
         -5    1    4    4    0  501  0.85396792068E+02  0.13688203660E+03 -0.13195433313E+03  0.20846755736E+03  0.41800000000E+01 0.  1.
</event>
<event>
11    1  0.8479398E-009  0.1596116E+03  0.7561462E-02  0.1087443E+00
         22   -1    0    0    0    0  0.00000000000E+00  0.00000000000E+00  0.35165722796E+03  0.35165722796E+03  0.00000000000E+00 0. -1.
         22   -1    0    0    0    0 -0.00000000000E+00 -0.00000000000E+00 -0.51000022423E+03  0.51000022423E+03  0.00000000000E+00 0. -1.
        -24    2    1    2    0    0 -0.22255335352E+02 -0.63571051274E+02 -0.39260850192E+03  0.40616431488E+03  0.79318575329E+02 0.  0.
         25    2    1    2    0    0  0.58937235832E+02  0.14541204995E+03  0.10883087859E+02  0.20095735264E+03  0.12508858437E+03 0.  0.
         24    2    1    2    0    0 -0.36681900480E+02 -0.81840998677E+02  0.22338241779E+03  0.25453578468E+03  0.82736027318E+02 0.  0.
        -11    1    5    5    0    0 -0.46302270767E+02 -0.16613742643E+02  0.55459771614E+02  0.74133008777E+02  0.00000000000E+00 0.  1.
         12    1    5    5    0    0  0.96203702864E+01 -0.65227256034E+02  0.16792264617E+03  0.18040277590E+03  0.00000000000E+00 0. -1.
         13    1    3    3    0    0 -0.18351792857E+02 -0.80555036646E+02 -0.35807555134E+03  0.36748333662E+03  0.00000000000E+00 0. -1.
        -14    1    3    3    0    0 -0.39035424950E+01  0.16983985372E+02 -0.34532950580E+02  0.38680978257E+02  0.00000000000E+00 0.  1.
          5    1    4    4  501    0 -0.44043508213E+01  0.13372845231E+03  0.21383033247E+02  0.13556328328E+03  0.41800000000E+01 0. -1.
         -5    1    4    4    0  501  0.63341586654E+02  0.11683597642E+02 -0.10499945388E+02  0.65394069355E+02  0.41800000000E+01 0. -1.
</event>
<event>
11    1  0.8479398E-009  0.1380437E+03  0.7561462E-02  0.1109763E+00
         22   -1    0    0    0    0  0.00000000000E+00  0.00000000000E+00  0.18408307540E+03  0.18408307540E+03  0.00000000000E+00 0. -1.
         22   -1    0    0    0    0 -0.00000000000E+00 -0.00000000000E+00 -0.12208153526E+04  0.12208153526E+04  0.00000000000E+00 0.  1.
        -24    2    1    2    0    0 -0.26062981183E+02 -0.52246255272E+02 -0.78557165443E+03  0.79185500935E+03  0.80638585217E+02 0.  0.
         25    2    1    2    0    0  0.54379405404E+02  0.35972380897E+02 -0.40911782878E+03  0.43275366890E+03  0.12508880128E+03 0.  0.
         24    2    1    2    0    0 -0.28316424221E+02  0.16273874376E+02  0.15795720598E+03  0.18028974976E+03  0.80543504278E+02 0.  0.
        -13    1    5    5    0    0 -0.30558836854E+01 -0.22774414906E+02  0.97577971414E+01  0.24964514905E+02  0.00000000000E+00 0.  1.
         14    1    5    5    0    0 -0.25260540536E+02  0.39048289282E+02  0.14819940884E+03  0.15532523486E+03  0.00000000000E+00 0. -1.
         13    1    3    3    0    0  0.79144358540E+01  0.71853942060E+01 -0.15987430912E+02  0.19231904013E+02  0.00000000000E+00 0. -1.
        -14    1    3    3    0    0 -0.33977417037E+02 -0.59431649478E+02 -0.76958422351E+03  0.77262310534E+03  0.00000000000E+00 0.  1.
          5    1    4    4  501    0 -0.96595137440E+00 -0.27681050932E+02 -0.25900131867E+03  0.26051166791E+03  0.41800000000E+01 0.  1.
         -5    1    4    4    0  501  0.55345356779E+02  0.63653431828E+02 -0.15011651011E+03  0.17224200100E+03  0.41800000000E+01 0.  1.
</event>
<event>
11    1  0.8479398E-009  0.1801095E+03  0.7561462E-02  0.1069554E+00
         22   -1    0    0    0    0  0.00000000000E+00  0.00000000000E+00  0.45757894907E+03  0.45757894907E+03  0.00000000000E+00 0.  1.
         22   -1    0    0    0    0 -0.00000000000E+00 -0.00000000000E+00 -0.15354887886E+03  0.15354887886E+03  0.00000000000E+00 0. -1.
         24    2    1    2    0    0  0.37874088247E+02 -0.97208027554E+02 -0.19299978201E+02  0.13395862616E+03  0.81783721992E+02 0.  0.
         25    2    1    2    0    0  0.10255459723E+03  0.92001247067E+02  0.14671987475E+03  0.23697292722E+03  0.12509105369E+03 0.  0.
        -24    2    1    2    0    0 -0.14042868548E+03  0.52067804866E+01  0.17661017367E+03  0.24019627455E+03  0.82193494846E+02 0.  0.
        -11    1    3    3    0    0  0.33894498217E+02 -0.56580384244E+02  0.27847883735E+02  0.71593865094E+02  0.00000000000E+00 0.  1.
         12    1    3    3    0    0  0.39795900295E+01 -0.40627643310E+02 -0.47147861936E+02  0.62364761067E+02  0.00000000000E+00 0. -1.
         11    1    5    5    0    0 -0.41672244353E+02  0.34066371902E+02  0.93706433938E+02  0.10806474636E+03  0.00000000000E+00 0. -1.
        -12    1    5    5    0    0 -0.98756441127E+02 -0.28859591415E+02  0.82903739732E+02  0.13213152819E+03  0.00000000000E+00 0.  1.
          5    1    4    4  501    0  0.73653804133E+02  0.26833520038E+02  0.14576061183E+03  0.16555527483E+03  0.41800000000E+01 0.  1.
         -5    1    4    4    0  501  0.28900793099E+02  0.65167727029E+02  0.95926291505E+00  0.71417652392E+02  0.41800000000E+01 0.  1.
</event>
<event>
11    1  0.8479398E-009  0.1439229E+03  0.7561462E-02  0.1103255E+00
         22   -1    0    0    0    0  0.00000000000E+00  0.00000000000E+00  0.30468584004E+03  0.30468584004E+03  0.00000000000E+00 0.  1.
         22   -1    0    0    0    0 -0.00000000000E+00 -0.00000000000E+00 -0.25149824270E+04  0.25149824270E+04  0.00000000000E+00 0.  1.
        -24    2    1    2    0    0 -0.67876838774E+02 -0.20310878054E+02 -0.24352033889E+04  0.24377000662E+04  0.84535615335E+02 0.  0.
         25    2    1    2    0    0  0.10160832470E+03 -0.17567604366E+01  0.25737599487E+02  0.16320377002E+03  0.12508280723E+03 0.  0.
         24    2    1    2    0    0 -0.33731485925E+02  0.22067638491E+02  0.19916920246E+03  0.21876443085E+03  0.81022905292E+02 0.  0.
        -11    1    5    5    0    0 -0.25241443402E+02  0.31409920391E+02  0.20187218666E+03  0.20585454406E+03  0.00000000000E+00 0.  1.
         12    1    5    5    0    0 -0.84900425231E+01 -0.93422819001E+01 -0.27029841983E+01  0.12909886782E+02  0.00000000000E+00 0. -1.
         13    1    3    3    0    0 -0.78697668087E+02 -0.19064294963E+02 -0.13410246406E+04  0.13434671031E+04  0.00000000000E+00 0. -1.
        -14    1    3    3    0    0  0.10820829312E+02 -0.12465830905E+01 -0.10941787483E+04  0.10942329631E+04  0.00000000000E+00 0.  1.
          5    1    4    4  501    0 -0.13659574652E+02  0.34428780951E+02  0.19715083879E+02  0.42167308070E+02  0.41800000000E+01 0.  1.
         -5    1    4    4    0  501  0.11526789935E+03 -0.36185541388E+02  0.60225156079E+01  0.12103646195E+03  0.41800000000E+01 0.  1.
</event>
<event>
11    1  0.8479398E-009  0.1359667E+03  0.7561462E-02  0.1112148E+00
         22   -1    0    0    0    0  0.00000000000E+00  0.00000000000E+00  0.33630379611E+03  0.33630379611E+03  0.00000000000E+00 0.  1.
         22   -1    0    0    0    0 -0.00000000000E+00 -0.00000000000E+00 -0.59272106859E+03  0.59272106859E+03  0.00000000000E+00 0. -1.
         24    2    1    2    0    0 -0.20465830017E+02  0.96616426111E+01 -0.32213475837E+03  0.33164512090E+03  0.75534668402E+02 0.  0.
         25    2    1    2    0    0  0.14568957474E+02  0.43590775443E+02 -0.24211533407E+03  0.27636892061E+03  0.12509010776E+03 0.  0.
        -24    2    1    2    0    0  0.58968725429E+01 -0.53252418054E+02  0.30783281996E+03  0.32101082320E+03  0.73595587005E+02 0.  0.
        -11    1    3    3    0    0 -0.25961449917E+02  0.38965040738E+02 -0.23295081471E+03  0.23760966596E+03  0.00000000000E+00 0.  1.
         12    1    3    3    0    0  0.54956198999E+01 -0.29303398127E+02 -0.89183943654E+02  0.94035454939E+02  0.00000000000E+00 0. -1.
         11    1    5    5    0    0 -0.19675681246E+02 -0.22117697715E+02  0.37916150537E+02  0.48103632464E+02  0.00000000000E+00 0. -1.
        -12    1    5    5    0    0  0.25572553789E+02 -0.31134720340E+02  0.26991666943E+03  0.27290719073E+03  0.00000000000E+00 0.  1.
          5    1    4    4  501    0 -0.19431181470E+02  0.76151461074E+02 -0.19189301234E+03  0.20740543972E+03  0.41800000000E+01 0.  1.
         -5    1    4    4    0  501  0.34000138944E+02 -0.32560685631E+02 -0.50222321728E+02  0.68963480892E+02  0.41800000000E+01 0.  1.
</event>
<event>
11    1  0.8479398E-009  0.1345474E+03  0.7561462E-02  0.1113805E+00
         22   -1    0    0    0    0  0.00000000000E+00  0.00000000000E+00  0.16280868305E+03  0.16280868305E+03  0.00000000000E+00 0.  1.
         22   -1    0    0    0    0 -0.00000000000E+00 -0.00000000000E+00 -0.17431637435E+04  0.17431637435E+04  0.00000000000E+00 0.  1.
         24    2    1    2    0    0 -0.12786226877E+02  0.15668244993E+02 -0.85176390900E+03  0.85573210621E+03  0.79791599987E+02 0.  0.
         25    2    1    2    0    0 -0.36957845404E+02 -0.15262374881E+02 -0.87128727437E+03  0.88112864127E+03  0.12508935027E+03 0.  0.
        -24    2    1    2    0    0  0.49744072281E+02 -0.40587011183E+00  0.14269612294E+03  0.16911167905E+03  0.75907437273E+02 0.  0.
        -11    1    3    3    0    0 -0.24523662244E+02  0.44708054705E+02 -0.52748419063E+03  0.52994319651E+03  0.00000000000E+00 0.  1.
         12    1    3    3    0    0  0.11737435367E+02 -0.29039809713E+02 -0.32427971837E+03  0.32578890970E+03  0.00000000000E+00 0. -1.
         11    1    5    5    0    0  0.30786331709E+02  0.15163730221E+02  0.12343137074E+02  0.36470398505E+02  0.00000000000E+00 0. -1.
        -12    1    5    5    0    0  0.18957740572E+02 -0.15569600333E+02  0.13035298586E+03  0.13264128055E+03  0.00000000000E+00 0.  1.
          5    1    4    4  501    0 -0.14963951689E+01 -0.65226155637E+02 -0.56308392975E+03  0.56686654066E+03  0.41800000000E+01 0. -1.
         -5    1    4    4    0  501 -0.35461450235E+02  0.49963780756E+02 -0.30820334462E+03  0.31426210060E+03  0.41800000000E+01 0. -1.
</event>
<event>
11    1  0.8479398E-009  0.1470586E+03  0.7561462E-02  0.1099923E+00
         22   -1    0    0    0    0  0.00000000000E+00  0.00000000000E+00  0.56955060204E+03  0.56955060204E+03  0.00000000000E+00 0. -1.
         22   -1    0    0    0    0 -0.00000000000E+00 -0.00000000000E+00 -0.37803817327E+03  0.37803817327E+03  0.00000000000E+00 0.  1.
        -24    2    1    2    0    0  0.11496897833E+02 -0.78473672910E+02 -0.19603042941E+03  0.22512612536E+03  0.77224005766E+02 0.  0.
         25    2    1    2    0    0  0.25390560558E+02  0.74685741809E+02 -0.13031165332E+03  0.19710617831E+03  0.12508828059E+03 0.  0.
         24    2    1    2    0    0 -0.36887458392E+02  0.37879311017E+01  0.51785451150E+03  0.52535647164E+03  0.80318703951E+02 0.  0.
        -13    1    5    5    0    0 -0.25476556732E+02 -0.36510358524E+02  0.21010426656E+03  0.21476932753E+03  0.00000000000E+00 0.  1.
         14    1    5    5    0    0 -0.11410901660E+02  0.40298289626E+02  0.30775024494E+03  0.31058714411E+03  0.00000000000E+00 0. -1.
         13    1    3    3    0    0 -0.29664726296E+02 -0.19820476393E+02 -0.41080169866E+02  0.54409811862E+02  0.00000000000E+00 0. -1.
        -14    1    3    3    0    0  0.41161624129E+02 -0.58653196518E+02 -0.15495025954E+03  0.17071631350E+03  0.00000000000E+00 0.  1.
          5    1    4    4  501    0 -0.24705931802E+02 -0.14884469889E+02 -0.74963869657E+02  0.80429998533E+02  0.41800000000E+01 0.  1.
         -5    1    4    4    0  501  0.50096492360E+02  0.89570211698E+02 -0.55347783660E+02  0.11667617977E+03  0.41800000000E+01 0.  1.
</event>
<event>
11    1  0.8479398E-009  0.1417517E+03  0.7561462E-02  0.1105618E+00
         22   -1    0    0    0    0  0.00000000000E+00  0.00000000000E+00  0.13349233079E+04  0.13349233079E+04  0.00000000000E+00 0. -1.
         22   -1    0    0    0    0 -0.00000000000E+00 -0.00000000000E+00 -0.24849763783E+03  0.24849763783E+03  0.00000000000E+00 0. -1.
         24    2    1    2    0    0 -0.61204571370E+02 -0.17201833710E+02 -0.19107863626E+03  0.21655987840E+03  0.79656971195E+02 0.  0.
         25    2    1    2    0    0  0.94371981328E+02  0.53608529631E+02  0.11749519206E+03  0.20305753486E+03  0.12508915620E+03 0.  0.
        -24    2    1    2    0    0 -0.33167409959E+02 -0.36406695921E+02  0.11600091143E+04  0.11638035325E+04  0.79949936947E+02 0.  0.
        -13    1    3    3    0    0 -0.55166538778E+02 -0.56864683527E+01 -0.49352279716E+02  0.74238335355E+02  0.00000000000E+00 0.  1.
         14    1    3    3    0    0 -0.60380325917E+01 -0.11515365358E+02 -0.14172635654E+03  0.14232154305E+03  0.00000000000E+00 0. -1.
         13    1    5    5    0    0 -0.12950149547E+02 -0.55902072107E+02  0.97370010274E+03  0.97538948021E+03  0.00000000000E+00 0. -1.
        -14    1    5    5    0    0 -0.20217260411E+02  0.19495376186E+02  0.18630901154E+03  0.18841405227E+03  0.00000000000E+00 0.  1.
          5    1    4    4  501    0  0.27792641851E+02 -0.32121572531E+02 -0.48656768173E+00  0.42684136527E+02  0.41800000000E+01 0.  1.
         -5    1    4    4    0  501  0.66579339478E+02  0.85730102162E+02  0.11798175974E+03  0.16037339834E+03  0.41800000000E+01 0.  1.
</event>
<event>
11    1  0.8479398E-009  0.1359957E+03  0.7561462E-02  0.1112114E+00
         22   -1    0    0    0    0  0.00000000000E+00  0.00000000000E+00  0.37225130492E+03  0.37225130492E+03  0.00000000000E+00 0.  1.
         22   -1    0    0    0    0 -0.00000000000E+00 -0.00000000000E+00 -0.13940200257E+04  0.13940200257E+04  0.00000000000E+00 0.  1.
         24    2    1    2    0    0  0.76321174875E+01  0.53008750098E+02 -0.13262397979E+04  0.13297255866E+04  0.79937209335E+02 0.  0.
         25    2    1    2    0    0 -0.86993470059E+01 -0.44604821440E+02  0.10951444575E+02  0.13353813024E+03  0.12508888582E+03 0.  0.
        -24    2    1    2    0    0  0.10672295184E+01 -0.84039286576E+01  0.29351963247E+03  0.30300761380E+03  0.74753423861E+02 0.  0.
        -13    1    3    3    0    0  0.34781660483E+02  0.11712459257E+02 -0.87853796976E+03  0.87930421920E+03  0.00000000000E+00 0.  1.
         14    1    3    3    0    0 -0.27149542995E+02  0.41296290840E+02 -0.44770182811E+03  0.45042136740E+03  0.00000000000E+00 0. -1.
         11    1    5    5    0    0 -0.84638919637E+01  0.32543447061E+01 -0.33964735003E-01  0.90680416984E+01  0.00000000000E+00 0. -1.
        -12    1    5    5    0    0  0.95311214822E+01 -0.11658273364E+02  0.29355359721E+03  0.29393957210E+03  0.00000000000E+00 0.  1.
          5    1    4    4  501    0 -0.44771972957E+02 -0.42179007014E+02  0.50570448972E+02  0.79739832608E+02  0.41800000000E+01 0.  1.
         -5    1    4    4    0  501  0.36072625951E+02 -0.24258144261E+01 -0.39619004397E+02  0.53798297631E+02  0.41800000000E+01 0.  1.
</event>
<event>
11    1  0.8479398E-009  0.1730208E+03  0.7561462E-02  0.1075432E+00
         22   -1    0    0    0    0  0.00000000000E+00  0.00000000000E+00  0.11308347788E+03  0.11308347788E+03  0.00000000000E+00 0.  1.
         22   -1    0    0    0    0 -0.00000000000E+00 -0.00000000000E+00 -0.17250340696E+04  0.17250340696E+04  0.00000000000E+00 0.  1.
         24    2    1    2    0    0  0.48899272381E+02  0.11698479820E+03 -0.12942575280E+04  0.13029560647E+04  0.80717878739E+02 0.  0.
         25    2    1    2    0    0 -0.60180028290E+02 -0.75776225213E+02 -0.38899586539E+03  0.41991404610E+03  0.12508537367E+03 0.  0.
        -24    2    1    2    0    0  0.11280755909E+02 -0.41208572989E+02  0.71302801706E+02  0.11524743663E+03  0.79827815814E+02 0.  0.
        -11    1    3    3    0    0  0.50455371664E+02  0.10029697709E+03 -0.12581365128E+04  0.12631360628E+04  0.00000000000E+00 0.  1.
         12    1    3    3    0    0 -0.15560992829E+01  0.16687821112E+02 -0.36121015166E+02  0.39820001947E+02  0.00000000000E+00 0. -1.
         11    1    5    5    0    0  0.10651433329E+02  0.13521276755E+02 -0.79270725873E+01  0.18950367723E+02  0.00000000000E+00 0. -1.
        -12    1    5    5    0    0  0.62932258028E+00 -0.54729849744E+02  0.79229874293E+02  0.96297068909E+02  0.00000000000E+00 0.  1.
          5    1    4    4  501    0 -0.53357970322E+02 -0.98481439811E+02 -0.37642052082E+03  0.39275380059E+03  0.41800000000E+01 0.  1.
         -5    1    4    4    0  501 -0.68220579681E+01  0.22705214598E+02 -0.12575344567E+02  0.27160245504E+02  0.41800000000E+01 0.  1.
</event>
<event>
11    1  0.8479398E-009  0.1467725E+03  0.7561462E-02  0.1100223E+00
         22   -1    0    0    0    0  0.00000000000E+00  0.00000000000E+00  0.23729698060E+04  0.23729698060E+04  0.00000000000E+00 0.  1.
         22   -1    0    0    0    0 -0.00000000000E+00 -0.00000000000E+00 -0.56602058821E+03  0.56602058821E+03  0.00000000000E+00 0.  1.
         24    2    1    2    0    0  0.20438964141E+02  0.76474332702E+02 -0.53565203510E+03  0.54740077359E+03  0.80364354097E+02 0.  0.
         25    2    1    2    0    0  0.22070626768E+02 -0.11348276850E+02  0.15314019286E+03  0.19928626435E+03  0.12508877063E+03 0.  0.
        -24    2    1    2    0    0 -0.42509590909E+02 -0.65126055851E+02  0.21894610600E+04  0.21923033563E+04  0.80036267061E+02 0.  0.
        -13    1    3    3    0    0  0.34074533415E+02  0.87450389075E+02 -0.47891844830E+03  0.48802820052E+03  0.00000000000E+00 0.  1.
         14    1    3    3    0    0 -0.13635569274E+02 -0.10976056373E+02 -0.56733586797E+02  0.59372573077E+02  0.00000000000E+00 0. -1.
         13    1    5    5    0    0  0.14719173439E+02 -0.11836722555E+02  0.10464813469E+04  0.10466517909E+04  0.00000000000E+00 0. -1.
        -14    1    5    5    0    0 -0.57228764348E+02 -0.53289333297E+02  0.11429797132E+04  0.11456515654E+04  0.00000000000E+00 0.  1.
          5    1    4    4  501    0  0.64615154217E+02  0.85449013088E+01  0.13268694751E+03  0.14788993182E+03  0.41800000000E+01 0.  1.
         -5    1    4    4    0  501 -0.42544527449E+02 -0.19893178159E+02  0.20453245346E+02  0.51396332537E+02  0.41800000000E+01 0.  1.
</event>
<event>
11    1  0.8479398E-009  0.1321010E+03  0.7561462E-02  0.1116714E+00
         22   -1    0    0    0    0  0.00000000000E+00  0.00000000000E+00  0.26849927672E+03  0.26849927672E+03  0.00000000000E+00 0. -1.
         22   -1    0    0    0    0 -0.00000000000E+00 -0.00000000000E+00 -0.30859245774E+03  0.30859245774E+03  0.00000000000E+00 0.  1.
        -24    2    1    2    0    0  0.45475205898E+02  0.60661622446E+01 -0.20323464081E+03  0.22436837522E+03  0.83258968869E+02 0.  0.
         25    2    1    2    0    0 -0.27884425778E+02  0.80397710130E+01 -0.38461778843E+02  0.13405722905E+03  0.12509937294E+03 0.  0.
         24    2    1    2    0    0 -0.17590780120E+02 -0.14105933258E+02  0.20160323863E+03  0.21866613018E+03  0.81624737431E+02 0.  0.
        -11    1    5    5    0    0  0.15451454169E+02 -0.35084237624E+02  0.55792820216E+02  0.67694090978E+02  0.00000000000E+00 0.  1.
         12    1    5    5    0    0 -0.33042234289E+02  0.20978304367E+02  0.14581041842E+03  0.15097203920E+03  0.00000000000E+00 0. -1.
         11    1    3    3    0    0  0.58949419180E+02 -0.11322599677E+02 -0.18866170186E+03  0.19798099160E+03  0.00000000000E+00 0. -1.
        -12    1    3    3    0    0 -0.13474213282E+02  0.17388761921E+02 -0.14572938950E+02  0.26387383621E+02  0.00000000000E+00 0.  1.
          5    1    4    4  501    0 -0.22145131589E+02  0.17860704957E+02 -0.83031213567E+02  0.87869599186E+02  0.41800000000E+01 0.  1.
         -5    1    4    4    0  501 -0.57392941887E+01 -0.98209339442E+01  0.44569434724E+02  0.46187629869E+02  0.41800000000E+01 0.  1.
</event>
<event>
11    1  0.8479398E-009  0.1514720E+03  0.7561462E-02  0.1095384E+00
         22   -1    0    0    0    0  0.00000000000E+00  0.00000000000E+00  0.61604397909E+03  0.61604397909E+03  0.00000000000E+00 0.  1.
         22   -1    0    0    0    0 -0.00000000000E+00 -0.00000000000E+00 -0.39872099281E+03  0.39872099281E+03  0.00000000000E+00 0. -1.
         24    2    1    2    0    0  0.35074828783E+02 -0.76653309978E+02 -0.35042684186E+03  0.36945182658E+03  0.81177011058E+02 0.  0.
         25    2    1    2    0    0  0.15568537566E+02  0.14079846362E+03  0.28521096161E+03  0.34213885472E+03  0.12508843498E+03 0.  0.
        -24    2    1    2    0    0 -0.50643366349E+02 -0.64145153646E+02  0.28253886654E+03  0.30317429059E+03  0.73532904746E+02 0.  0.
        -11    1    3    3    0    0  0.81179692225E+01 -0.14945577461E+02 -0.23650860223E+03  0.23711935948E+03  0.00000000000E+00 0.  1.
         12    1    3    3    0    0  0.26956859561E+02 -0.61707732518E+02 -0.11391823963E+03  0.13233246711E+03  0.00000000000E+00 0. -1.
         11    1    5    5    0    0  0.16284451714E+02 -0.22662580037E+02  0.45263410394E+02  0.53174732929E+02  0.00000000000E+00 0. -1.
        -12    1    5    5    0    0 -0.66927818063E+02 -0.41482573610E+02  0.23727545614E+03  0.24999955766E+03  0.00000000000E+00 0.  1.
          5    1    4    4  501    0 -0.35605802481E+02  0.71888821707E+01  0.22406968344E+02  0.42883537956E+02  0.41800000000E+01 0.  1.
         -5    1    4    4    0  501  0.51174340047E+02  0.13360958145E+03  0.26280399326E+03  0.29925531676E+03  0.41800000000E+01 0.  1.
</event>
<event>
11    1  0.8479398E-009  0.1583826E+03  0.7561462E-02  0.1088608E+00
         22   -1    0    0    0    0  0.00000000000E+00  0.00000000000E+00  0.27488519041E+03  0.27488519041E+03  0.00000000000E+00 0. -1.
         22   -1    0    0    0    0 -0.00000000000E+00 -0.00000000000E+00 -0.11535527840E+04  0.11535527840E+04  0.00000000000E+00 0.  1.
        -24    2    1    2    0    0  0.25305440734E+02  0.88860059791E+02 -0.82589736102E+03  0.83492671966E+03  0.80372263310E+02 0.  0.
         25    2    1    2    0    0 -0.18800827253E+02 -0.12231450191E+03 -0.29108811567E+03  0.34013813394E+03  0.12508937043E+03 0.  0.
         24    2    1    2    0    0 -0.65046134804E+01  0.33454442115E+02  0.23831788315E+03  0.25337312076E+03  0.79000096214E+02 0.  0.
        -13    1    5    5    0    0 -0.69733987377E+01 -0.13076064585E+02  0.52753522583E+01  0.15730260533E+02  0.00000000000E+00 0.  1.
         14    1    5    5    0    0  0.46878525729E+00  0.46530506700E+02  0.23304253089E+03  0.23764286023E+03  0.00000000000E+00 0. -1.
         11    1    3    3    0    0  0.14008299481E+02 -0.12259880680E+02 -0.80957507687E+02  0.83070182253E+02  0.00000000000E+00 0. -1.
        -12    1    3    3    0    0  0.11297141253E+02  0.10111994047E+03 -0.74493985334E+03  0.75185653741E+03  0.00000000000E+00 0.  1.
          5    1    4    4  501    0  0.37096703110E+02 -0.44458363409E+02 -0.37760259046E+02  0.69253310548E+02  0.41800000000E+01 0. -1.
         -5    1    4    4    0  501 -0.55897530363E+02 -0.77856138496E+02 -0.25332785663E+03  0.27088482339E+03  0.41800000000E+01 0. -1.
</event>
<event>
11    1  0.8479398E-009  0.1494671E+03  0.7561462E-02  0.1097425E+00
         22   -1    0    0    0    0  0.00000000000E+00  0.00000000000E+00  0.13521168925E+04  0.13521168925E+04  0.00000000000E+00 0.  1.
         22   -1    0    0    0    0 -0.00000000000E+00 -0.00000000000E+00 -0.84694241371E+02  0.84694241371E+02  0.00000000000E+00 0.  1.
        -24    2    1    2    0    0  0.65718353220E+02  0.42600576981E+02  0.80080492157E+01  0.11197836240E+03  0.79632365817E+02 0.  0.
         25    2    1    2    0    0 -0.76607077894E+02 -0.53074770609E+02  0.16371817937E+03  0.22613370445E+03  0.12508890587E+03 0.  0.
         24    2    1    2    0    0  0.10888724674E+02  0.10474193628E+02  0.10956964226E+04  0.10986990670E+04  0.79754099776E+02 0.  0.
        -13    1    5    5    0    0 -0.12523806715E+02  0.34698733661E+02  0.83776553852E+03  0.83857733417E+03  0.00000000000E+00 0.  1.
         14    1    5    5    0    0  0.23412531389E+02 -0.24224540033E+02  0.25793088405E+03  0.26012173287E+03  0.00000000000E+00 0. -1.
         13    1    3    3    0    0  0.26788321918E+02 -0.22323062715E+02 -0.48083706276E+01  0.35200195287E+02  0.00000000000E+00 0. -1.
        -14    1    3    3    0    0  0.38930031302E+02  0.64923639695E+02  0.12816419843E+02  0.76778167118E+02  0.00000000000E+00 0.  1.
          5    1    4    4  501    0  0.15394099117E+02 -0.26342338926E+02  0.11405528735E+03  0.11813965499E+03  0.41800000000E+01 0. -1.
         -5    1    4    4    0  501 -0.92001177011E+02 -0.26732431682E+02  0.49662892014E+02  0.10799404946E+03  0.41800000000E+01 0. -1.
</event>
<event>
11    1  0.8479398E-009  0.1635223E+03  0.7561462E-02  0.1083810E+00
         22   -1    0    0    0    0  0.00000000000E+00  0.00000000000E+00  0.19581813199E+04  0.19581813199E+04  0.00000000000E+00 0.  1.
         22   -1    0    0    0    0 -0.00000000000E+00 -0.00000000000E+00 -0.15084717100E+03  0.15084717100E+03  0.00000000000E+00 0.  1.
         24    2    1    2    0    0 -0.24504714786E+02  0.41272318097E+02 -0.11898042710E+03  0.15196304791E+03  0.81440411399E+02 0.  0.
         25    2    1    2    0    0  0.66298266617E+02 -0.12647450580E+03  0.73695041729E+03  0.76100936717E+03  0.12509228031E+03 0.  0.
        -24    2    1    2    0    0 -0.41793551831E+02  0.85202187705E+02  0.11893641587E+04  0.11960560758E+04  0.83408157515E+02 0.  0.
        -13    1    3    3    0    0 -0.13315132095E+02  0.55746254591E+02 -0.12067072738E+03  0.13359027693E+03  0.00000000000E+00 0.  1.
         14    1    3    3    0    0 -0.11189582691E+02 -0.14473936494E+02  0.16903002802E+01  0.18372770979E+02  0.00000000000E+00 0. -1.
         11    1    5    5    0    0 -0.29367229409E+02 -0.91456315626E+01  0.25044910495E+03  0.25233079660E+03  0.00000000000E+00 0. -1.
        -12    1    5    5    0    0 -0.12426322422E+02  0.94347819268E+02  0.93891505373E+03  0.94372527920E+03  0.00000000000E+00 0.  1.
          5    1    4    4  501    0  0.59696030356E+02 -0.14799582907E+03  0.55114132994E+03  0.57379492803E+03  0.41800000000E+01 0. -1.
         -5    1    4    4    0  501  0.66022362616E+01  0.21521323271E+02  0.18580908735E+03  0.18721443914E+03  0.41800000000E+01 0. -1.
</event>
<event>
11    1  0.8479398E-009  0.1370418E+03  0.7561462E-02  0.1110907E+00
         22   -1    0    0    0    0  0.00000000000E+00  0.00000000000E+00  0.94862823635E+02  0.94862823635E+02  0.00000000000E+00 0.  1.
         22   -1    0    0    0    0 -0.00000000000E+00 -0.00000000000E+00 -0.12237839638E+04  0.12237839638E+04  0.00000000000E+00 0.  1.
        -24    2    1    2    0    0 -0.49583354641E+02  0.19923398983E+02 -0.71525098697E+03  0.72157988064E+03  0.78981636512E+02 0.  0.
         25    2    1    2    0    0  0.71645309659E+02  0.12779171877E+02 -0.47075415089E+03  0.49249594529E+03  0.12508568233E+03 0.  0.
         24    2    1    2    0    0 -0.22061955018E+02 -0.32702570861E+02  0.57083997728E+02  0.10457096146E+03  0.78232443295E+02 0.  0.
        -11    1    5    5    0    0  0.44271581296E+01 -0.37473207351E+02  0.66162040337E+02  0.76165980462E+02  0.00000000000E+00 0.  1.
         12    1    5    5    0    0 -0.26489113147E+02  0.47706364905E+01 -0.90780426091E+01  0.28404980997E+02  0.00000000000E+00 0. -1.
         11    1    3    3    0    0  0.10270847126E+02 -0.20037265597E+02 -0.21558826555E+03  0.21676088797E+03  0.00000000000E+00 0. -1.
        -12    1    3    3    0    0 -0.59854201767E+02  0.39960664580E+02 -0.49966272142E+03  0.50481899267E+03  0.00000000000E+00 0.  1.
          5    1    4    4  501    0  0.22423216274E+02 -0.83577301167E+01 -0.65058132344E+01  0.25148564306E+02  0.41800000000E+01 0.  1.
         -5    1    4    4    0  501  0.49222093384E+02  0.21136901994E+02 -0.46424833765E+03  0.46734738099E+03  0.41800000000E+01 0.  1.
</event>
<event>
11    1  0.8479398E-009  0.1763439E+03  0.7561462E-02  0.1072639E+00
         22   -1    0    0    0    0  0.00000000000E+00  0.00000000000E+00  0.64191391373E+03  0.64191391373E+03  0.00000000000E+00 0. -1.
         22   -1    0    0    0    0 -0.00000000000E+00 -0.00000000000E+00 -0.18327588767E+04  0.18327588767E+04  0.00000000000E+00 0.  1.
        -24    2    1    2    0    0  0.68443989651E+02 -0.19698721509E+02 -0.17717441219E+04  0.17749648593E+04  0.79689389104E+02 0.  0.
         25    2    1    2    0    0 -0.63324507512E+01 -0.98705454273E+02  0.86227801582E+02  0.18129203281E+03  0.12509476712E+03 0.  0.
         24    2    1    2    0    0 -0.62111538900E+02  0.11840417578E+03  0.49467135737E+03  0.51841589835E+03  0.78599616740E+02 0.  0.
        -13    1    5    5    0    0  0.13272734007E+02  0.15529770097E+02  0.28190018641E+02  0.34814025597E+02  0.00000000000E+00 0.  1.
         14    1    5    5    0    0 -0.75384272907E+02  0.10287440569E+03  0.46648133873E+03  0.48360187275E+03  0.00000000000E+00 0. -1.
         13    1    3    3    0    0  0.37141714219E+02  0.30253491653E+02 -0.81344870024E+03  0.81485800518E+03  0.00000000000E+00 0. -1.
        -14    1    3    3    0    0  0.31302275432E+02 -0.49952213163E+02 -0.95829542171E+03  0.96010685411E+03  0.00000000000E+00 0.  1.
          5    1    4    4  501    0  0.22451146647E+01 -0.31479771308E+02 -0.31882631499E+02  0.45055422900E+02  0.41800000000E+01 0.  1.
         -5    1    4    4    0  501 -0.85775654159E+01 -0.67225682965E+02  0.11811043308E+03  0.13623660991E+03  0.41800000000E+01 0.  1.
</event>
<event>
11    1  0.8479398E-009  0.1441572E+03  0.7561462E-02  0.1103003E+00
         22   -1    0    0    0    0  0.00000000000E+00  0.00000000000E+00  0.63903890939E+03  0.63903890939E+03  0.00000000000E+00 0. -1.
         22   -1    0    0    0    0 -0.00000000000E+00 -0.00000000000E+00 -0.28009232116E+04  0.28009232116E+04  0.00000000000E+00 0.  1.
         24    2    1    2    0    0 -0.37605026103E+01  0.35813024164E+02 -0.22288061617E+04  0.22307287615E+04  0.85306431326E+02 0.  0.
         25    2    1    2    0    0  0.65570070317E+02 -0.71794077878E+02 -0.55545421356E+03  0.57760255543E+03  0.12506600231E+03 0.  0.
        -24    2    1    2    0    0 -0.61809567706E+02  0.35981053714E+02  0.62237607298E+03  0.63163080405E+03  0.80563251610E+02 0.  0.
        -13    1    3    3    0    0 -0.23501212771E+02  0.50680361925E+02 -0.19581451294E+04  0.19589418455E+04  0.00000000000E+00 0.  1.
         14    1    3    3    0    0  0.19740710161E+02 -0.14867337762E+02 -0.27066103220E+03  0.27178691603E+03  0.00000000000E+00 0. -1.
         11    1    5    5    0    0 -0.57877538206E+02  0.59334327908E+02  0.44177066393E+03  0.44947935593E+03  0.00000000000E+00 0. -1.
        -12    1    5    5    0    0 -0.39320295002E+01 -0.23353274193E+02  0.18060540905E+03  0.18215144812E+03  0.00000000000E+00 0.  1.
          5    1    4    4  501    0  0.17335022740E+02 -0.75579843401E+02 -0.14680920436E+03  0.16608199971E+03  0.41800000000E+01 0.  1.
         -5    1    4    4    0  501  0.48235047577E+02  0.37857655224E+01 -0.40864500920E+03  0.41152055572E+03  0.41800000000E+01 0.  1.
</event>
<event>
11    1  0.8479398E-009  0.1561843E+03  0.7561462E-02  0.1090722E+00
         22   -1    0    0    0    0  0.00000000000E+00  0.00000000000E+00  0.39219088037E+04  0.39219088037E+04  0.00000000000E+00 0. -1.
         22   -1    0    0    0    0 -0.00000000000E+00 -0.00000000000E+00 -0.41322887245E+02  0.41322887245E+02  0.00000000000E+00 0. -1.
        -24    2    1    2    0    0 -0.10745866909E+03 -0.94968459508E+01  0.12702603513E+03  0.18617952701E+03  0.83003897695E+02 0.  0.
         25    2    1    2    0    0  0.53880235321E+02  0.11714380327E+02  0.41164571635E+03  0.43375082741E+03  0.12508908037E+03 0.  0.
         24    2    1    2    0    0  0.53578433765E+02 -0.22175343758E+01  0.33419141649E+04  0.33433013365E+04  0.79987340845E+02 0.  0.
        -11    1    5    5    0    0 -0.18178784985E+02 -0.11134863961E+02  0.47898347318E+03  0.47945763212E+03  0.00000000000E+00 0.  1.
         12    1    5    5    0    0  0.71757218750E+02  0.89173295856E+01  0.28629306918E+04  0.28638437044E+04  0.00000000000E+00 0. -1.
         11    1    3    3    0    0 -0.46468594830E+02  0.16500584875E+02  0.80308627506E+01  0.49960928366E+02  0.00000000000E+00 0. -1.
        -12    1    3    3    0    0 -0.60990074256E+02 -0.25997430826E+02  0.11899517238E+03  0.13621859864E+03  0.00000000000E+00 0.  1.
          5    1    4    4  501    0 -0.19042567518E+02  0.31399585221E+02  0.39906991932E+02  0.54392956665E+02  0.41800000000E+01 0. -1.
         -5    1    4    4    0  501  0.72922802839E+02 -0.19685204894E+02  0.37173872442E+03  0.37935787075E+03  0.41800000000E+01 0. -1.
</event>
<event>
11    1  0.8479398E-009  0.2051384E+03  0.7561462E-02  0.1050948E+00
         22   -1    0    0    0    0  0.00000000000E+00  0.00000000000E+00  0.71349552724E+03  0.71349552724E+03  0.00000000000E+00 0. -1.
         22   -1    0    0    0    0 -0.00000000000E+00 -0.00000000000E+00 -0.23388957510E+03  0.23388957510E+03  0.00000000000E+00 0. -1.
        -24    2    1    2    0    0  0.55067757127E+02 -0.20795083689E+01 -0.11688486915E+03  0.15254121787E+03  0.81055340868E+02 0.  0.
         25    2    1    2    0    0  0.11201231522E+03 -0.32091692502E+02  0.16382999862E+01  0.17095847723E+03  0.12508989336E+03 0.  0.
         24    2    1    2    0    0 -0.16708007234E+03  0.34171200871E+02  0.59485252130E+03  0.62388540724E+03  0.79372902979E+02 0.  0.
        -13    1    5    5    0    0  0.11287025243E+01  0.63296895022E+01  0.16093063327E+01  0.66278809173E+01  0.00000000000E+00 0.  1.
         14    1    5    5    0    0 -0.16820877487E+03  0.27841511369E+02  0.59324321497E+03  0.61725752633E+03  0.00000000000E+00 0. -1.
         11    1    3    3    0    0  0.29819560229E+01 -0.47107347231E+00 -0.96559976780E+02  0.96607158574E+02  0.00000000000E+00 0. -1.
        -12    1    3    3    0    0  0.52085801104E+02 -0.16084348966E+01 -0.20324892367E+02  0.55934059295E+02  0.00000000000E+00 0.  1.
          5    1    4    4  501    0  0.35643976919E+02 -0.24390315749E+02  0.60280937238E+02  0.74274116536E+02  0.41800000000E+01 0. -1.
         -5    1    4    4    0  501  0.76368338299E+02 -0.77013767531E+01 -0.58642637252E+02  0.96684360691E+02  0.41800000000E+01 0. -1.
</event>
<event>
11    1  0.8479398E-009  0.1667317E+03  0.7561462E-02  0.1080911E+00
         22   -1    0    0    0    0  0.00000000000E+00  0.00000000000E+00  0.16328372290E+03  0.16328372290E+03  0.00000000000E+00 0. -1.
         22   -1    0    0    0    0 -0.00000000000E+00 -0.00000000000E+00 -0.21968212672E+04  0.21968212672E+04  0.00000000000E+00 0.  1.
         24    2    1    2    0    0 -0.33589840277E+02  0.10162291014E+03 -0.15833166779E+04  0.15889203431E+04  0.79502583672E+02 0.  0.
         25    2    1    2    0    0  0.44761951059E+02 -0.11702891252E+03 -0.58597305906E+03  0.61213708003E+03  0.12509188696E+03 0.  0.
        -24    2    1    2    0    0 -0.11172110782E+02  0.15406002383E+02  0.13575219261E+03  0.15904756706E+03  0.80655500854E+02 0.  0.
        -13    1    3    3    0    0 -0.48790303782E+02  0.55318937617E+02 -0.12362691579E+04  0.12384676457E+04  0.00000000000E+00 0.  1.
         14    1    3    3    0    0  0.15200463505E+02  0.46303972523E+02 -0.34704752003E+03  0.35045269740E+03  0.00000000000E+00 0. -1.
         13    1    5    5    0    0  0.81191961813E+01 -0.16624742840E+02  0.11460802791E+03  0.11609178904E+03  0.00000000000E+00 0. -1.
        -14    1    5    5    0    0 -0.19291306963E+02  0.32030745223E+02  0.21144164704E+02  0.42955778016E+02  0.00000000000E+00 0.  1.
          5    1    4    4  501    0  0.40057174147E+01  0.22931386956E+01 -0.29409006992E+03  0.29415598903E+03  0.41800000000E+01 0.  1.
         -5    1    4    4    0  501  0.40756233645E+02 -0.11932205122E+03 -0.29188298913E+03  0.31798109100E+03  0.41800000000E+01 0.  1.
</event>
<event>
11    1  0.8479398E-009  0.1365247E+03  0.7561462E-02  0.1111502E+00
         22   -1    0    0    0    0  0.00000000000E+00  0.00000000000E+00  0.22795459440E+04  0.22795459440E+04  0.00000000000E+00 0. -1.
         22   -1    0    0    0    0 -0.00000000000E+00 -0.00000000000E+00 -0.10183040224E+03  0.10183040224E+03  0.00000000000E+00 0.  1.
        -24    2    1    2    0    0 -0.13657632133E+02  0.13619975337E+01 -0.42517487275E+02  0.94205363372E+02  0.82936890532E+02 0.  0.
         25    2    1    2    0    0 -0.30556870240E+02  0.31507199020E+02  0.10357945829E+03  0.16823445192E+03  0.12509076995E+03 0.  0.
         24    2    1    2    0    0  0.44214502373E+02 -0.32869196553E+02  0.21166535707E+04  0.21189365309E+04  0.81451687068E+02 0.  0.
        -13    1    5    5    0    0  0.62782748125E+02 -0.24921476110E+02  0.10939089907E+04  0.10959925334E+04  0.00000000000E+00 0.  1.
         14    1    5    5    0    0 -0.18568245751E+02 -0.79477204432E+01  0.10227445800E+04  0.10229439975E+04  0.00000000000E+00 0. -1.
         13    1    3    3    0    0 -0.24111215769E+02  0.25840442136E+02  0.87772341392E+01  0.36415917052E+02  0.00000000000E+00 0. -1.
        -14    1    3    3    0    0  0.10453583636E+02 -0.24478444602E+02 -0.51294721414E+02  0.57789446320E+02  0.00000000000E+00 0.  1.
          5    1    4    4  501    0  0.30729605186E+02  0.46365923268E+02  0.12153060689E+02  0.57090075841E+02  0.41800000000E+01 0. -1.
         -5    1    4    4    0  501 -0.61286475427E+02 -0.14858724248E+02  0.91426397601E+02  0.11114437608E+03  0.41800000000E+01 0. -1.
</event>
<event>
11    1  0.8479398E-009  0.1271414E+03  0.7561462E-02  0.1122832E+00
         22   -1    0    0    0    0  0.00000000000E+00  0.00000000000E+00  0.32032733331E+03  0.32032733331E+03  0.00000000000E+00 0.  1.
         22   -1    0    0    0    0 -0.00000000000E+00 -0.00000000000E+00 -0.13890956386E+04  0.13890956386E+04  0.00000000000E+00 0. -1.
        -24    2    1    2    0    0  0.96580075113E+01  0.12398950429E+02 -0.11211500935E+04  0.11239693212E+04  0.77990331377E+02 0.  0.
         25    2    1    2    0    0  0.46237067943E+01  0.57219966272E+01 -0.24584255027E+03  0.27593572068E+03  0.12509133668E+03 0.  0.
         24    2    1    2    0    0 -0.14281714306E+02 -0.18120947057E+02  0.29822433849E+03  0.30951793002E+03  0.79569195368E+02 0.  0.
        -13    1    5    5    0    0  0.21366046798E+02  0.22641345250E+01  0.22110829088E+03  0.22214974805E+03  0.00000000000E+00 0.  1.
         14    1    5    5    0    0 -0.35647761103E+02 -0.20385081582E+02  0.77116047607E+02  0.87368181973E+02  0.00000000000E+00 0. -1.
         11    1    3    3    0    0  0.37400196820E+02  0.21458123996E+02 -0.41895597435E+03  0.42116900913E+03  0.00000000000E+00 0. -1.
        -12    1    3    3    0    0 -0.27742189309E+02 -0.90591735669E+01 -0.70219411912E+03  0.70280031205E+03  0.00000000000E+00 0.  1.
          5    1    4    4  501    0  0.37705667863E+01  0.39942108633E+02 -0.23690075893E+03  0.24031028109E+03  0.41800000000E+01 0.  1.
         -5    1    4    4    0  501  0.85314000806E+00 -0.34220112006E+02 -0.89417913462E+01  0.35625439591E+02  0.41800000000E+01 0.  1.
</event>
<event>
11    1  0.8479398E-009  0.1269456E+03  0.7561462E-02  0.1123080E+00
         22   -1    0    0    0    0  0.00000000000E+00  0.00000000000E+00  0.56103762971E+03  0.56103762971E+03  0.00000000000E+00 0. -1.
         22   -1    0    0    0    0 -0.00000000000E+00 -0.00000000000E+00 -0.22365804573E+03  0.22365804573E+03  0.00000000000E+00 0.  1.
        -24    2    1    2    0    0  0.95942453547E+01 -0.17841638999E+02 -0.15373908328E+03  0.18062749152E+03  0.92629430187E+02 0.  0.
         25    2    1    2    0    0  0.31374138213E+02  0.43526601683E+02  0.38147104074E+02  0.14135859714E+03  0.12509256506E+03 0.  0.
         24    2    1    2    0    0 -0.40968383567E+02 -0.25684962684E+02  0.45297156319E+03  0.46270958679E+03  0.81109795252E+02 0.  0.
        -11    1    5    5    0    0  0.12232826805E+02 -0.21476846254E+02  0.45693324854E+02  0.51949753733E+02  0.00000000000E+00 0.  1.
         12    1    5    5    0    0 -0.53201210372E+02 -0.42081164300E+01  0.40727823833E+03  0.41075983305E+03  0.00000000000E+00 0. -1.
         13    1    3    3    0    0  0.16885635194E+01  0.33843812395E+02 -0.10027527386E+03  0.10584604589E+03  0.00000000000E+00 0. -1.
        -14    1    3    3    0    0  0.79056818353E+01 -0.51685451394E+02 -0.53463809424E+02  0.74781445622E+02  0.00000000000E+00 0.  1.
          5    1    4    4  501    0  0.18972440401E+02  0.87608713858E+02  0.20101877618E+02  0.91960851031E+02  0.41800000000E+01 0. -1.
         -5    1    4    4    0  501  0.12401697812E+02 -0.44082112175E+02  0.18045226457E+02  0.49397746105E+02  0.41800000000E+01 0. -1.
</event>
<event>
11    1  0.8479398E-009  0.1331376E+03  0.7561462E-02  0.1115473E+00
         22   -1    0    0    0    0  0.00000000000E+00  0.00000000000E+00  0.74413299923E+03  0.74413299923E+03  0.00000000000E+00 0. -1.
         22   -1    0    0    0    0 -0.00000000000E+00 -0.00000000000E+00 -0.15187269408E+03  0.15187269408E+03  0.00000000000E+00 0. -1.
        -24    2    1    2    0    0  0.36832044956E+02  0.25111421165E+02 -0.10767855774E+03  0.14127412514E+03  0.79853137883E+02 0.  0.
         25    2    1    2    0    0 -0.64817448283E+02 -0.68736420747E+01  0.18696117540E+03  0.23420239105E+03  0.12509088820E+03 0.  0.
         24    2    1    2    0    0  0.27985403327E+02 -0.18237779091E+02  0.51297768750E+03  0.52052917712E+03  0.81784576639E+02 0.  0.
        -13    1    5    5    0    0  0.39141199733E+02 -0.10057890840E+02  0.10797083886E+03  0.11528615150E+03  0.00000000000E+00 0.  1.
         14    1    5    5    0    0 -0.11155796406E+02 -0.81798882505E+01  0.40500684864E+03  0.40524302562E+03  0.00000000000E+00 0. -1.
         11    1    3    3    0    0  0.52274286331E+02 -0.51073569466E+00 -0.95703476922E+02  0.10905052663E+03  0.00000000000E+00 0. -1.
        -12    1    3    3    0    0 -0.15442241375E+02  0.25622156860E+02 -0.11975080814E+02  0.32223598516E+02  0.00000000000E+00 0.  1.
          5    1    4    4  501    0 -0.10117699011E+03  0.78002554768E+01  0.13157932941E+03  0.16621738670E+03  0.41800000000E+01 0.  1.
         -5    1    4    4    0  501  0.36359541828E+02 -0.14673897551E+02  0.55381845982E+02  0.67985004344E+02  0.41800000000E+01 0.  1.
</event>
<event>
11    1  0.8479398E-009  0.1988345E+03  0.7561462E-02  0.1055351E+00
         22   -1    0    0    0    0  0.00000000000E+00  0.00000000000E+00  0.32749856984E+03  0.32749856984E+03  0.00000000000E+00 0. -1.
         22   -1    0    0    0    0 -0.00000000000E+00 -0.00000000000E+00 -0.68087227906E+03  0.68087227906E+03  0.00000000000E+00 0.  1.
        -24    2    1    2    0    0  0.68102227032E+02  0.13506518399E+03 -0.51515585266E+03  0.54290578471E+03  0.80502306120E+02 0.  0.
         25    2    1    2    0    0 -0.62508051916E+02 -0.16267740468E+03 -0.64170712080E+02  0.22390874307E+03  0.12508417320E+03 0.  0.
         24    2    1    2    0    0 -0.55941751157E+01  0.27612220684E+02  0.22595285552E+03  0.24155632112E+03  0.80628988762E+02 0.  0.
        -11    1    5    5    0    0  0.53865634692E+01 -0.27188572209E+02  0.53197237598E+02  0.59984828189E+02  0.00000000000E+00 0.  1.
         12    1    5    5    0    0 -0.10980738585E+02  0.54800792893E+02  0.17275561793E+03  0.18157149294E+03  0.00000000000E+00 0. -1.
         13    1    3    3    0    0  0.27330658544E+02  0.21135321916E+02 -0.41309686535E+02  0.53853105115E+02  0.00000000000E+00 0. -1.
        -14    1    3    3    0    0  0.40771568488E+02  0.11392986208E+03 -0.47384616612E+03  0.48905267960E+03  0.00000000000E+00 0.  1.
          5    1    4    4  501    0  0.68345037685E+01 -0.20649406684E+02 -0.61945392042E+02  0.65786111250E+02  0.41800000000E+01 0.  1.
         -5    1    4    4    0  501 -0.69342555685E+02 -0.14202799799E+03 -0.22253200382E+01  0.15812263181E+03  0.41800000000E+01 0.  1.
</event>
<event>
11    1  0.8479398E-009  0.2448864E+03  0.7561462E-02  0.1026659E+00
         22   -1    0    0    0    0  0.00000000000E+00  0.00000000000E+00  0.14518070600E+04  0.14518070600E+04  0.00000000000E+00 0.  1.
         22   -1    0    0    0    0 -0.00000000000E+00 -0.00000000000E+00 -0.16546109388E+04  0.16546109388E+04  0.00000000000E+00 0.  1.
        -24    2    1    2    0    0 -0.19638208536E+03  0.99314013688E+02 -0.15501603698E+04  0.15677478181E+04  0.80042814561E+02 0.  0.
         25    2    1    2    0    0  0.12367958727E+03 -0.17285157744E+02 -0.72436886398E+01  0.17690250742E+03  0.12508640662E+03 0.  0.
         24    2    1    2    0    0  0.72702498082E+02 -0.82028855944E+02  0.13546001797E+04  0.13617676733E+04  0.86343284100E+02 0.  0.
        -13    1    5    5    0    0 -0.90248749480E+01 -0.43158438170E+02  0.62937866603E+03  0.63092123471E+03  0.00000000000E+00 0.  1.
         14    1    5    5    0    0  0.81727373030E+02 -0.38870417774E+02  0.72522151368E+03  0.73084643858E+03  0.00000000000E+00 0. -1.
         13    1    3    3    0    0 -0.11298370580E+03  0.39609756013E+02 -0.58316579929E+03  0.59532898468E+03  0.00000000000E+00 0. -1.
        -14    1    3    3    0    0 -0.83398379558E+02  0.59704257675E+02 -0.96699457055E+03  0.97241883341E+03  0.00000000000E+00 0.  1.
          5    1    4    4  501    0  0.64382961264E+02  0.32726718785E+02  0.43215992473E+02  0.84269200951E+02  0.41800000000E+01 0. -1.
         -5    1    4    4    0  501  0.59296626009E+02 -0.50011876529E+02 -0.50459681113E+02  0.92633306473E+02  0.41800000000E+01 0. -1.
</event>
<event>
11    1  0.8479398E-009  0.1371345E+03  0.7561462E-02  0.1110801E+00
         22   -1    0    0    0    0  0.00000000000E+00  0.00000000000E+00  0.28089687824E+03  0.28089687824E+03  0.00000000000E+00 0.  1.
         22   -1    0    0    0    0 -0.00000000000E+00 -0.00000000000E+00 -0.82288990222E+03  0.82288990222E+03  0.00000000000E+00 0. -1.
         24    2    1    2    0    0  0.41612407992E+02  0.43428804223E+02 -0.71759821751E+03  0.72469873833E+03  0.81384310701E+02 0.  0.
         25    2    1    2    0    0 -0.33890329536E+01 -0.86186964557E+01 -0.49261558274E+02  0.13476174882E+03  0.12509300679E+03 0.  0.
        -24    2    1    2    0    0 -0.38223375039E+02 -0.34810107767E+02  0.22486675181E+03  0.24432629332E+03  0.80358643185E+02 0.  0.
        -11    1    3    3    0    0  0.79268498180E+01 -0.21146725843E+02 -0.86032295787E+02  0.88947034128E+02  0.00000000000E+00 0.  1.
         12    1    3    3    0    0  0.33685558174E+02  0.64575530066E+02 -0.63156592172E+03  0.63575170420E+03  0.00000000000E+00 0. -1.
         11    1    5    5    0    0  0.72921256024E+01 -0.15306044811E+02  0.32733161362E+01  0.17267446311E+02  0.00000000000E+00 0. -1.
        -12    1    5    5    0    0 -0.45515500641E+02 -0.19504062956E+02  0.22159343567E+03  0.22705884701E+03  0.00000000000E+00 0.  1.
          5    1    4    4  501    0 -0.30814381162E+02  0.27855376737E+02 -0.72287168166E+02  0.83476674473E+02  0.41800000000E+01 0.  1.
         -5    1    4    4    0  501  0.27425348208E+02 -0.36474073192E+02  0.23025609893E+02  0.51285074345E+02  0.41800000000E+01 0.  1.
</event>
<event>
11    1  0.8479398E-009  0.1893289E+03  0.7561462E-02  0.1062337E+00
         22   -1    0    0    0    0  0.00000000000E+00  0.00000000000E+00  0.20684149830E+04  0.20684149830E+04  0.00000000000E+00 0.  1.
         22   -1    0    0    0    0 -0.00000000000E+00 -0.00000000000E+00 -0.18997060283E+03  0.18997060283E+03  0.00000000000E+00 0.  1.
         24    2    1    2    0    0  0.10931786671E+03 -0.91740655551E+02 -0.11403252589E+03  0.19920012874E+03  0.79438847332E+02 0.  0.
         25    2    1    2    0    0 -0.12193840751E+03  0.69365107364E+02  0.24096291300E+03  0.30560072829E+03  0.12509271099E+03 0.  0.
        -24    2    1    2    0    0  0.12620540796E+02  0.22375548187E+02  0.17515139931E+04  0.17535847288E+04  0.81229243198E+02 0.  0.
        -11    1    3    3    0    0  0.71197783235E+02 -0.32320390890E+02 -0.10047317253E+03  0.12731296243E+03  0.00000000000E+00 0.  1.
         12    1    3    3    0    0  0.38120083476E+02 -0.59420264661E+02 -0.13559353367E+02  0.71887166312E+02  0.00000000000E+00 0. -1.
         11    1    5    5    0    0 -0.14663614137E+02 -0.25887172686E+02  0.60622679559E+03  0.60695641934E+03  0.00000000000E+00 0. -1.
        -12    1    5    5    0    0  0.27284154933E+02  0.48262720873E+02  0.11452871975E+04  0.11466283094E+04  0.00000000000E+00 0.  1.
          5    1    4    4  501    0 -0.64413960208E+02 -0.29823150307E+02  0.70593533187E+02  0.10019729483E+03  0.41800000000E+01 0. -1.
         -5    1    4    4    0  501 -0.57524447300E+02  0.99188257671E+02  0.17036937981E+03  0.20540343345E+03  0.41800000000E+01 0. -1.
</event>
<event>
11    1  0.8479398E-009  0.1367274E+03  0.7561462E-02  0.1111269E+00
         22   -1    0    0    0    0  0.00000000000E+00  0.00000000000E+00  0.46723983103E+03  0.46723983103E+03  0.00000000000E+00 0.  1.
         22   -1    0    0    0    0 -0.00000000000E+00 -0.00000000000E+00 -0.62538898511E+03  0.62538898511E+03  0.00000000000E+00 0. -1.
        -24    2    1    2    0    0 -0.53650596345E+02  0.18273131421E+02 -0.50360693789E+03  0.51309906569E+03  0.80239700231E+02 0.  0.
         25    2    1    2    0    0  0.51444221082E+02  0.25453501354E+02 -0.69846570747E+02  0.15433983241E+03  0.12509137384E+03 0.  0.
         24    2    1    2    0    0  0.22063752631E+01 -0.43726632776E+02  0.41530435456E+03  0.42518991804E+03  0.79949189965E+02 0.  0.
        -13    1    5    5    0    0  0.22802809264E+02 -0.38871349764E+02  0.38818192829E+03  0.39078914954E+03  0.00000000000E+00 0.  1.
         14    1    5    5    0    0 -0.20596434001E+02 -0.48552830119E+01  0.27122426272E+02  0.34400768502E+02  0.00000000000E+00 0. -1.
         11    1    3    3    0    0 -0.63664868913E+02 -0.11920880268E+02 -0.29068385881E+03  0.29781274098E+03  0.00000000000E+00 0. -1.
        -12    1    3    3    0    0  0.10014272569E+02  0.30194011689E+02 -0.21292307909E+03  0.21528632470E+03  0.00000000000E+00 0.  1.
          5    1    4    4  501    0 -0.17767024715E+02 -0.26173823303E+02  0.13138514533E+02  0.34508392568E+02  0.41800000000E+01 0. -1.
         -5    1    4    4    0  501  0.69211245796E+02  0.51627324657E+02 -0.82985085280E+02  0.11983143984E+03  0.41800000000E+01 0. -1.
</event>
<event>
11    1  0.8479398E-009  0.1446303E+03  0.7561462E-02  0.1102495E+00
         22   -1    0    0    0    0  0.00000000000E+00  0.00000000000E+00  0.11105086751E+03  0.11105086751E+03  0.00000000000E+00 0.  1.
         22   -1    0    0    0    0 -0.00000000000E+00 -0.00000000000E+00 -0.26069860490E+04  0.26069860490E+04  0.00000000000E+00 0. -1.
        -24    2    1    2    0    0 -0.51450691845E+02 -0.38966957412E+02 -0.23456678369E+04  0.23479233756E+04  0.80131012960E+02 0.  0.
         25    2    1    2    0    0  0.96015227017E+02 -0.17408393358E+02 -0.19606752147E+03  0.25221339836E+03  0.12508856606E+03 0.  0.
         24    2    1    2    0    0 -0.44564535172E+02  0.56375350770E+02  0.45800176850E+02  0.11790014256E+03  0.81477662257E+02 0.  0.
        -13    1    5    5    0    0 -0.63775297554E+02  0.23037252816E+02  0.40703147659E+02  0.79086976329E+02  0.00000000000E+00 0.  1.
         14    1    5    5    0    0  0.19210762382E+02  0.33338097953E+02  0.50970291909E+01  0.38813166233E+02  0.00000000000E+00 0. -1.
         13    1    3    3    0    0 -0.60130954836E+02 -0.51228376274E+02 -0.14655834559E+04  0.14677107837E+04  0.00000000000E+00 0. -1.
        -14    1    3    3    0    0  0.86802629909E+01  0.12261418862E+02 -0.88008438095E+03  0.88021259191E+03  0.00000000000E+00 0.  1.
          5    1    4    4  501    0  0.89094921343E+02  0.17287005659E+02 -0.53873645930E+02  0.10562474947E+03  0.41800000000E+01 0. -1.
         -5    1    4    4    0  501  0.69203056739E+01 -0.34695399017E+02 -0.14219387554E+03  0.14658864890E+03  0.41800000000E+01 0. -1.
</event>
<event>
11    1  0.8479398E-009  0.1580976E+03  0.7561462E-02  0.1088880E+00
         22   -1    0    0    0    0  0.00000000000E+00  0.00000000000E+00  0.39092940538E+03  0.39092940538E+03  0.00000000000E+00 0. -1.
         22   -1    0    0    0    0 -0.00000000000E+00 -0.00000000000E+00 -0.12521242945E+04  0.12521242945E+04  0.00000000000E+00 0. -1.
        -24    2    1    2    0    0 -0.56777479386E+02  0.78424462612E+02 -0.11995085671E+04  0.12051389732E+04  0.64537305338E+02 0.  0.
         25    2    1    2    0    0  0.65041895999E+02 -0.63767447909E+02  0.95816012986E+02  0.18200309641E+03  0.12509069953E+03 0.  0.
         24    2    1    2    0    0 -0.82644166126E+01 -0.14657014702E+02  0.24249766494E+03  0.25591163028E+03  0.80015725656E+02 0.  0.
        -11    1    5    5    0    0  0.21843670639E+02 -0.16822376232E+01  0.16189506512E+02  0.27241071776E+02  0.00000000000E+00 0.  1.
         12    1    5    5    0    0 -0.30108087251E+02 -0.12974777079E+02  0.22630815843E+03  0.22867055851E+03  0.00000000000E+00 0. -1.
         13    1    3    3    0    0 -0.47457083900E+01  0.24621150179E+02 -0.65853073639E+03  0.65900793133E+03  0.00000000000E+00 0. -1.
        -14    1    3    3    0    0 -0.52031770996E+02  0.53803312432E+02 -0.54097783070E+03  0.54613104191E+03  0.00000000000E+00 0.  1.
          5    1    4    4  501    0 -0.29447161851E+02  0.10439254874E+02  0.35594289596E+02  0.47545128407E+02  0.41800000000E+01 0.  1.
         -5    1    4    4    0  501  0.94489057849E+02 -0.74206702784E+02  0.60221723390E+02  0.13445796800E+03  0.41800000000E+01 0.  1.
</event>
<event>
11    1  0.8479398E-009  0.2305445E+03  0.7561462E-02  0.1034806E+00
         22   -1    0    0    0    0  0.00000000000E+00  0.00000000000E+00  0.10616443120E+04  0.10616443120E+04  0.00000000000E+00 0. -1.
         22   -1    0    0    0    0 -0.00000000000E+00 -0.00000000000E+00 -0.18890391880E+03  0.18890391880E+03  0.00000000000E+00 0. -1.
         24    2    1    2    0    0  0.51887184109E+02  0.12523368492E+02 -0.10141500971E+03  0.13983298005E+03  0.80119557430E+02 0.  0.
         25    2    1    2    0    0  0.13773046920E+03 -0.85595271139E+02  0.14368096172E+03  0.25017594641E+03  0.12509017873E+03 0.  0.
        -24    2    1    2    0    0 -0.18961765331E+03  0.73071902648E+02  0.83047444116E+03  0.86053930430E+03  0.97702299969E+02 0.  0.
        -11    1    3    3    0    0  0.54884843363E+02  0.35167076133E+02 -0.45674774407E+02  0.79594310675E+02  0.00000000000E+00 0.  1.
         12    1    3    3    0    0 -0.29976592543E+01 -0.22643707641E+02 -0.55740235303E+02  0.60238669378E+02  0.00000000000E+00 0. -1.
         13    1    5    5    0    0 -0.76269629972E+02  0.35208324967E+02  0.53916906258E+03  0.54567385922E+03  0.00000000000E+00 0. -1.
        -14    1    5    5    0    0 -0.11334802333E+03  0.37863577680E+02  0.29130537858E+03  0.31486544507E+03  0.00000000000E+00 0.  1.
          5    1    4    4  501    0 -0.12850490021E+01 -0.63428490219E+02  0.51929094686E+02  0.82090973909E+02  0.41800000000E+01 0. -1.
         -5    1    4    4    0  501  0.13901551820E+03 -0.22166780920E+02  0.91751867030E+02  0.16808497250E+03  0.41800000000E+01 0. -1.
</event>
<event>
11    1  0.8479398E-009  0.1634235E+03  0.7561462E-02  0.1083901E+00
         22   -1    0    0    0    0  0.00000000000E+00  0.00000000000E+00  0.14021797340E+03  0.14021797340E+03  0.00000000000E+00 0.  1.
         22   -1    0    0    0    0 -0.00000000000E+00 -0.00000000000E+00 -0.58693534910E+03  0.58693534910E+03  0.00000000000E+00 0.  1.
         24    2    1    2    0    0 -0.95766870776E+02  0.69817130832E+02 -0.37143122479E+03  0.39821331174E+03  0.81036791631E+02 0.  0.
         25    2    1    2    0    0  0.42030234878E+02  0.65260193580E+02 -0.66148613788E+02  0.16135622973E+03  0.12503903494E+03 0.  0.
        -24    2    1    2    0    0  0.53736635897E+02 -0.13507732441E+03 -0.91375371224E+01  0.16758378103E+03  0.82869291485E+02 0.  0.
        -11    1    3    3    0    0 -0.25373972277E+02  0.19751105717E+02 -0.23182001624E+03  0.23403945090E+03  0.00000000000E+00 0.  1.
         12    1    3    3    0    0 -0.70392898499E+02  0.50066025115E+02 -0.13961120855E+03  0.16417386084E+03  0.00000000000E+00 0. -1.
         11    1    5    5    0    0  0.55176463653E+02 -0.38064012595E+02 -0.20003551673E+02  0.69953222053E+02  0.00000000000E+00 0. -1.
        -12    1    5    5    0    0 -0.14398277558E+01 -0.97013311816E+02  0.10866014550E+02  0.97630558975E+02  0.00000000000E+00 0.  1.
          5    1    4    4  501    0  0.82281475469E+02  0.47871411263E+02 -0.19616530832E+02  0.97284088645E+02  0.41800000000E+01 0.  1.
         -5    1    4    4    0  501 -0.40251240591E+02  0.17388782317E+02 -0.46532082957E+02  0.64072141090E+02  0.41800000000E+01 0.  1.
</event>
<event>
11    1  0.8479398E-009  0.1823114E+03  0.7561462E-02  0.1067788E+00
         22   -1    0    0    0    0  0.00000000000E+00  0.00000000000E+00  0.21338402647E+03  0.21338402647E+03  0.00000000000E+00 0.  1.
         22   -1    0    0    0    0 -0.00000000000E+00 -0.00000000000E+00 -0.21361293177E+04  0.21361293177E+04  0.00000000000E+00 0. -1.
        -24    2    1    2    0    0 -0.13535460852E+03  0.14116508126E+02 -0.19668357851E+04  0.19735047205E+04  0.88077978538E+02 0.  0.
         25    2    1    2    0    0  0.90667549075E+02 -0.16334166077E+02 -0.11438990071E+03  0.19292344571E+03  0.12508795739E+03 0.  0.
         24    2    1    2    0    0  0.44687059449E+02  0.22176579516E+01  0.15848039459E+03  0.18308517799E+03  0.80014346477E+02 0.  0.
        -13    1    5    5    0    0 -0.20774378919E+00 -0.23228428309E+02  0.10949908477E+03  0.11193593081E+03  0.00000000000E+00 0.  1.
         14    1    5    5    0    0  0.44894803238E+02  0.25446086261E+02  0.48981309816E+02  0.71149247185E+02  0.00000000000E+00 0. -1.
         13    1    3    3    0    0 -0.14580367013E+03  0.63386325422E+01 -0.16635625494E+04  0.16699518689E+04  0.00000000000E+00 0. -1.
        -14    1    3    3    0    0  0.10449061604E+02  0.77778755834E+01 -0.30327323567E+03  0.30355285159E+03  0.00000000000E+00 0.  1.
          5    1    4    4  501    0  0.94258847253E+02  0.29807432093E+01 -0.13461778212E+03  0.16441725815E+03  0.41800000000E+01 0.  1.
         -5    1    4    4    0  501 -0.35912981779E+01 -0.19314909287E+02  0.20227881403E+02  0.28506187564E+02  0.41800000000E+01 0.  1.
</event>
<event>
11    1  0.8479398E-009  0.1952678E+03  0.7561462E-02  0.1057921E+00
         22   -1    0    0    0    0  0.00000000000E+00  0.00000000000E+00  0.65683506682E+03  0.65683506682E+03  0.00000000000E+00 0. -1.
         22   -1    0    0    0    0 -0.00000000000E+00 -0.00000000000E+00 -0.69228190830E+03  0.69228190830E+03  0.00000000000E+00 0. -1.
         24    2    1    2    0    0  0.14647560672E+03 -0.45290215752E+02 -0.62953522929E+03  0.65296675369E+03  0.80899131684E+02 0.  0.
         25    2    1    2    0    0 -0.97437210534E+02  0.48275257057E+02  0.10092357471E+03  0.19405540902E+03  0.12508966143E+03 0.  0.
        -24    2    1    2    0    0 -0.49038396184E+02 -0.29850413053E+01  0.49316481310E+03  0.50209481241E+03  0.80461127250E+02 0.  0.
        -13    1    3    3    0    0  0.35588170517E+02 -0.21237001050E+02 -0.64609943737E+02  0.76759187880E+02  0.00000000000E+00 0.  1.
         14    1    3    3    0    0  0.11088743620E+03 -0.24053214702E+02 -0.56492528555E+03  0.57620756581E+03  0.00000000000E+00 0. -1.
         11    1    5    5    0    0 -0.66450814959E+02 -0.76149528471E+01  0.45501047830E+03  0.45990024318E+03  0.00000000000E+00 0. -1.
        -12    1    5    5    0    0  0.17412418775E+02  0.46299115419E+01  0.38154334803E+02  0.42194569233E+02  0.00000000000E+00 0.  1.
          5    1    4    4  501    0 -0.12773158410E+03  0.36591840093E+02  0.78642568938E+02  0.15445532165E+03  0.41800000000E+01 0.  1.
         -5    1    4    4    0  501  0.30294373561E+02  0.11683416965E+02  0.22281005769E+02  0.39600087368E+02  0.41800000000E+01 0.  1.
</event>
<event>
11    1  0.8479398E-009  0.1390994E+03  0.7561462E-02  0.1108568E+00
         22   -1    0    0    0    0  0.00000000000E+00  0.00000000000E+00  0.86067357135E+03  0.86067357135E+03  0.00000000000E+00 0.  1.
         22   -1    0    0    0    0 -0.00000000000E+00 -0.00000000000E+00 -0.81459132240E+02  0.81459132240E+02  0.00000000000E+00 0. -1.
         24    2    1    2    0    0 -0.33817559123E+02 -0.53847963504E+00 -0.31735117858E+02  0.93786817972E+02  0.81516453888E+02 0.  0.
         25    2    1    2    0    0 -0.15875263518E+02  0.46931455294E+02  0.33879915036E+03  0.36453729080E+03  0.12509191265E+03 0.  0.
        -24    2    1    2    0    0  0.49692822640E+02 -0.46392975659E+02  0.47215040661E+03  0.48380859482E+03  0.80765494787E+02 0.  0.
        -11    1    3    3    0    0 -0.41894478745E+02  0.33183023989E+02 -0.16701892686E+02  0.55992978575E+02  0.00000000000E+00 0.  1.
         12    1    3    3    0    0  0.80769196228E+01 -0.33721503624E+02 -0.15033225172E+02  0.37793839397E+02  0.00000000000E+00 0. -1.
         11    1    5    5    0    0 -0.17841570539E+02 -0.22297861915E+02  0.21356203268E+03  0.21546289260E+03  0.00000000000E+00 0. -1.
        -12    1    5    5    0    0  0.67534393180E+02 -0.24095113744E+02  0.25858837393E+03  0.26834570222E+03  0.00000000000E+00 0.  1.
          5    1    4    4  501    0 -0.61541973499E+02 -0.53428512142E+01  0.19881791659E+03  0.20823543627E+03  0.41800000000E+01 0.  1.
         -5    1    4    4    0  501  0.45666709982E+02  0.52274306508E+02  0.13998123377E+03  0.15630185453E+03  0.41800000000E+01 0.  1.
</event>
<event>
11    1  0.8479398E-009  0.1472387E+03  0.7561462E-02  0.1099734E+00
         22   -1    0    0    0    0  0.00000000000E+00  0.00000000000E+00  0.54585465003E+03  0.54585465003E+03  0.00000000000E+00 0.  1.
         22   -1    0    0    0    0 -0.00000000000E+00 -0.00000000000E+00 -0.27421752084E+03  0.27421752084E+03  0.00000000000E+00 0. -1.
         24    2    1    2    0    0  0.29073557500E+02  0.71499248563E+02 -0.20878346741E+03  0.23621838945E+03  0.79064384897E+02 0.  0.
         25    2    1    2    0    0 -0.38822659584E+02 -0.72158942108E+02  0.69044954921E+02  0.16471989037E+03  0.12510525433E+03 0.  0.
        -24    2    1    2    0    0  0.97491020835E+01  0.65969354539E+00  0.41137564168E+03  0.41913389104E+03  0.79673206673E+02 0.  0.
        -13    1    3    3    0    0 -0.76406794481E+01  0.39938312047E+02 -0.16819492774E+03  0.17304040705E+03  0.00000000000E+00 0.  1.
         14    1    3    3    0    0  0.36714236948E+02  0.31560936515E+02 -0.40588539670E+02  0.63177982406E+02  0.00000000000E+00 0. -1.
         13    1    5    5    0    0 -0.15613702112E+02 -0.21068643899E+02  0.52277066266E+02  0.58485614528E+02  0.00000000000E+00 0. -1.
        -14    1    5    5    0    0  0.25362804196E+02  0.21728337444E+02  0.35909857541E+03  0.36064827651E+03  0.00000000000E+00 0.  1.
          5    1    4    4  501    0 -0.44719001552E+02 -0.82296273893E+02  0.96518100880E+02  0.13455735578E+03  0.41800000000E+01 0.  1.
         -5    1    4    4    0  501  0.58963419682E+01  0.10137331785E+02 -0.27473145959E+02  0.30162534595E+02  0.41800000000E+01 0.  1.
</event>
<event>
11    1  0.8479398E-009  0.1455125E+03  0.7561462E-02  0.1101554E+00
         22   -1    0    0    0    0  0.00000000000E+00  0.00000000000E+00  0.39762057305E+03  0.39762057305E+03  0.00000000000E+00 0.  1.
         22   -1    0    0    0    0 -0.00000000000E+00 -0.00000000000E+00 -0.20994255464E+04  0.20994255464E+04  0.00000000000E+00 0. -1.
        -24    2    1    2    0    0  0.10610478413E+02  0.50141482903E+02 -0.14617263991E+04  0.14647535134E+04  0.78943263084E+02 0.  0.
         25    2    1    2    0    0 -0.72113376863E+02 -0.91107009509E+02 -0.61689224990E+03  0.64008131073E+03  0.12508880863E+03 0.  0.
         24    2    1    2    0    0  0.61502898450E+02  0.40965526606E+02  0.37681367563E+03  0.39221129530E+03  0.79877237859E+02 0.  0.
        -11    1    5    5    0    0  0.56084975554E+02  0.72624314512E+01  0.11469989961E+03  0.12788406611E+03  0.00000000000E+00 0.  1.
         12    1    5    5    0    0  0.54179228962E+01  0.33703095155E+02  0.26211377602E+03  0.26432722919E+03  0.00000000000E+00 0. -1.
         11    1    3    3    0    0  0.12485858379E+02  0.61385712508E+02 -0.14231511045E+04  0.14245291042E+04  0.00000000000E+00 0. -1.
        -12    1    3    3    0    0 -0.18753799659E+01 -0.11244229605E+02 -0.38575294585E+02  0.40224409277E+02  0.00000000000E+00 0.  1.
          5    1    4    4  501    0  0.23489203448E+02 -0.48549449785E+02 -0.11122144655E+03  0.12367891625E+03  0.41800000000E+01 0.  1.
         -5    1    4    4    0  501 -0.95602580311E+02 -0.42557559724E+02 -0.50567080336E+03  0.51640239448E+03  0.41800000000E+01 0.  1.
</event>
<event>
11    1  0.8479398E-009  0.1502458E+03  0.7561462E-02  0.1096628E+00
         22   -1    0    0    0    0  0.00000000000E+00  0.00000000000E+00  0.13420007085E+04  0.13420007085E+04  0.00000000000E+00 0.  1.
         22   -1    0    0    0    0 -0.00000000000E+00 -0.00000000000E+00 -0.18130460461E+03  0.18130460461E+03  0.00000000000E+00 0.  1.
         24    2    1    2    0    0  0.26733165548E+02  0.77867924786E+02 -0.13511817906E+03  0.17752562984E+03  0.80500627861E+02 0.  0.
         25    2    1    2    0    0 -0.69052990572E+02 -0.76408907179E+02  0.26345938589E+03  0.30929655517E+03  0.12508746711E+03 0.  0.
        -24    2    1    2    0    0  0.42319825024E+02 -0.14590176072E+01  0.10323548970E+04  0.10364831281E+04  0.82143441699E+02 0.  0.
        -13    1    3    3    0    0  0.42341807609E+02  0.87214702620E+02 -0.11418635914E+03  0.14979238177E+03  0.00000000000E+00 0.  1.
         14    1    3    3    0    0 -0.15608642060E+02 -0.93467778340E+01 -0.20931819923E+02  0.27733248063E+02  0.00000000000E+00 0. -1.
         13    1    5    5    0    0  0.54738160393E+01  0.37335580650E+02  0.34797991433E+03  0.35001989804E+03  0.00000000000E+00 0. -1.
        -14    1    5    5    0    0  0.36846008985E+02 -0.38794598257E+02  0.68437498271E+03  0.68646323004E+03  0.00000000000E+00 0.  1.
          5    1    4    4  501    0 -0.15751389766E+02  0.34791037170E+02  0.69688910014E+02  0.79577252565E+02  0.41800000000E+01 0.  1.
         -5    1    4    4    0  501 -0.53301600806E+02 -0.11119994435E+03  0.19377047587E+03  0.22971930261E+03  0.41800000000E+01 0.  1.
</event>
<event>
11    1  0.8479398E-009  0.2156474E+03  0.7561462E-02  0.1043979E+00
         22   -1    0    0    0    0  0.00000000000E+00  0.00000000000E+00  0.43038193839E+03  0.43038193839E+03  0.00000000000E+00 0.  1.
         22   -1    0    0    0    0 -0.00000000000E+00 -0.00000000000E+00 -0.19709203747E+04  0.19709203747E+04  0.00000000000E+00 0. -1.
        -24    2    1    2    0    0 -0.33566780755E+02  0.16298780460E+03 -0.12171817774E+04  0.12315249623E+04  0.86200350128E+02 0.  0.
         25    2    1    2    0    0  0.75452503551E+02 -0.18795938386E+03 -0.72190878152E+03  0.76014579019E+03  0.12509006047E+03 0.  0.
         24    2    1    2    0    0 -0.41885722796E+02  0.24971579260E+02  0.39855212257E+03  0.40963156062E+03  0.81093942467E+02 0.  0.
        -11    1    5    5    0    0 -0.20021307422E+02  0.69729910930E+01  0.36546641729E+03  0.36608083468E+03  0.00000000000E+00 0.  1.
         12    1    5    5    0    0 -0.21864415374E+02  0.17998588167E+02  0.33085705283E+02  0.43550725938E+02  0.00000000000E+00 0. -1.
         13    1    3    3    0    0 -0.41292742342E+02  0.15417825765E+03 -0.12009253509E+04  0.12114857507E+04  0.00000000000E+00 0. -1.
        -14    1    3    3    0    0  0.77259615873E+01  0.88095469471E+01 -0.16256426485E+02  0.20039211609E+02  0.00000000000E+00 0.  1.
          5    1    4    4  501    0  0.98295307812E+02 -0.10947482241E+03 -0.55591379789E+03  0.57506897618E+03  0.41800000000E+01 0.  1.
         -5    1    4    4    0  501 -0.22842804260E+02 -0.78484561454E+02 -0.16599498363E+03  0.18507681401E+03  0.41800000000E+01 0.  1.
</event>
<event>
11    1  0.8479398E-009  0.1344865E+03  0.7561462E-02  0.1113876E+00
         22   -1    0    0    0    0  0.00000000000E+00  0.00000000000E+00  0.12964044322E+03  0.12964044322E+03  0.00000000000E+00 0.  1.
         22   -1    0    0    0    0 -0.00000000000E+00 -0.00000000000E+00 -0.20980026757E+04  0.20980026757E+04  0.00000000000E+00 0. -1.
        -24    2    1    2    0    0 -0.49560188995E+02 -0.11234381622E+02 -0.19430321951E+04  0.19453862434E+04  0.81062328674E+02 0.  0.
         25    2    1    2    0    0  0.15785542020E+02  0.21001755662E+01 -0.10480207973E+03  0.16393747339E+03  0.12505368923E+03 0.  0.
         24    2    1    2    0    0  0.33774646975E+02  0.91342060555E+01  0.79472042379E+02  0.11831940211E+03  0.80371107350E+02 0.  0.
        -13    1    5    5    0    0  0.11248085299E+02 -0.63851245552E+01  0.88556003581E+02  0.89495558598E+02  0.00000000000E+00 0.  1.
         14    1    5    5    0    0  0.22526561675E+02  0.15519330611E+02 -0.90839612029E+01  0.28823843509E+02  0.00000000000E+00 0. -1.
         11    1    3    3    0    0 -0.46699136580E+02  0.12870578766E+01 -0.18975568465E+04  0.18981318320E+04  0.00000000000E+00 0. -1.
        -12    1    3    3    0    0 -0.28610524146E+01 -0.12521439498E+02 -0.45475348643E+02  0.47254411458E+02  0.00000000000E+00 0.  1.
          5    1    4    4  501    0 -0.22959763891E+02 -0.51770540928E+02 -0.65549183115E+02  0.86726624936E+02  0.41800000000E+01 0.  1.
         -5    1    4    4    0  501  0.38745305911E+02  0.53870716494E+02 -0.39252896617E+02  0.77210848451E+02  0.41800000000E+01 0.  1.
</event>
<event>
11    1  0.8479398E-009  0.1651601E+03  0.7561462E-02  0.1082322E+00
         22   -1    0    0    0    0  0.00000000000E+00  0.00000000000E+00  0.43216256372E+02  0.43216256372E+02  0.00000000000E+00 0. -1.
         22   -1    0    0    0    0 -0.00000000000E+00 -0.00000000000E+00 -0.14039704956E+04  0.14039704956E+04  0.00000000000E+00 0. -1.
         24    2    1    2    0    0 -0.12265552930E+01  0.11406015171E+02 -0.52744461059E+03  0.53363036411E+03  0.80199417981E+02 0.  0.
         25    2    1    2    0    0 -0.98843923825E+02 -0.50191084206E+02 -0.71588003781E+03  0.73513327577E+03  0.12508972142E+03 0.  0.
        -24    2    1    2    0    0  0.10007047912E+03  0.38785069035E+02 -0.11742959081E+03  0.17842311207E+03  0.80788091638E+02 0.  0.
        -13    1    3    3    0    0 -0.17134055980E+02 -0.30034057151E+02 -0.17339712377E+03  0.17681115065E+03  0.00000000000E+00 0.  1.
         14    1    3    3    0    0  0.15907500687E+02  0.41440072322E+02 -0.35404748681E+03  0.35681921346E+03  0.00000000000E+00 0. -1.
         13    1    5    5    0    0  0.38743046416E+02  0.45841505250E+02 -0.20346571746E+02  0.63375470262E+02  0.00000000000E+00 0. -1.
        -14    1    5    5    0    0  0.61327432702E+02 -0.70564362147E+01 -0.97083019068E+02  0.11504764181E+03  0.00000000000E+00 0.  1.
          5    1    4    4  501    0 -0.14012411344E+02  0.30393139146E+02 -0.59512353898E+02  0.68405286677E+02  0.41800000000E+01 0. -1.
         -5    1    4    4    0  501 -0.84831512481E+02 -0.80584223353E+02 -0.65636768391E+03  0.66672798910E+03  0.41800000000E+01 0. -1.
</event>
<event>
11    1  0.8479398E-009  0.1311484E+03  0.7561462E-02  0.1117866E+00
         22   -1    0    0    0    0  0.00000000000E+00  0.00000000000E+00  0.36489012134E+03  0.36489012134E+03  0.00000000000E+00 0.  1.
         22   -1    0    0    0    0 -0.00000000000E+00 -0.00000000000E+00 -0.22548910562E+03  0.22548910562E+03  0.00000000000E+00 0.  1.
        -24    2    1    2    0    0  0.30622797301E+01  0.34401623697E+02 -0.12049337387E+03  0.15015412996E+03  0.82672609297E+02 0.  0.
         25    2    1    2    0    0  0.36506783866E+02 -0.29611276516E+02 -0.29642708157E+02  0.13688060633E+03  0.12509211517E+03 0.  0.
         24    2    1    2    0    0 -0.39569063596E+02 -0.47903471808E+01  0.28953709774E+03  0.30334449067E+03  0.81224939704E+02 0.  0.
        -11    1    5    5    0    0 -0.42609696190E+02  0.72011347254E+01  0.28759316020E+03  0.29082171230E+03  0.00000000000E+00 0.  1.
         12    1    5    5    0    0  0.30406325941E+01 -0.11991481906E+02  0.19439375401E+01  0.12522778367E+02  0.00000000000E+00 0. -1.
         13    1    3    3    0    0 -0.31344639083E+01  0.48056941715E+02 -0.26493060750E+02  0.54965232456E+02  0.00000000000E+00 0. -1.
        -14    1    3    3    0    0  0.61967436384E+01 -0.13655318019E+02 -0.94000313117E+02  0.95188897504E+02  0.00000000000E+00 0.  1.
          5    1    4    4  501    0  0.38362831332E+02 -0.20203221553E+02 -0.76954008029E+02  0.88426629138E+02  0.41800000000E+01 0. -1.
         -5    1    4    4    0  501 -0.18560474655E+01 -0.94080549629E+01  0.47311299872E+02  0.48453977194E+02  0.41800000000E+01 0. -1.
</event>
<event>
11    1  0.8479398E-009  0.1976208E+03  0.7561462E-02  0.1056219E+00
         22   -1    0    0    0    0  0.00000000000E+00  0.00000000000E+00  0.80017978651E+03  0.80017978651E+03  0.00000000000E+00 0.  1.
         22   -1    0    0    0    0 -0.00000000000E+00 -0.00000000000E+00 -0.65631043028E+03  0.65631043028E+03  0.00000000000E+00 0. -1.
        -24    2    1    2    0    0  0.67865924464E+02  0.65235529637E+02 -0.57082333540E+03  0.58408857867E+03  0.80366220903E+02 0.  0.
         25    2    1    2    0    0 -0.19790836401E+02 -0.20356711250E+03  0.14808434318E+03  0.28179568324E+03  0.12509431603E+03 0.  0.
         24    2    1    2    0    0 -0.48075088063E+02  0.13833158286E+03  0.56660834846E+03  0.59060595487E+03  0.79520641860E+02 0.  0.
        -11    1    5    5    0    0  0.21196883112E+02  0.33414724755E+02  0.17015256008E+03  0.17469328947E+03  0.00000000000E+00 0.  1.
         12    1    5    5    0    0 -0.69271971175E+02  0.10491685811E+03  0.39645578838E+03  0.41591266541E+03  0.00000000000E+00 0. -1.
         13    1    3    3    0    0  0.38374950086E+02  0.72079287899E+02 -0.50596806268E+03  0.51251511294E+03  0.00000000000E+00 0. -1.
        -14    1    3    3    0    0  0.29490974378E+02 -0.68437582618E+01 -0.64855272723E+02  0.71573465732E+02  0.00000000000E+00 0.  1.
          5    1    4    4  501    0  0.47127801360E+02 -0.37255568632E+02  0.42420239886E+02  0.73661090185E+02  0.41800000000E+01 0. -1.
         -5    1    4    4    0  501 -0.66918637762E+02 -0.16631154387E+03  0.10566410329E+03  0.20813459306E+03  0.41800000000E+01 0. -1.
</event>
<event>
11    1  0.8479398E-009  0.2743229E+03  0.7561462E-02  0.1011685E+00
         22   -1    0    0    0    0  0.00000000000E+00  0.00000000000E+00  0.70914376229E+03  0.70914376229E+03  0.00000000000E+00 0.  1.
         22   -1    0    0    0    0 -0.00000000000E+00 -0.00000000000E+00 -0.98736824422E+03  0.98736824422E+03  0.00000000000E+00 0. -1.
         24    2    1    2    0    0 -0.21279930839E+02  0.21189081045E+02 -0.30128095221E+03  0.31116776936E+03  0.71786878433E+02 0.  0.
         25    2    1    2    0    0  0.21239533298E+03  0.13052870226E+03 -0.62711194336E+03  0.68634270462E+03  0.12508956428E+03 0.  0.
        -24    2    1    2    0    0 -0.19111540215E+03 -0.15171778331E+03  0.65016841364E+03  0.69900153252E+03  0.79629100578E+02 0.  0.
        -11    1    3    3    0    0 -0.16640922830E+01 -0.16773126899E+02 -0.20665296232E+03  0.20733922403E+03  0.00000000000E+00 0.  1.
         12    1    3    3    0    0 -0.19615838556E+02  0.37962207943E+02 -0.94627989890E+02  0.10382854533E+03  0.00000000000E+00 0. -1.
         11    1    5    5    0    0 -0.38105655533E+02 -0.73635154327E+02  0.17268178310E+03  0.19155462706E+03  0.00000000000E+00 0. -1.
        -12    1    5    5    0    0 -0.15300974661E+03 -0.78082628978E+02  0.47748663055E+03  0.50744690546E+03  0.00000000000E+00 0.  1.
          5    1    4    4  501    0  0.12736192970E+03  0.19434301980E+02 -0.39279799676E+03  0.41340838392E+03  0.41800000000E+01 0.  1.
         -5    1    4    4    0  501  0.85033403284E+02  0.11109440028E+03 -0.23431394660E+03  0.27293432071E+03  0.41800000000E+01 0.  1.
</event>
<event>
11    1  0.1284274E-008  0.1594120E+03  0.7561462E-02  0.1087632E+00
         22   -1    0    0    0    0  0.00000000000E+00  0.00000000000E+00  0.12925583159E+03  0.12925583159E+03  0.00000000000E+00 0. -1.
         22   -1    0    0    0    0 -0.00000000000E+00 -0.00000000000E+00 -0.13966971738E+04  0.13966971738E+04  0.00000000000E+00 0. -1.
         24    2    1    2    0    0 -0.41308686574E+01  0.41295476464E+01 -0.10975784841E+04  0.11001701374E+04  0.75244169987E+02 0.  0.
         25    2    1    2    0    0  0.10143574909E+03 -0.17327711850E+02 -0.23272964411E+03  0.28354901462E+03  0.12508995025E+03 0.  0.
        -24    2    1    2    0    0 -0.97304880430E+02  0.13198164204E+02  0.62866786067E+02  0.14223385336E+03  0.81460450264E+02 0.  0.
        -11    1    3    3    0    0  0.12063110953E+02  0.11480863272E+02 -0.55612296600E+02  0.58052186871E+02  0.00000000000E+00 0.  1.
         12    1    3    3    0    0 -0.16193979611E+02 -0.73513156253E+01 -0.10419661875E+04  0.10421179505E+04  0.00000000000E+00 0. -1.
         13    1    5    5    0    0 -0.92274031748E+02  0.16566410042E+02  0.80513555577E+02  0.12357740695E+03  0.00000000000E+00 0. -1.
        -14    1    5    5    0    0 -0.50308486816E+01 -0.33682458382E+01 -0.17646769510E+02  0.18656446410E+02  0.00000000000E+00 0.  1.
          5    1    4    4  501    0  0.12433166615E+03 -0.53381911114E+01 -0.22339607741E+03  0.25575406017E+03  0.41800000000E+01 0.  1.
         -5    1    4    4    0  501 -0.22895917062E+02 -0.11989520739E+02 -0.93335667052E+01  0.27794954454E+02  0.41800000000E+01 0.  1.
</event>
<event>
11    1  0.8479398E-009  0.1808312E+03  0.7561462E-02  0.1068972E+00
         22   -1    0    0    0    0  0.00000000000E+00  0.00000000000E+00  0.95069393317E+03  0.95069393317E+03  0.00000000000E+00 0. -1.
         22   -1    0    0    0    0 -0.00000000000E+00 -0.00000000000E+00 -0.14615368766E+03  0.14615368766E+03  0.00000000000E+00 0. -1.
         24    2    1    2    0    0  0.65265925292E+02 -0.24006516215E+02 -0.70004243436E+02  0.12822645711E+03  0.81886973194E+02 0.  0.
         25    2    1    2    0    0  0.76929724418E+02  0.12633019956E+02  0.10257870742E+03  0.17959998051E+03  0.12512388297E+03 0.  0.
        -24    2    1    2    0    0 -0.14219564971E+03  0.11373496260E+02  0.77196578152E+03  0.78902118321E+03  0.79210482268E+02 0.  0.
        -11    1    3    3    0    0  0.31124765835E+02 -0.12289279249E+01  0.14442658512E+02  0.34334409811E+02  0.00000000000E+00 0.  1.
         12    1    3    3    0    0  0.34141159457E+02 -0.22777588291E+02 -0.84446901948E+02  0.93892047299E+02  0.00000000000E+00 0. -1.
         13    1    5    5    0    0 -0.57992332005E+02  0.83172312203E+01  0.52110847060E+03  0.52439138536E+03  0.00000000000E+00 0. -1.
        -14    1    5    5    0    0 -0.84203317705E+02  0.30562650394E+01  0.25085731091E+03  0.26462979784E+03  0.00000000000E+00 0.  1.
          5    1    4    4  501    0  0.53916612733E+02  0.96190783355E+01  0.13136557552E+03  0.14238649736E+03  0.41800000000E+01 0. -1.
         -5    1    4    4    0  501  0.23013111685E+02  0.30139416202E+01 -0.28786868100E+02  0.37213483155E+02  0.41800000000E+01 0. -1.
</event>
<event>
11    1  0.8479398E-009  0.1253491E+03  0.7561462E-02  0.1125119E+00
         22   -1    0    0    0    0  0.00000000000E+00  0.00000000000E+00  0.11088864060E+03  0.11088864060E+03  0.00000000000E+00 0. -1.
         22   -1    0    0    0    0 -0.00000000000E+00 -0.00000000000E+00 -0.47522146656E+03  0.47522146656E+03  0.00000000000E+00 0.  1.
        -24    2    1    2    0    0  0.45171313504E+01 -0.16026303536E+02 -0.27803169126E+03  0.28540200204E+03  0.62252988225E+02 0.  0.
         25    2    1    2    0    0 -0.89562668291E+01  0.80939919611E+01 -0.15244848370E+03  0.19757018348E+03  0.12509080620E+03 0.  0.
         24    2    1    2    0    0  0.44391354787E+01  0.79323115750E+01  0.66147349008E+02  0.10313792164E+03  0.78608724765E+02 0.  0.
        -11    1    5    5    0    0 -0.31425209181E+02 -0.60760988293E+00  0.51289844016E+01  0.31846812129E+02  0.00000000000E+00 0.  1.
         12    1    5    5    0    0  0.35864344659E+02  0.85399214579E+01  0.61018364606E+02  0.71291109513E+02  0.00000000000E+00 0. -1.
         11    1    3    3    0    0  0.16482912336E+02 -0.15799496853E+02 -0.33287853754E+02  0.40365724414E+02  0.00000000000E+00 0. -1.
        -12    1    3    3    0    0 -0.11965780985E+02 -0.22680668274E+00 -0.24474383751E+03  0.24503627763E+03  0.00000000000E+00 0.  1.
          5    1    4    4  501    0  0.43792451476E+02  0.27506149741E+02 -0.23729097080E+02  0.57051814415E+02  0.41800000000E+01 0.  1.
         -5    1    4    4    0  501 -0.52748718305E+02 -0.19412157780E+02 -0.12871938662E+03  0.14051836906E+03  0.41800000000E+01 0.  1.
</event>
<event>
11    1  0.9244190E-009  0.1595611E+03  0.7561462E-02  0.1087491E+00
         22   -1    0    0    0    0  0.00000000000E+00  0.00000000000E+00  0.44221996749E+03  0.44221996749E+03  0.00000000000E+00 0.  1.
         22   -1    0    0    0    0 -0.00000000000E+00 -0.00000000000E+00 -0.23743278889E+04  0.23743278889E+04  0.00000000000E+00 0.  1.
        -24    2    1    2    0    0  0.43463443121E+02 -0.38688186169E+02 -0.16292173668E+04  0.16321605345E+04  0.78822176356E+02 0.  0.
         25    2    1    2    0    0 -0.11544628006E+03  0.10565871243E+03 -0.72061836731E+03  0.74795132389E+03  0.12509494198E+03 0.  0.
         24    2    1    2    0    0  0.71982836937E+02 -0.66970526262E+02  0.41772781266E+03  0.43643599804E+03  0.79456118194E+02 0.  0.
        -11    1    5    5    0    0  0.65452886675E+02 -0.82913900912E+02  0.38752670044E+03  0.40166620332E+03  0.00000000000E+00 0.  1.
         12    1    5    5    0    0  0.65299502624E+01  0.15943374650E+02  0.30201112221E+02  0.34769794722E+02  0.00000000000E+00 0. -1.
         11    1    3    3    0    0  0.55687274078E+02 -0.32638469505E+02 -0.73222498882E+03  0.73506447094E+03  0.00000000000E+00 0. -1.
        -12    1    3    3    0    0 -0.12223830957E+02 -0.60497166645E+01 -0.89699237794E+03  0.89709606353E+03  0.00000000000E+00 0.  1.
          5    1    4    4  501    0 -0.10773084600E+03  0.93223297226E+02 -0.36254580362E+03  0.38955545234E+03  0.41800000000E+01 0.  1.
         -5    1    4    4    0  501 -0.77154340572E+01  0.12435415206E+02 -0.35807256370E+03  0.35839587155E+03  0.41800000000E+01 0.  1.
</event>
<event>
11    1  0.8479398E-009  0.1298886E+03  0.7561462E-02  0.1119406E+00
         22   -1    0    0    0    0  0.00000000000E+00  0.00000000000E+00  0.28987783937E+03  0.28987783937E+03  0.00000000000E+00 0. -1.
         22   -1    0    0    0    0 -0.00000000000E+00 -0.00000000000E+00 -0.10351541052E+04  0.10351541052E+04  0.00000000000E+00 0. -1.
        -24    2    1    2    0    0  0.12588406061E+02  0.55904814391E+02 -0.98832438670E+03  0.99321293284E+03  0.80018875047E+02 0.  0.
         25    2    1    2    0    0  0.16416352288E+01  0.16621732153E+01  0.12758293718E+03  0.17868780834E+03  0.12508584734E+03 0.  0.
         24    2    1    2    0    0 -0.14230041290E+02 -0.57566987607E+02  0.11546518368E+03  0.15313120340E+03  0.81243490048E+02 0.  0.
        -13    1    5    5    0    0 -0.28739040525E+02 -0.67744790714E+02  0.60142303022E+02  0.95038864324E+02  0.00000000000E+00 0.  1.
         14    1    5    5    0    0  0.14508999235E+02  0.10177803108E+02  0.55322880661E+02  0.58092339077E+02  0.00000000000E+00 0. -1.
         11    1    3    3    0    0  0.43635367051E+02  0.36204652083E+02 -0.74151769409E+03  0.74368226599E+03  0.00000000000E+00 0. -1.
        -12    1    3    3    0    0 -0.31046960991E+02  0.19700162308E+02 -0.24680669261E+03  0.24953066685E+03  0.00000000000E+00 0.  1.
          5    1    4    4  501    0 -0.57261604589E+02  0.53687010422E+01  0.95028183107E+02  0.11115548702E+03  0.41800000000E+01 0. -1.
         -5    1    4    4    0  501  0.58903239818E+02 -0.37065278268E+01  0.32554754069E+02  0.67532321314E+02  0.41800000000E+01 0. -1.
</event>
<event>
11    1  0.8479398E-009  0.2799076E+03  0.7561462E-02  0.1009073E+00
         22   -1    0    0    0    0  0.00000000000E+00  0.00000000000E+00  0.54459809346E+03  0.54459809346E+03  0.00000000000E+00 0. -1.
         22   -1    0    0    0    0 -0.00000000000E+00 -0.00000000000E+00 -0.49476932903E+03  0.49476932903E+03  0.00000000000E+00 0.  1.
        -24    2    1    2    0    0 -0.22361899063E+03  0.11480606400E+03 -0.33830771419E+03  0.42907861555E+03  0.80439191568E+02 0.  0.
         25    2    1    2    0    0  0.18265299089E+03 -0.17850631891E+03  0.99206825501E+02  0.30119422847E+03  0.12509735435E+03 0.  0.
         24    2    1    2    0    0  0.40965999734E+02  0.63700254907E+02  0.28892965313E+03  0.30909457847E+03  0.79518415307E+02 0.  0.
        -11    1    5    5    0    0  0.22854807896E+02  0.26884511931E+02  0.28238382538E+02  0.45194307983E+02  0.00000000000E+00 0.  1.
         12    1    5    5    0    0  0.18111191838E+02  0.36815742976E+02  0.26069127059E+03  0.26390027048E+03  0.00000000000E+00 0. -1.
         13    1    3    3    0    0 -0.50465148620E+02  0.52586366878E+02 -0.55172568944E+02  0.91411539591E+02  0.00000000000E+00 0. -1.
        -14    1    3    3    0    0 -0.17315384201E+03  0.62219697126E+02 -0.28313514525E+03  0.33766707596E+03  0.00000000000E+00 0.  1.
          5    1    4    4  501    0  0.16553610615E+03 -0.16510670175E+03  0.39026257413E+02  0.23707160642E+03  0.41800000000E+01 0.  1.
         -5    1    4    4    0  501  0.17116884742E+02 -0.13399617160E+02  0.60180568087E+02  0.64122622051E+02  0.41800000000E+01 0.  1.
</event>
<event>
11    1  0.8479398E-009  0.3811291E+03  0.7561462E-02  0.9707139E-01
         22   -1    0    0    0    0  0.00000000000E+00  0.00000000000E+00  0.45235049131E+03  0.45235049131E+03  0.00000000000E+00 0.  1.
         22   -1    0    0    0    0 -0.00000000000E+00 -0.00000000000E+00 -0.34251513031E+03  0.34251513031E+03  0.00000000000E+00 0.  1.
        -24    2    1    2    0    0 -0.18933531844E+03 -0.84103737472E+02 -0.12909905714E+03  0.25725977937E+03  0.81207918705E+02 0.  0.
         25    2    1    2    0    0 -0.80862854903E+02 -0.21666442071E+01 -0.13139511385E+02  0.14954630109E+03  0.12509178134E+03 0.  0.
         24    2    1    2    0    0  0.27019817334E+03  0.86270381680E+02  0.25207392953E+03  0.38805954117E+03  0.81236136746E+02 0.  0.
        -11    1    5    5    0    0  0.27284664450E+03  0.82843106410E+02  0.25523925500E+03  0.38269485100E+03  0.00000000000E+00 0.  1.
         12    1    5    5    0    0 -0.26484711568E+01  0.34272752692E+01 -0.31653254702E+01  0.53646901655E+01  0.00000000000E+00 0. -1.
         11    1    3    3    0    0 -0.11639204482E+03 -0.89208444645E+02 -0.66573768739E+02  0.16105067953E+03  0.00000000000E+00 0. -1.
        -12    1    3    3    0    0 -0.72943273616E+02  0.51047071727E+01 -0.62525288402E+02  0.96209099834E+02  0.00000000000E+00 0.  1.
          5    1    4    4  501    0 -0.36253952211E+02 -0.42981273747E+02  0.39846405877E+02  0.69043083688E+02  0.41800000000E+01 0.  1.
         -5    1    4    4    0  501 -0.44608902692E+02  0.40814629540E+02 -0.52985917262E+02  0.80503217401E+02  0.41800000000E+01 0.  1.
</event>
<event>
11    1  0.8479398E-009  0.1401064E+03  0.7561462E-02  0.1107440E+00
         22   -1    0    0    0    0  0.00000000000E+00  0.00000000000E+00  0.68213517124E+03  0.68213517124E+03  0.00000000000E+00 0.  1.
         22   -1    0    0    0    0 -0.00000000000E+00 -0.00000000000E+00 -0.33508492657E+03  0.33508492657E+03  0.00000000000E+00 0.  1.
        -24    2    1    2    0    0  0.58182229504E+02 -0.18306063026E+02 -0.25749010113E+03  0.27649079245E+03  0.80160603515E+02 0.  0.
         25    2    1    2    0    0 -0.84389919425E+02  0.64885780823E+01  0.23301496652E+02  0.15281873070E+03  0.12508734772E+03 0.  0.
         24    2    1    2    0    0  0.26207689920E+02  0.11817484944E+02  0.58123884915E+03  0.58791057467E+03  0.83508970060E+02 0.  0.
        -11    1    5    5    0    0  0.42191734036E+02  0.32839956847E+02  0.49054076598E+03  0.49344589194E+03  0.00000000000E+00 0.  1.
         12    1    5    5    0    0 -0.15984044115E+02 -0.21022471902E+02  0.90698083170E+02  0.94464682723E+02  0.00000000000E+00 0. -1.
         11    1    3    3    0    0  0.27779152013E+02  0.27432589070E+02 -0.15899539250E+03  0.16371854833E+03  0.00000000000E+00 0. -1.
        -12    1    3    3    0    0  0.30403077491E+02 -0.45738652096E+02 -0.98494708622E+02  0.11277224412E+03  0.00000000000E+00 0.  1.
          5    1    4    4  501    0 -0.32696640934E+02  0.63559279528E+02 -0.20960402614E+01  0.71629031316E+02  0.41800000000E+01 0. -1.
         -5    1    4    4    0  501 -0.51693278490E+02 -0.57070701446E+02  0.25397536913E+02  0.81189699383E+02  0.41800000000E+01 0. -1.
</event>
<event>
11    1  0.8479398E-009  0.1737331E+03  0.7561462E-02  0.1074828E+00
         22   -1    0    0    0    0  0.00000000000E+00  0.00000000000E+00  0.23226598675E+04  0.23226598675E+04  0.00000000000E+00 0. -1.
         22   -1    0    0    0    0 -0.00000000000E+00 -0.00000000000E+00 -0.92918006811E+02  0.92918006811E+02  0.00000000000E+00 0.  1.
        -24    2    1    2    0    0 -0.31863284429E+02 -0.18355475347E+02 -0.52964437776E+02  0.10306083121E+03  0.80399694601E+02 0.  0.
         25    2    1    2    0    0  0.14529988164E+03  0.13737237711E+02  0.78661616854E+03  0.80976153915E+03  0.12509191172E+03 0.  0.
         24    2    1    2    0    0 -0.11343659721E+03  0.46182376356E+01  0.14960901299E+04  0.15027555040E+04  0.84256976392E+02 0.  0.
        -11    1    5    5    0    0 -0.50737868619E+02 -0.38122928872E+02  0.80983619872E+03  0.81231912311E+03  0.00000000000E+00 0.  1.
         12    1    5    5    0    0 -0.62698728593E+02  0.42741166507E+02  0.68625393122E+03  0.69043638084E+03  0.00000000000E+00 0. -1.
         13    1    3    3    0    0 -0.63685275513E+01  0.31708956241E+01  0.20863303148E+02  0.22042915879E+02  0.00000000000E+00 0. -1.
        -14    1    3    3    0    0 -0.25494756878E+02 -0.21526370971E+02 -0.73827740924E+02  0.81017915335E+02  0.00000000000E+00 0.  1.
          5    1    4    4  501    0  0.15856908144E+03  0.27289241400E+02  0.75974027946E+03  0.77660261455E+03  0.41800000000E+01 0.  1.
         -5    1    4    4    0  501 -0.13269199796E+02 -0.13552003689E+02  0.26875889074E+02  0.33158924602E+02  0.41800000000E+01 0.  1.
</event>
<event>
11    1  0.8479398E-009  0.1577668E+03  0.7561462E-02  0.1089197E+00
         22   -1    0    0    0    0  0.00000000000E+00  0.00000000000E+00  0.14213660715E+04  0.14213660715E+04  0.00000000000E+00 0. -1.
         22   -1    0    0    0    0 -0.00000000000E+00 -0.00000000000E+00 -0.25580371409E+03  0.25580371409E+03  0.00000000000E+00 0. -1.
        -24    2    1    2    0    0 -0.81612611000E+02  0.49847008505E+02 -0.21024013867E+03  0.24594894592E+03  0.84525886917E+02 0.  0.
         25    2    1    2    0    0  0.12862188216E+03  0.12118039043E+02  0.30032219599E+03  0.35004948951E+03  0.12510311053E+03 0.  0.
         24    2    1    2    0    0 -0.47009271159E+02 -0.61965047548E+02  0.10754803001E+04  0.10811713502E+04  0.78892799654E+02 0.  0.
        -13    1    5    5    0    0  0.14342228407E+02 -0.21432171538E+02  0.11386491089E+03  0.11674868490E+03  0.00000000000E+00 0.  1.
         14    1    5    5    0    0 -0.61351499566E+02 -0.40532876011E+02  0.96161538920E+03  0.96442266527E+03  0.00000000000E+00 0. -1.
         13    1    3    3    0    0 -0.70279746458E+01  0.42510454185E+02 -0.12616563300E+03  0.13332028388E+03  0.00000000000E+00 0. -1.
        -14    1    3    3    0    0 -0.74584636354E+02  0.73365543198E+01 -0.84074505663E+02  0.11262866204E+03  0.00000000000E+00 0.  1.
          5    1    4    4  501    0 -0.56930941930E+01  0.48028040631E+01  0.14200462418E+03  0.14226125241E+03  0.41800000000E+01 0.  1.
         -5    1    4    4    0  501  0.13431497635E+03  0.73152349804E+01  0.15831757181E+03  0.20778823710E+03  0.41800000000E+01 0.  1.
</event>
<event>
11    1  0.8479398E-009  0.1543793E+03  0.7561462E-02  0.1092486E+00
         22   -1    0    0    0    0  0.00000000000E+00  0.00000000000E+00  0.44914130096E+03  0.44914130096E+03  0.00000000000E+00 0.  1.
         22   -1    0    0    0    0 -0.00000000000E+00 -0.00000000000E+00 -0.49686873449E+03  0.49686873449E+03  0.00000000000E+00 0.  1.
        -24    2    1    2    0    0  0.50092242259E+02  0.67533963067E+02 -0.18353109896E+03  0.21715541659E+03  0.80017134199E+02 0.  0.
         25    2    1    2    0    0 -0.58635657364E+02 -0.79434313279E+02 -0.27007651259E+03  0.31358832725E+03  0.12509342865E+03 0.  0.
         24    2    1    2    0    0  0.85434151043E+01  0.11900350212E+02  0.40588017803E+03  0.41526629161E+03  0.86560763340E+02 0.  0.
        -13    1    5    5    0    0 -0.35811722301E+02  0.20070070273E+02  0.23363590180E+03  0.23721513818E+03  0.00000000000E+00 0.  1.
         14    1    5    5    0    0  0.44355137406E+02 -0.81697200608E+01  0.17224427624E+03  0.17805115343E+03  0.00000000000E+00 0. -1.
         11    1    3    3    0    0 -0.19291348774E+02  0.31705573073E+02 -0.47192850332E+02  0.60038026482E+02  0.00000000000E+00 0. -1.
        -12    1    3    3    0    0  0.69383591033E+02  0.35828389994E+02 -0.13633824863E+03  0.15711739011E+03  0.00000000000E+00 0.  1.
          5    1    4    4  501    0 -0.17185610322E+02  0.29884814000E+02 -0.10977854002E+03  0.11514012142E+03  0.41800000000E+01 0. -1.
         -5    1    4    4    0  501 -0.41450047041E+02 -0.10931912728E+03 -0.16029797257E+03  0.19844820583E+03  0.41800000000E+01 0. -1.
</event>
<event>
11    1  0.8479398E-009  0.1765503E+03  0.7561462E-02  0.1072468E+00
         22   -1    0    0    0    0  0.00000000000E+00  0.00000000000E+00  0.29244092224E+03  0.29244092224E+03  0.00000000000E+00 0.  1.
         22   -1    0    0    0    0 -0.00000000000E+00 -0.00000000000E+00 -0.98993512237E+03  0.98993512237E+03  0.00000000000E+00 0.  1.
        -24    2    1    2    0    0  0.49507697721E+02 -0.10842230392E+03 -0.76673713317E+03  0.78021278210E+03  0.81484635746E+02 0.  0.
         25    2    1    2    0    0 -0.47620187039E+02  0.16252513018E+03 -0.15248627142E+03  0.25995193564E+03  0.12506336680E+03 0.  0.
         24    2    1    2    0    0 -0.18875106817E+01 -0.54102826262E+02  0.22172920445E+03  0.24221132687E+03  0.81066690131E+02 0.  0.
        -11    1    5    5    0    0  0.97361975864E+01 -0.57378851969E+02  0.22262026572E+03  0.23010195329E+03  0.00000000000E+00 0.  1.
         12    1    5    5    0    0 -0.11623708268E+02  0.32760257067E+01 -0.89106126683E+00  0.12109373581E+02  0.00000000000E+00 0. -1.
         13    1    3    3    0    0 -0.13417014055E+02 -0.68071653696E+02 -0.39205664787E+03  0.39814844147E+03  0.00000000000E+00 0. -1.
        -14    1    3    3    0    0  0.62924711775E+02 -0.40350650223E+02 -0.37468048530E+03  0.38206434064E+03  0.00000000000E+00 0.  1.
          5    1    4    4  501    0 -0.64760747254E+02  0.13399449360E+03 -0.58161151208E+02  0.15983951517E+03  0.41800000000E+01 0.  1.
         -5    1    4    4    0  501  0.17140560215E+02  0.28530636580E+02 -0.94325120217E+02  0.10011242047E+03  0.41800000000E+01 0.  1.
</event>
<event>
11    1  0.8479398E-009  0.1976164E+03  0.7561462E-02  0.1056222E+00
         22   -1    0    0    0    0  0.00000000000E+00  0.00000000000E+00  0.21034793015E+04  0.21034793015E+04  0.00000000000E+00 0. -1.
         22   -1    0    0    0    0 -0.00000000000E+00 -0.00000000000E+00 -0.35624364090E+03  0.35624364090E+03  0.00000000000E+00 0. -1.
         24    2    1    2    0    0 -0.10527075698E+03  0.15671334914E+02 -0.32462586776E+03  0.35090136078E+03  0.80139178694E+02 0.  0.
         25    2    1    2    0    0  0.16313702977E+03  0.10886100618E+03  0.11429809097E+04  0.11664118020E+04  0.12508686049E+03 0.  0.
        -24    2    1    2    0    0 -0.57866272795E+02 -0.12453234109E+03  0.92888061865E+03  0.94240977964E+03  0.80375242168E+02 0.  0.
        -13    1    3    3    0    0 -0.19911953716E+02 -0.24122561315E+02 -0.38103147096E+02  0.49297400376E+02  0.00000000000E+00 0.  1.
         14    1    3    3    0    0 -0.85358803261E+02  0.39793896229E+02 -0.28652272067E+03  0.30160396040E+03  0.00000000000E+00 0. -1.
         13    1    5    5    0    0 -0.69443380782E+02 -0.12245870843E+03  0.90392161171E+03  0.91481845113E+03  0.00000000000E+00 0. -1.
        -14    1    5    5    0    0  0.11577107987E+02 -0.20736326652E+01  0.24959006937E+02  0.27591328512E+02  0.00000000000E+00 0.  1.
          5    1    4    4  501    0  0.14059511334E+03  0.13690468631E+03  0.95141823803E+03  0.97145458725E+03  0.41800000000E+01 0.  1.
         -5    1    4    4    0  501  0.22541916427E+02 -0.28043680129E+02  0.19156267170E+03  0.19495721474E+03  0.41800000000E+01 0.  1.
</event>
<event>
11    1  0.8479398E-009  0.1437897E+03  0.7561462E-02  0.1103399E+00
         22   -1    0    0    0    0  0.00000000000E+00  0.00000000000E+00  0.51323900841E+03  0.51323900841E+03  0.00000000000E+00 0. -1.
         22   -1    0    0    0    0 -0.00000000000E+00 -0.00000000000E+00 -0.47594101360E+03  0.47594101360E+03  0.00000000000E+00 0. -1.
         24    2    1    2    0    0  0.66566520921E+02  0.29893742744E+02 -0.38255305647E+03  0.39777137147E+03  0.80935068963E+02 0.  0.
         25    2    1    2    0    0 -0.48000965949E+02 -0.28305326596E+02 -0.24811634623E+02  0.13917000714E+03  0.12508952565E+03 0.  0.
        -24    2    1    2    0    0 -0.18565554971E+02 -0.15884161485E+01  0.44466268590E+03  0.45223864340E+03  0.80297468583E+02 0.  0.
        -13    1    3    3    0    0 -0.75325485137E+00 -0.12736158663E+02 -0.17474690620E+03  0.17521203828E+03  0.00000000000E+00 0.  1.
         14    1    3    3    0    0  0.67319775772E+02  0.42629901407E+02 -0.20780615027E+03  0.22255933320E+03  0.00000000000E+00 0. -1.
         13    1    5    5    0    0 -0.28090498419E+02 -0.33510086396E+02  0.32837755582E+03  0.33127604978E+03  0.00000000000E+00 0. -1.
        -14    1    5    5    0    0  0.95249434471E+01  0.31921670247E+02  0.11628513008E+03  0.12096259363E+03  0.00000000000E+00 0.  1.
          5    1    4    4  501    0 -0.71821154053E+02 -0.19760043790E+02 -0.59919998520E+02  0.95690209127E+02  0.41800000000E+01 0.  1.
         -5    1    4    4    0  501  0.23820188104E+02 -0.85452828054E+01  0.35108363897E+02  0.43479798011E+02  0.41800000000E+01 0.  1.
</event>
<event>
11    1  0.8479398E-009  0.1523679E+03  0.7561462E-02  0.1094484E+00
         22   -1    0    0    0    0  0.00000000000E+00  0.00000000000E+00  0.32986558497E+04  0.32986558497E+04  0.00000000000E+00 0. -1.
         22   -1    0    0    0    0 -0.00000000000E+00 -0.00000000000E+00 -0.41143460934E+03  0.41143460934E+03  0.00000000000E+00 0.  1.
         24    2    1    2    0    0  0.56436401885E+02 -0.64569553054E+02 -0.34059484421E+03  0.35981379354E+03  0.78146167408E+02 0.  0.
         25    2    1    2    0    0 -0.41597368359E+02  0.97556885402E+02  0.50259751724E+02  0.17152535564E+03  0.12508884059E+03 0.  0.
        -24    2    1    2    0    0 -0.14839033527E+02 -0.32987332348E+02  0.31775563329E+04  0.31787513099E+04  0.79292374049E+02 0.  0.
        -11    1    3    3    0    0  0.98794237545E+01 -0.68276206812E+02 -0.21622808701E+03  0.22696658133E+03  0.00000000000E+00 0.  1.
         12    1    3    3    0    0  0.46556978131E+02  0.37066537584E+01 -0.12436675720E+03  0.13284721221E+03  0.00000000000E+00 0. -1.
         11    1    5    5    0    0  0.68324590113E+01 -0.52715617811E+02  0.24948932775E+04  0.24954594938E+04  0.00000000000E+00 0. -1.
        -12    1    5    5    0    0 -0.21671492538E+02  0.19728285463E+02  0.68266305538E+03  0.68329181615E+03  0.00000000000E+00 0.  1.
          5    1    4    4  501    0  0.32653367005E+02  0.48238285015E+02  0.57551053736E+02  0.81992503950E+02  0.41800000000E+01 0. -1.
         -5    1    4    4    0  501 -0.74250735364E+02  0.49318600387E+02 -0.72913020116E+01  0.89532851687E+02  0.41800000000E+01 0. -1.
</event>
<event>
11    1  0.8479398E-009  0.1407782E+03  0.7561462E-02  0.1106693E+00
         22   -1    0    0    0    0  0.00000000000E+00  0.00000000000E+00  0.27793082558E+03  0.27793082558E+03  0.00000000000E+00 0.  1.
         22   -1    0    0    0    0 -0.00000000000E+00 -0.00000000000E+00 -0.76701422377E+03  0.76701422377E+03  0.00000000000E+00 0. -1.
        -24    2    1    2    0    0  0.42592009258E+02  0.45929277234E+02 -0.60364219496E+03  0.61236267369E+03  0.81734734604E+02 0.  0.
         25    2    1    2    0    0 -0.64622351383E+02 -0.50302895157E+02 -0.11482810568E+03  0.18852085864E+03  0.12509272852E+03 0.  0.
         24    2    1    2    0    0  0.22030342126E+02  0.43736179227E+01  0.22938690244E+03  0.24406151702E+03  0.80269599300E+02 0.  0.
        -11    1    5    5    0    0  0.29821134337E+02 -0.29077169726E+02  0.17378857768E+03  0.17870996498E+03  0.00000000000E+00 0.  1.
         12    1    5    5    0    0 -0.77907922116E+01  0.33450787649E+02  0.55598324763E+02  0.65351552040E+02  0.00000000000E+00 0. -1.
         11    1    3    3    0    0  0.65299625324E+02  0.37120415879E+02 -0.51445439869E+03  0.51990892921E+03  0.00000000000E+00 0. -1.
        -12    1    3    3    0    0 -0.22707616066E+02  0.88088613557E+01 -0.89187796265E+02  0.92453744480E+02  0.00000000000E+00 0.  1.
          5    1    4    4  501    0  0.15841597281E+02 -0.35712182104E+02  0.87719050527E+01  0.40258351597E+02  0.41800000000E+01 0. -1.
         -5    1    4    4    0  501 -0.80463948665E+02 -0.14590713053E+02 -0.12360001073E+03  0.14826250704E+03  0.41800000000E+01 0. -1.
</event>
<event>
11    1  0.8479398E-009  0.1380621E+03  0.7561462E-02  0.1109742E+00
         22   -1    0    0    0    0  0.00000000000E+00  0.00000000000E+00  0.31629432695E+02  0.31629432695E+02  0.00000000000E+00 0. -1.
         22   -1    0    0    0    0 -0.00000000000E+00 -0.00000000000E+00 -0.18489356297E+04  0.18489356297E+04  0.00000000000E+00 0. -1.
        -24    2    1    2    0    0  0.79943916618E+01 -0.60022016195E+01 -0.12206651392E+04  0.12232463658E+04  0.78793100947E+02 0.  0.
         25    2    1    2    0    0  0.37862851800E+02 -0.33153384190E+02 -0.50030590276E+03  0.51815662666E+03  0.12509017139E+03 0.  0.
         24    2    1    2    0    0 -0.45857243462E+02  0.39155585809E+02 -0.96335155102E+02  0.13916206996E+03  0.80309233147E+02 0.  0.
        -11    1    5    5    0    0  0.16969002426E+02  0.32571636701E+02 -0.28663778258E+02  0.46588311246E+02  0.00000000000E+00 0.  1.
         12    1    5    5    0    0 -0.62826245888E+02  0.65839491086E+01 -0.67671376844E+02  0.92573758713E+02  0.00000000000E+00 0. -1.
         11    1    3    3    0    0  0.15349799500E+02 -0.37275118356E+02 -0.91719907250E+03  0.91808452192E+03  0.00000000000E+00 0. -1.
        -12    1    3    3    0    0 -0.73554078382E+01  0.31272916737E+02 -0.30346606667E+03  0.30516184388E+03  0.00000000000E+00 0.  1.
          5    1    4    4  501    0  0.46599958772E+02  0.30252480002E+02 -0.35469913081E+03  0.35904834563E+03  0.41800000000E+01 0. -1.
         -5    1    4    4    0  501 -0.87371069721E+01 -0.63405864192E+02 -0.14560677196E+03  0.15910828103E+03  0.41800000000E+01 0. -1.
</event>
<event>
11    1  0.8479398E-009  0.1420279E+03  0.7561462E-02  0.1105315E+00
         22   -1    0    0    0    0  0.00000000000E+00  0.00000000000E+00  0.39161664902E+02  0.39161664902E+02  0.00000000000E+00 0. -1.
         22   -1    0    0    0    0 -0.00000000000E+00 -0.00000000000E+00 -0.29157513315E+04  0.29157513315E+04  0.00000000000E+00 0.  1.
         24    2    1    2    0    0  0.65789079102E+02  0.11208931098E+02 -0.25319823138E+04  0.25343226816E+04  0.86041700680E+02 0.  0.
         25    2    1    2    0    0 -0.77807634768E+02  0.84319449075E+01 -0.27873548857E+03  0.31538274120E+03  0.12509066765E+03 0.  0.
        -24    2    1    2    0    0  0.12018555666E+02 -0.19640876006E+02 -0.65871864314E+02  0.10520757364E+03  0.78735769210E+02 0.  0.
        -11    1    3    3    0    0  0.27498964124E+02 -0.37370321667E+02 -0.12228114750E+04  0.12236913980E+04  0.00000000000E+00 0.  1.
         12    1    3    3    0    0  0.38290114978E+02  0.48579252765E+02 -0.13091708387E+04  0.13106312836E+04  0.00000000000E+00 0. -1.
         11    1    5    5    0    0 -0.29864313057E+02 -0.21015157942E+02 -0.15465844526E+02  0.39657362552E+02  0.00000000000E+00 0. -1.
        -12    1    5    5    0    0  0.41882868722E+02  0.13742819366E+01 -0.50406019787E+02  0.65550211091E+02  0.00000000000E+00 0.  1.
          5    1    4    4  501    0 -0.56395310542E+02 -0.36981128884E+02 -0.24644857060E+03  0.25554335307E+03  0.41800000000E+01 0.  1.
         -5    1    4    4    0  501 -0.21412324226E+02  0.45413073791E+02 -0.32286917970E+02  0.59839388131E+02  0.41800000000E+01 0.  1.
</event>
<event>
11    1  0.8479398E-009  0.1428644E+03  0.7561462E-02  0.1104401E+00
         22   -1    0    0    0    0  0.00000000000E+00  0.00000000000E+00  0.57499225597E+03  0.57499225597E+03  0.00000000000E+00 0.  1.
         22   -1    0    0    0    0 -0.00000000000E+00 -0.00000000000E+00 -0.22133946345E+04  0.22133946345E+04  0.00000000000E+00 0. -1.
        -24    2    1    2    0    0 -0.21567519417E+02 -0.65383434319E+02 -0.21829904470E+04  0.21855710899E+04  0.80830355041E+02 0.  0.
         25    2    1    2    0    0  0.43428951346E+02  0.10072591033E+03  0.31089521648E+03  0.35261327377E+03  0.12509397420E+03 0.  0.
         24    2    1    2    0    0 -0.21861431930E+02 -0.35342476016E+02  0.23369285192E+03  0.25020252680E+03  0.79132436832E+02 0.  0.
        -13    1    5    5    0    0 -0.28747509162E+02 -0.53159379595E+02  0.21553659641E+03  0.22384897434E+03  0.00000000000E+00 0.  1.
         14    1    5    5    0    0  0.68860772326E+01  0.17816903579E+02  0.18156255515E+02  0.26353552457E+02  0.00000000000E+00 0. -1.
         13    1    3    3    0    0  0.17829178775E+02 -0.63421504458E+02 -0.12272318794E+04  0.12289988823E+04  0.00000000000E+00 0. -1.
        -14    1    3    3    0    0 -0.39396698191E+02 -0.19619298610E+01 -0.95575856752E+03  0.95657220762E+03  0.00000000000E+00 0.  1.
          5    1    4    4  501    0  0.42572061795E+02  0.12091415516E+03  0.18544328401E+03  0.22547571343E+03  0.41800000000E+01 0.  1.
         -5    1    4    4    0  501  0.85688955072E+00 -0.20188244821E+02  0.12545193247E+03  0.12713756034E+03  0.41800000000E+01 0.  1.
</event>
<event>
11    1  0.8479398E-009  0.1329402E+03  0.7561462E-02  0.1115708E+00
         22   -1    0    0    0    0  0.00000000000E+00  0.00000000000E+00  0.31681516915E+03  0.31681516915E+03  0.00000000000E+00 0. -1.
         22   -1    0    0    0    0 -0.00000000000E+00 -0.00000000000E+00 -0.14676650799E+04  0.14676650799E+04  0.00000000000E+00 0. -1.
         24    2    1    2    0    0  0.43737827710E+01  0.33100014152E+02 -0.14217053395E+04  0.14244110549E+04  0.81154420002E+02 0.  0.
         25    2    1    2    0    0  0.41720391702E+02 -0.27349798273E+02  0.10912668212E+03  0.17333417726E+03  0.12508997445E+03 0.  0.
        -24    2    1    2    0    0 -0.46094174473E+02 -0.57502158786E+01  0.16172874665E+03  0.18673501692E+03  0.80969384035E+02 0.  0.
        -11    1    3    3    0    0 -0.13661318573E+02  0.54566833905E+01 -0.45688156072E+02  0.47998068961E+02  0.00000000000E+00 0.  1.
         12    1    3    3    0    0  0.18035101344E+02  0.27643330762E+02 -0.13760171834E+04  0.13764129859E+04  0.00000000000E+00 0. -1.
         11    1    5    5    0    0 -0.64119275304E+02 -0.91359280724E+01  0.15355646025E+03  0.16665633241E+03  0.00000000000E+00 0. -1.
        -12    1    5    5    0    0  0.18025100831E+02  0.33857121938E+01  0.81722863982E+01  0.20078684518E+02  0.00000000000E+00 0.  1.
          5    1    4    4  501    0 -0.80720182901E+01  0.14858459998E+02 -0.21245982112E+02  0.27473541248E+02  0.41800000000E+01 0.  1.
         -5    1    4    4    0  501  0.49792409992E+02 -0.42208258271E+02  0.13037266424E+03  0.14586063602E+03  0.41800000000E+01 0.  1.
</event>
<event>
11    1  0.8479398E-009  0.1581930E+03  0.7561462E-02  0.1088789E+00
         22   -1    0    0    0    0  0.00000000000E+00  0.00000000000E+00  0.17419600741E+03  0.17419600741E+03  0.00000000000E+00 0.  1.
         22   -1    0    0    0    0 -0.00000000000E+00 -0.00000000000E+00 -0.43178856204E+03  0.43178856204E+03  0.00000000000E+00 0.  1.
         24    2    1    2    0    0 -0.29176722018E+02  0.11443540577E+01 -0.25951704893E+03  0.27161218542E+03  0.74642413743E+02 0.  0.
         25    2    1    2    0    0 -0.43416054248E+02 -0.71907663081E+02 -0.83158626036E+02  0.17210124667E+03  0.12509123169E+03 0.  0.
        -24    2    1    2    0    0  0.72592776266E+02  0.70763309023E+02  0.85083120344E+02  0.16227113735E+03  0.93891573536E+02 0.  0.
        -11    1    3    3    0    0 -0.32800923494E+02 -0.21524395808E+02 -0.23409135505E+03  0.23735619374E+03  0.00000000000E+00 0.  1.
         12    1    3    3    0    0  0.36242014757E+01  0.22668749865E+02 -0.25425693880E+02  0.34255991682E+02  0.00000000000E+00 0. -1.
         13    1    5    5    0    0 -0.18261742809E+02  0.25378323573E+02  0.24865019945E+01  0.31364522154E+02  0.00000000000E+00 0. -1.
        -14    1    5    5    0    0  0.90854519075E+02  0.45384985450E+02  0.82596618349E+02  0.13090661520E+03  0.00000000000E+00 0.  1.
          5    1    4    4  501    0 -0.45344281691E+01  0.92718418077E+01 -0.81212845870E+02  0.81972719996E+02  0.41800000000E+01 0.  1.
         -5    1    4    4    0  501 -0.38881626079E+02 -0.81179504889E+02 -0.19457801656E+01  0.90128526677E+02  0.41800000000E+01 0.  1.
</event>
<event>
11    1  0.8479398E-009  0.1454891E+03  0.7561462E-02  0.1101579E+00
         22   -1    0    0    0    0  0.00000000000E+00  0.00000000000E+00  0.17203674325E+04  0.17203674325E+04  0.00000000000E+00 0.  1.
         22   -1    0    0    0    0 -0.00000000000E+00 -0.00000000000E+00 -0.18352604487E+03  0.18352604487E+03  0.00000000000E+00 0. -1.
        -24    2    1    2    0    0 -0.57454417494E+02 -0.15085023541E+01 -0.15651594173E+03  0.18589167563E+03  0.82189959136E+02 0.  0.
         25    2    1    2    0    0 -0.22186043323E+02  0.24734090128E+02  0.39395054897E+03  0.41466777151E+03  0.12509328506E+03 0.  0.
         24    2    1    2    0    0  0.79640460817E+02 -0.23225587774E+02  0.12994067804E+04  0.13033340302E+04  0.57789120761E+02 0.  0.
        -13    1    5    5    0    0  0.70333811738E+02  0.33007819212E+01  0.78175567746E+03  0.78492017396E+03  0.00000000000E+00 0.  1.
         14    1    5    5    0    0  0.93066490788E+01 -0.26526369695E+02  0.51765110291E+03  0.51841385624E+03  0.00000000000E+00 0. -1.
         11    1    3    3    0    0 -0.58094270908E+02 -0.22780469346E+02 -0.58304356805E+02  0.85400773524E+02  0.00000000000E+00 0. -1.
        -12    1    3    3    0    0  0.63985341391E+00  0.21271966992E+02 -0.98211584925E+02  0.10049090210E+03  0.00000000000E+00 0.  1.
          5    1    4    4  501    0  0.19472272059E+02  0.59290684137E+02  0.11927948276E+03  0.13468341402E+03  0.41800000000E+01 0.  1.
         -5    1    4    4    0  501 -0.41658315382E+02 -0.34556594009E+02  0.27467106621E+03  0.27998435749E+03  0.41800000000E+01 0.  1.
</event>
<event>
11    1  0.8479398E-009  0.1437174E+03  0.7561462E-02  0.1103477E+00
         22   -1    0    0    0    0  0.00000000000E+00  0.00000000000E+00  0.24183348163E+04  0.24183348163E+04  0.00000000000E+00 0. -1.
         22   -1    0    0    0    0 -0.00000000000E+00 -0.00000000000E+00 -0.19516228629E+03  0.19516228629E+03  0.00000000000E+00 0. -1.
        -24    2    1    2    0    0 -0.19399722539E+02 -0.59249415933E+02 -0.16485785059E+03  0.19334968245E+03  0.79493058064E+02 0.  0.
         25    2    1    2    0    0  0.75879984649E+02  0.13670570188E+02  0.35516206703E+03  0.38435882202E+03  0.12508778376E+03 0.  0.
         24    2    1    2    0    0 -0.56480262110E+02  0.45578845745E+02  0.20328683136E+04  0.20357885981E+04  0.81327638136E+02 0.  0.
        -11    1    5    5    0    0 -0.44087355267E+01  0.77811128277E+01  0.20190617110E+02  0.22082655752E+02  0.00000000000E+00 0.  1.
         12    1    5    5    0    0 -0.52071526584E+02  0.37797732918E+02  0.20126776964E+04  0.20137059423E+04  0.00000000000E+00 0. -1.
         13    1    3    3    0    0 -0.47357708800E+02 -0.52740090854E+02 -0.13111567736E+03  0.14904895375E+03  0.00000000000E+00 0. -1.
        -14    1    3    3    0    0  0.27957986262E+02 -0.65093250789E+01 -0.33742173230E+02  0.44300728697E+02  0.00000000000E+00 0.  1.
          5    1    4    4  501    0  0.49681652097E+02  0.27702608348E+02  0.34911517407E+03  0.35374366176E+03  0.41800000000E+01 0.  1.
         -5    1    4    4    0  501  0.26198332552E+02 -0.14032038161E+02  0.60468929561E+01  0.30615160262E+02  0.41800000000E+01 0.  1.
</event>
<event>
11    1  0.8479398E-009  0.1395516E+03  0.7561462E-02  0.1108060E+00
         22   -1    0    0    0    0  0.00000000000E+00  0.00000000000E+00  0.33256459959E+03  0.33256459959E+03  0.00000000000E+00 0. -1.
         22   -1    0    0    0    0 -0.00000000000E+00 -0.00000000000E+00 -0.82956807015E+03  0.82956807015E+03  0.00000000000E+00 0. -1.
        -24    2    1    2    0    0  0.21407611106E+02 -0.32043001289E+02 -0.58536368951E+03  0.59175091262E+03  0.77675310370E+02 0.  0.
         25    2    1    2    0    0 -0.48119642908E+02  0.86386691250E+02 -0.20540551289E+03  0.26003178074E+03  0.12508773645E+03 0.  0.
         24    2    1    2    0    0  0.26712031803E+02 -0.54343689961E+02  0.29376573184E+03  0.31034997639E+03  0.79699644639E+02 0.  0.
        -11    1    5    5    0    0  0.48452269731E+02 -0.25575663932E+02  0.10783606494E+03  0.12095599997E+03  0.00000000000E+00 0.  1.
         12    1    5    5    0    0 -0.21740237928E+02 -0.28768026029E+02  0.18592966690E+03  0.18939397641E+03  0.00000000000E+00 0. -1.
         13    1    3    3    0    0 -0.13494854972E+02  0.19806599915E+02 -0.18266709734E+03  0.18423268158E+03  0.00000000000E+00 0. -1.
        -14    1    3    3    0    0  0.34902466078E+02 -0.51849601204E+02 -0.40269659217E+03  0.40751823104E+03  0.00000000000E+00 0.  1.
          5    1    4    4  501    0 -0.55196558800E+02  0.11605808742E+03 -0.16892595376E+03  0.21229599622E+03  0.41800000000E+01 0. -1.
         -5    1    4    4    0  501  0.70769158918E+01 -0.29671396168E+02 -0.36479559131E+02  0.47735784517E+02  0.41800000000E+01 0. -1.
</event>
<event>
11    1  0.8479398E-009  0.2410714E+03  0.7561462E-02  0.1028766E+00
         22   -1    0    0    0    0  0.00000000000E+00  0.00000000000E+00  0.84368278679E+03  0.84368278679E+03  0.00000000000E+00 0. -1.
         22   -1    0    0    0    0 -0.00000000000E+00 -0.00000000000E+00 -0.27099450420E+04  0.27099450420E+04  0.00000000000E+00 0.  1.
         24    2    1    2    0    0  0.40655115860E+02 -0.58293470451E+02 -0.26073360027E+04  0.26095254481E+04  0.79818960714E+02 0.  0.
         25    2    1    2    0    0  0.16892599425E+03  0.87867195743E+02  0.73854646251E+02  0.23949832906E+03  0.12509318618E+03 0.  0.
        -24    2    1    2    0    0 -0.20958111011E+03 -0.29573725292E+02  0.66721910123E+03  0.70460405159E+03  0.80540011984E+02 0.  0.
        -11    1    3    3    0    0  0.31088908050E+02 -0.64484961715E+02 -0.25531888290E+04  0.25541922455E+04  0.00000000000E+00 0.  1.
         12    1    3    3    0    0  0.95662078100E+01  0.61914912639E+01 -0.54147173616E+02  0.55333202569E+02  0.00000000000E+00 0. -1.
         13    1    5    5    0    0 -0.13122831638E+03 -0.45891103088E+02  0.50395069110E+03  0.52277448620E+03  0.00000000000E+00 0. -1.
        -14    1    5    5    0    0 -0.78352793732E+02  0.16317377797E+02  0.16326841013E+03  0.18182956539E+03  0.00000000000E+00 0.  1.
          5    1    4    4  501    0  0.18042594553E+03  0.58856336636E+02  0.82296703324E+02  0.20690048323E+03  0.41800000000E+01 0. -1.
         -5    1    4    4    0  501 -0.11499951275E+02  0.29010859107E+02 -0.84420570732E+01  0.32597845835E+02  0.41800000000E+01 0. -1.
</event>
<event>
11    1  0.8479398E-009  0.2448024E+03  0.7561462E-02  0.1026705E+00
         22   -1    0    0    0    0  0.00000000000E+00  0.00000000000E+00  0.34971998453E+03  0.34971998453E+03  0.00000000000E+00 0.  1.
         22   -1    0    0    0    0 -0.00000000000E+00 -0.00000000000E+00 -0.88013509385E+03  0.88013509385E+03  0.00000000000E+00 0.  1.
         24    2    1    2    0    0 -0.85206661452E+02 -0.20710798315E+03 -0.75104974027E+03  0.78800824354E+03  0.82020654029E+02 0.  0.
         25    2    1    2    0    0 -0.30089132891E+02  0.14753380285E+03  0.29214489396E+02  0.19792053340E+03  0.12508985670E+03 0.  0.
        -24    2    1    2    0    0  0.11529579434E+03  0.59574180302E+02  0.19142014155E+03  0.24392630145E+03  0.77563952940E+02 0.  0.
        -13    1    3    3    0    0 -0.51914067579E+02 -0.85177993747E+02 -0.46012408090E+03  0.47081262818E+03  0.00000000000E+00 0.  1.
         14    1    3    3    0    0 -0.33292593873E+02 -0.12192998940E+03 -0.29092565937E+03  0.31719561535E+03  0.00000000000E+00 0. -1.
         11    1    5    5    0    0  0.48455940346E+02  0.62447799220E+02  0.71383469917E+02  0.10650495556E+03  0.00000000000E+00 0. -1.
        -12    1    5    5    0    0  0.66839853997E+02 -0.28736189189E+01  0.12003667163E+03  0.13742134589E+03  0.00000000000E+00 0.  1.
          5    1    4    4  501    0 -0.75568300360E+02  0.10792763750E+03  0.37137906218E+02  0.13695123013E+03  0.41800000000E+01 0. -1.
         -5    1    4    4    0  501  0.45479167469E+02  0.39606165345E+02 -0.79234168226E+01  0.60969303270E+02  0.41800000000E+01 0. -1.
</event>
<event>
11    1  0.8479398E-009  0.1518176E+03  0.7561462E-02  0.1095036E+00
         22   -1    0    0    0    0  0.00000000000E+00  0.00000000000E+00  0.30855106025E+03  0.30855106025E+03  0.00000000000E+00 0. -1.
         22   -1    0    0    0    0 -0.00000000000E+00 -0.00000000000E+00 -0.57692314298E+03  0.57692314298E+03  0.00000000000E+00 0.  1.
        -24    2    1    2    0    0  0.52775272581E+02 -0.11600474245E+02 -0.46092425372E+03  0.47056980334E+03  0.77877928498E+02 0.  0.
         25    2    1    2    0    0 -0.59147658728E+02 -0.74953266901E+02 -0.32519708299E+02  0.16067148348E+03  0.12506540858E+03 0.  0.
         24    2    1    2    0    0  0.63723861464E+01  0.86553741147E+02  0.22507187929E+03  0.25423291641E+03  0.80279932291E+02 0.  0.
        -13    1    5    5    0    0 -0.86017562199E+01 -0.79023850737E+01  0.24451654554E+01  0.11933848249E+02  0.00000000000E+00 0.  1.
         14    1    5    5    0    0  0.14974142366E+02  0.94456126220E+02  0.22262671383E+03  0.24229906816E+03  0.00000000000E+00 0. -1.
         11    1    3    3    0    0 -0.31874539360E+01  0.24547823386E+02 -0.76205103555E+02  0.80124735902E+02  0.00000000000E+00 0. -1.
        -12    1    3    3    0    0  0.55962726517E+02 -0.36148297631E+02 -0.38471915016E+03  0.39044506743E+03  0.00000000000E+00 0.  1.
          5    1    4    4  501    0 -0.90122228687E+02 -0.74568919710E+02 -0.21161150268E+01  0.11706617886E+03  0.41800000000E+01 0.  1.
         -5    1    4    4    0  501  0.30974569959E+02 -0.38434719097E+00 -0.30403593272E+02  0.43605304617E+02  0.41800000000E+01 0.  1.
</event>
<event>
11    1  0.8479398E-009  0.1321147E+03  0.7561462E-02  0.1116698E+00
         22   -1    0    0    0    0  0.00000000000E+00  0.00000000000E+00  0.14093724020E+04  0.14093724020E+04  0.00000000000E+00 0.  1.
         22   -1    0    0    0    0 -0.00000000000E+00 -0.00000000000E+00 -0.66917625235E+03  0.66917625235E+03  0.00000000000E+00 0. -1.
        -24    2    1    2    0    0 -0.41879697508E+02  0.70714024617E+01 -0.64092378212E+03  0.64727479908E+03  0.79858983480E+02 0.  0.
         25    2    1    2    0    0  0.38740909342E+02 -0.35352019695E+02  0.17186957474E+03  0.21894693783E+03  0.12509191625E+03 0.  0.
         24    2    1    2    0    0  0.31387881656E+01  0.28280617233E+02  0.12092503570E+04  0.12123269174E+04  0.81489161871E+02 0.  0.
        -11    1    5    5    0    0  0.78208540923E+01  0.54795722693E+02  0.96743896593E+03  0.96902109873E+03  0.00000000000E+00 0.  1.
         12    1    5    5    0    0 -0.46820659268E+01 -0.26515105460E+02  0.24181139107E+03  0.24330581869E+03  0.00000000000E+00 0. -1.
         13    1    3    3    0    0 -0.29752353370E+02  0.20306526824E+02 -0.61313495130E+03  0.61419217356E+03  0.00000000000E+00 0. -1.
        -14    1    3    3    0    0 -0.12127344138E+02 -0.13235124362E+02 -0.27788830820E+02  0.33082625516E+02  0.00000000000E+00 0.  1.
          5    1    4    4  501    0 -0.12647389204E+02 -0.54321684297E+02  0.23380633280E+02  0.60621186487E+02  0.41800000000E+01 0. -1.
         -5    1    4    4    0  501  0.51388298546E+02  0.18969664602E+02  0.14848894146E+03  0.15832575134E+03  0.41800000000E+01 0. -1.
</event>
<event>
11    1  0.8479398E-009  0.1290685E+03  0.7561462E-02  0.1120419E+00
         22   -1    0    0    0    0  0.00000000000E+00  0.00000000000E+00  0.11181456245E+04  0.11181456245E+04  0.00000000000E+00 0. -1.
         22   -1    0    0    0    0 -0.00000000000E+00 -0.00000000000E+00 -0.16652165220E+04  0.16652165220E+04  0.00000000000E+00 0. -1.
         24    2    1    2    0    0 -0.20789622460E+02  0.60408797463E+01 -0.16126876811E+04  0.16150677319E+04  0.84932449622E+02 0.  0.
         25    2    1    2    0    0 -0.23641188960E+01 -0.28535334602E+02  0.33752602285E+02  0.13266638147E+03  0.12506508798E+03 0.  0.
        -24    2    1    2    0    0  0.23153741356E+02  0.22494454856E+02  0.10318641813E+04  0.10356280332E+04  0.82095299700E+02 0.  0.
        -11    1    3    3    0    0  0.26049364067E+02  0.25541351561E+02 -0.59700472009E+03  0.59811835436E+03  0.00000000000E+00 0.  1.
         12    1    3    3    0    0 -0.46838986527E+02 -0.19500471814E+02 -0.10156829611E+04  0.10169493775E+04  0.00000000000E+00 0. -1.
         13    1    5    5    0    0  0.57323088476E+01 -0.31016324718E+02  0.32480765222E+03  0.32633553699E+03  0.00000000000E+00 0. -1.
        -14    1    5    5    0    0  0.17421432508E+02  0.53510779574E+02  0.70705652913E+03  0.70929249624E+03  0.00000000000E+00 0.  1.
          5    1    4    4  501    0  0.25801764647E+02  0.35387071738E+02 -0.15991364622E+02  0.46809956714E+02  0.41800000000E+01 0. -1.
         -5    1    4    4    0  501 -0.28165883543E+02 -0.63922406341E+02  0.49743966907E+02  0.85856424755E+02  0.41800000000E+01 0. -1.
</event>
<event>
11    1  0.8479398E-009  0.1258161E+03  0.7561462E-02  0.1124519E+00
         22   -1    0    0    0    0  0.00000000000E+00  0.00000000000E+00  0.11531045411E+04  0.11531045411E+04  0.00000000000E+00 0.  1.
         22   -1    0    0    0    0 -0.00000000000E+00 -0.00000000000E+00 -0.15563117040E+03  0.15563117040E+03  0.00000000000E+00 0. -1.
         24    2    1    2    0    0 -0.40875955315E+01 -0.14635476294E+02 -0.99828235247E+02  0.12822851191E+03  0.79031443815E+02 0.  0.
         25    2    1    2    0    0  0.66064453666E+00  0.90528387299E+00  0.58272820227E+02  0.13799994879E+03  0.12508800222E+03 0.  0.
        -24    2    1    2    0    0  0.34269509948E+01  0.13730192421E+02  0.10390287857E+04  0.10425072508E+04  0.83906425451E+02 0.  0.
        -11    1    3    3    0    0  0.27562933203E+02 -0.20409904349E+01 -0.58276862985E+01  0.28246112234E+02  0.00000000000E+00 0.  1.
         12    1    3    3    0    0 -0.31650528735E+02 -0.12594485859E+02 -0.94000548949E+02  0.99982399681E+02  0.00000000000E+00 0. -1.
         13    1    5    5    0    0 -0.19568050511E+02 -0.22580083929E+01  0.61504091453E+02  0.64581425102E+02  0.00000000000E+00 0. -1.
        -14    1    5    5    0    0  0.22995001506E+02  0.15988200814E+02  0.97752469425E+03  0.97792582568E+03  0.00000000000E+00 0.  1.
          5    1    4    4  501    0  0.30674893130E+02 -0.15402932801E+02 -0.28399241980E+02  0.44745823855E+02  0.41800000000E+01 0. -1.
         -5    1    4    4    0  501 -0.30014248594E+02  0.16308216674E+02  0.86672062207E+02  0.93254124933E+02  0.41800000000E+01 0. -1.
</event>
<event>
11    1  0.8479398E-009  0.1473479E+03  0.7561462E-02  0.1099620E+00
         22   -1    0    0    0    0  0.00000000000E+00  0.00000000000E+00  0.42167897912E+04  0.42167897912E+04  0.00000000000E+00 0. -1.
         22   -1    0    0    0    0 -0.00000000000E+00 -0.00000000000E+00 -0.27946541149E+03  0.27946541149E+03  0.00000000000E+00 0.  1.
         24    2    1    2    0    0  0.46810755664E+02  0.61469395354E+01 -0.25957282804E+03  0.27495455888E+03  0.77413982456E+02 0.  0.
         25    2    1    2    0    0  0.97099126110E+01  0.51129732791E+02  0.39325437020E+03  0.41593872785E+03  0.12508994232E+03 0.  0.
        -24    2    1    2    0    0 -0.56520668275E+02 -0.57276672326E+02  0.38036428376E+04  0.38053619160E+04  0.81272828661E+02 0.  0.
        -13    1    3    3    0    0  0.43645201825E+02  0.25217010843E+02 -0.24654091662E+03  0.25164106352E+03  0.00000000000E+00 0.  1.
         14    1    3    3    0    0  0.31655538389E+01 -0.19070071307E+02 -0.13031911415E+02  0.23313495360E+02  0.00000000000E+00 0. -1.
         13    1    5    5    0    0 -0.50440227957E+02 -0.65558449650E+02  0.37384046668E+04  0.37393196680E+04  0.00000000000E+00 0. -1.
        -14    1    5    5    0    0 -0.60804403181E+01  0.82817773240E+01  0.65238170802E+02  0.66042247991E+02  0.00000000000E+00 0.  1.
          5    1    4    4  501    0  0.48665494641E+02  0.73025151383E+02  0.29724525125E+03  0.30995679521E+03  0.41800000000E+01 0.  1.
         -5    1    4    4    0  501 -0.38955582030E+02 -0.21895418593E+02  0.96009118943E+02  0.10598193264E+03  0.41800000000E+01 0.  1.
</event>
<event>
11    1  0.8479398E-009  0.1437491E+03  0.7561462E-02  0.1103443E+00
         22   -1    0    0    0    0  0.00000000000E+00  0.00000000000E+00  0.20073340061E+03  0.20073340061E+03  0.00000000000E+00 0. -1.
         22   -1    0    0    0    0 -0.00000000000E+00 -0.00000000000E+00 -0.72252239047E+03  0.72252239047E+03  0.00000000000E+00 0. -1.
         24    2    1    2    0    0 -0.56677343677E+02  0.39706403470E+02 -0.54221937827E+03  0.55242349886E+03  0.79880837185E+02 0.  0.
         25    2    1    2    0    0 -0.12041026433E+02 -0.29987430161E+01 -0.13199275692E+03  0.18227242303E+03  0.12508864673E+03 0.  0.
        -24    2    1    2    0    0  0.68718370110E+02 -0.36707660454E+02  0.15242314534E+03  0.18855986920E+03  0.79071754201E+02 0.  0.
        -11    1    3    3    0    0 -0.37414438653E+02  0.29542030927E+02 -0.11289938150E+03  0.12255138577E+03  0.00000000000E+00 0.  1.
         12    1    3    3    0    0 -0.19262905024E+02  0.10164372543E+02 -0.42931999677E+03  0.42987211308E+03  0.00000000000E+00 0. -1.
         13    1    5    5    0    0  0.55263089852E+02 -0.42861540758E+02  0.15796969598E+03  0.17275863401E+03  0.00000000000E+00 0. -1.
        -14    1    5    5    0    0  0.13455280258E+02  0.61538803042E+01 -0.55465506435E+01  0.15801235194E+02  0.00000000000E+00 0.  1.
          5    1    4    4  501    0 -0.55000254956E+02  0.16142258993E+02 -0.20202025161E+02  0.60919576420E+02  0.41800000000E+01 0.  1.
         -5    1    4    4    0  501  0.42959228523E+02 -0.19141002009E+02 -0.11179073176E+03  0.12135284661E+03  0.41800000000E+01 0.  1.
</event>
<event>
11    1  0.8479398E-009  0.1725862E+03  0.7561462E-02  0.1075803E+00
         22   -1    0    0    0    0  0.00000000000E+00  0.00000000000E+00  0.91659713478E+03  0.91659713478E+03  0.00000000000E+00 0. -1.
         22   -1    0    0    0    0 -0.00000000000E+00 -0.00000000000E+00 -0.42245455955E+03  0.42245455955E+03  0.00000000000E+00 0.  1.
         24    2    1    2    0    0 -0.11767903303E+03  0.37797128081E+02 -0.37648998096E+03  0.40435043652E+03  0.80483489283E+02 0.  0.
         25    2    1    2    0    0  0.63101736121E+02 -0.16348027753E+01  0.14421107869E+03  0.20107128848E+03  0.12509326981E+03 0.  0.
        -24    2    1    2    0    0  0.54577296907E+02 -0.36162325306E+02  0.72642147749E+03  0.73362996932E+03  0.78983376836E+02 0.  0.
        -13    1    3    3    0    0 -0.11381585195E+03  0.45330412527E+01 -0.29706904562E+03  0.31815815954E+03  0.00000000000E+00 0.  1.
         14    1    3    3    0    0 -0.38631810759E+01  0.33264086829E+02 -0.79420935343E+02  0.86192276982E+02  0.00000000000E+00 0. -1.
         13    1    5    5    0    0  0.22488643790E+02 -0.49464745527E+02  0.60209792460E+03  0.60454479649E+03  0.00000000000E+00 0. -1.
        -14    1    5    5    0    0  0.32088653117E+02  0.13302420221E+02  0.12432355289E+03  0.12908517283E+03  0.00000000000E+00 0.  1.
          5    1    4    4  501    0  0.54162124899E+02 -0.70385971817E+01  0.16694693200E+03  0.17570380795E+03  0.41800000000E+01 0. -1.
         -5    1    4    4    0  501  0.89396112224E+01  0.54037944065E+01 -0.22735853307E+02  0.25367480529E+02  0.41800000000E+01 0. -1.
</event>
<event>
11    1  0.8479398E-009  0.2248495E+03  0.7561462E-02  0.1038221E+00
         22   -1    0    0    0    0  0.00000000000E+00  0.00000000000E+00  0.33313954567E+03  0.33313954567E+03  0.00000000000E+00 0. -1.
         22   -1    0    0    0    0 -0.00000000000E+00 -0.00000000000E+00 -0.16244751262E+04  0.16244751262E+04  0.00000000000E+00 0. -1.
        -24    2    1    2    0    0  0.37495805620E+02  0.70694426748E+02 -0.14243304745E+04  0.14287795733E+04  0.79310347821E+02 0.  0.
         25    2    1    2    0    0  0.10830492126E+02  0.12711504734E+03 -0.10346484988E+03  0.20646682646E+03  0.12509212783E+03 0.  0.
         24    2    1    2    0    0 -0.48326297746E+02 -0.19780947409E+03  0.23645974378E+03  0.32236827212E+03  0.80895446998E+02 0.  0.
        -11    1    5    5    0    0  0.82243578269E+01 -0.68333786392E+02  0.37600808634E+02  0.78428102325E+02  0.00000000000E+00 0.  1.
         12    1    5    5    0    0 -0.56550655573E+02 -0.12947568770E+03  0.19885893514E+03  0.24394016979E+03  0.00000000000E+00 0. -1.
         11    1    3    3    0    0  0.39180771357E+02  0.56426653201E+02 -0.13881822832E+04  0.13898809846E+04  0.00000000000E+00 0. -1.
        -12    1    3    3    0    0 -0.16849657373E+01  0.14267773547E+02 -0.36148191246E+02  0.38898588688E+02  0.00000000000E+00 0.  1.
          5    1    4    4  501    0  0.20609482120E+02  0.26233914801E+02  0.25635991256E+02  0.42280556840E+02  0.41800000000E+01 0.  1.
         -5    1    4    4    0  501 -0.97789899940E+01  0.10088113254E+03 -0.12910084114E+03  0.16418626962E+03  0.41800000000E+01 0.  1.
</event>
<event>
11    1  0.8479398E-009  0.1415263E+03  0.7561462E-02  0.1105866E+00
         22   -1    0    0    0    0  0.00000000000E+00  0.00000000000E+00  0.18376896281E+03  0.18376896281E+03  0.00000000000E+00 0. -1.
         22   -1    0    0    0    0 -0.00000000000E+00 -0.00000000000E+00 -0.18084108706E+04  0.18084108706E+04  0.00000000000E+00 0.  1.
         24    2    1    2    0    0  0.70154687431E+01 -0.65634068992E+02 -0.17327587996E+04  0.17358835378E+04  0.80508081575E+02 0.  0.
         25    2    1    2    0    0 -0.94582417496E+01  0.79457763950E+02  0.55381318876E+02  0.15848045214E+03  0.12508384644E+03 0.  0.
        -24    2    1    2    0    0  0.24427730065E+01 -0.13823694957E+02  0.52735572968E+02  0.97815843497E+02  0.81177810396E+02 0.  0.
        -13    1    3    3    0    0  0.33945919315E+02 -0.66013396775E+02 -0.10662226259E+04  0.10688034347E+04  0.00000000000E+00 0.  1.
         14    1    3    3    0    0 -0.26930450572E+02  0.37932778272E+00 -0.66653617370E+03  0.66708010306E+03  0.00000000000E+00 0. -1.
         11    1    5    5    0    0 -0.85379848415E+00 -0.39511589357E+02  0.59146963933E+02  0.71135490494E+02  0.00000000000E+00 0. -1.
        -12    1    5    5    0    0  0.32965714907E+01  0.25687894399E+02 -0.64113909655E+01  0.26680353003E+02  0.00000000000E+00 0.  1.
          5    1    4    4  501    0  0.15653322189E+02 -0.23157753085E+02  0.43793121701E+02  0.52121185057E+02  0.41800000000E+01 0. -1.
         -5    1    4    4    0  501 -0.25111563939E+02  0.10261551703E+03  0.11588197175E+02  0.10635926708E+03  0.41800000000E+01 0. -1.
</event>
<event>
11    1  0.8479398E-009  0.1752267E+03  0.7561462E-02  0.1073571E+00
         22   -1    0    0    0    0  0.00000000000E+00  0.00000000000E+00  0.31748480564E+03  0.31748480564E+03  0.00000000000E+00 0.  1.
         22   -1    0    0    0    0 -0.00000000000E+00 -0.00000000000E+00 -0.38495139632E+03  0.38495139632E+03  0.00000000000E+00 0.  1.
        -24    2    1    2    0    0 -0.11305114167E+03  0.10325116449E+02 -0.11769836994E+03  0.18033256101E+03  0.76024717131E+02 0.  0.
         25    2    1    2    0    0  0.13345464235E+03 -0.41481176995E+01 -0.19283258592E+03  0.26582029152E+03  0.12509465514E+03 0.  0.
         24    2    1    2    0    0 -0.20403500684E+02 -0.61769987494E+01  0.24306436518E+03  0.25628334943E+03  0.78399052421E+02 0.  0.
        -13    1    5    5    0    0  0.18380248296E+02 -0.24424276262E+02  0.15911957436E+03  0.16202906450E+03  0.00000000000E+00 0.  1.
         14    1    5    5    0    0 -0.38783748980E+02  0.18247277512E+02  0.83944790818E+02  0.94254284927E+02  0.00000000000E+00 0. -1.
         13    1    3    3    0    0 -0.10924570361E+02 -0.24291496937E+02 -0.11589248343E+02  0.29047095176E+02  0.00000000000E+00 0. -1.
        -14    1    3    3    0    0 -0.10212657131E+03  0.34616613386E+02 -0.10610912159E+03  0.15128546584E+03  0.00000000000E+00 0.  1.
          5    1    4    4  501    0  0.44172363721E+02 -0.52533638451E+02 -0.32667566760E+02  0.76128990560E+02  0.41800000000E+01 0.  1.
         -5    1    4    4    0  501  0.89282278630E+02  0.48385520752E+02 -0.16016501916E+03  0.18969130096E+03  0.41800000000E+01 0.  1.
</event>
<event>
11    1  0.8479398E-009  0.1495859E+03  0.7561462E-02  0.1097303E+00
         22   -1    0    0    0    0  0.00000000000E+00  0.00000000000E+00  0.26071667320E+04  0.26071667320E+04  0.00000000000E+00 0.  1.
         22   -1    0    0    0    0 -0.00000000000E+00 -0.00000000000E+00 -0.42798500909E+02  0.42798500909E+02  0.00000000000E+00 0. -1.
        -24    2    1    2    0    0  0.62907781750E+01 -0.37442432096E+02  0.42048246493E+02  0.10429756622E+03  0.87569501972E+02 0.  0.
         25    2    1    2    0    0  0.53928371928E+02  0.88807038973E+02  0.65011616824E+03  0.67014059844E+03  0.12506970056E+03 0.  0.
         24    2    1    2    0    0 -0.60219150103E+02 -0.51364606877E+02  0.18722038164E+04  0.18755270683E+04  0.78676456908E+02 0.  0.
        -11    1    5    5    0    0 -0.76634720696E+02 -0.46533682109E+02  0.17256812532E+04  0.17280086955E+04  0.00000000000E+00 0.  1.
         12    1    5    5    0    0  0.16415570593E+02 -0.48309247681E+01  0.14652256319E+03  0.14751837281E+03  0.00000000000E+00 0. -1.
         13    1    3    3    0    0  0.13582993870E+02 -0.65064435996E+02  0.33770176580E+02  0.74554029939E+02  0.00000000000E+00 0. -1.
        -14    1    3    3    0    0 -0.72922156953E+01  0.27622003900E+02  0.82780699130E+01  0.29743536284E+02  0.00000000000E+00 0.  1.
          5    1    4    4  501    0  0.78145851048E+02  0.88587311847E+02  0.35835907130E+03  0.37735021166E+03  0.41800000000E+01 0.  1.
         -5    1    4    4    0  501 -0.24217479120E+02  0.21972712605E+00  0.29175709694E+03  0.29279038677E+03  0.41800000000E+01 0.  1.
</event>
<event>
11    1  0.8479398E-009  0.1453789E+03  0.7561462E-02  0.1101696E+00
         22   -1    0    0    0    0  0.00000000000E+00  0.00000000000E+00  0.20235079260E+03  0.20235079260E+03  0.00000000000E+00 0. -1.
         22   -1    0    0    0    0 -0.00000000000E+00 -0.00000000000E+00 -0.53825208547E+03  0.53825208547E+03  0.00000000000E+00 0.  1.
        -24    2    1    2    0    0 -0.33939130670E+02 -0.79204597369E+01 -0.31064975778E+03  0.32264977845E+03  0.79906252905E+02 0.  0.
         25    2    1    2    0    0  0.96151355470E+02  0.43107439975E+02 -0.17161400790E+03  0.23706861755E+03  0.12508727824E+03 0.  0.
         24    2    1    2    0    0 -0.62212224800E+02 -0.35186980238E+02  0.14636247281E+03  0.18088448207E+03  0.78668531910E+02 0.  0.
        -11    1    5    5    0    0 -0.39424288674E+02 -0.19093718794E+01  0.12999312392E+02  0.41556014741E+02  0.00000000000E+00 0.  1.
         12    1    5    5    0    0 -0.22787936126E+02 -0.33277608358E+02  0.13336316042E+03  0.13932846733E+03  0.00000000000E+00 0. -1.
         13    1    3    3    0    0 -0.37808402071E+02 -0.27277789361E+02 -0.92267995958E+02  0.10337763848E+03  0.00000000000E+00 0. -1.
        -14    1    3    3    0    0  0.38692714018E+01  0.19357329624E+02 -0.21838176182E+03  0.21927213997E+03  0.00000000000E+00 0.  1.
          5    1    4    4  501    0  0.83516561555E+02  0.72427915041E+02 -0.17242090238E+03  0.20485911966E+03  0.41800000000E+01 0. -1.
         -5    1    4    4    0  501  0.12634793915E+02 -0.29320475066E+02  0.80689447877E+00  0.32209497886E+02  0.41800000000E+01 0. -1.
</event>
<event>
11    1  0.8479398E-009  0.1428005E+03  0.7561462E-02  0.1104471E+00
         22   -1    0    0    0    0  0.00000000000E+00  0.00000000000E+00  0.23746070884E+04  0.23746070884E+04  0.00000000000E+00 0. -1.
         22   -1    0    0    0    0 -0.00000000000E+00 -0.00000000000E+00 -0.11467644065E+04  0.11467644065E+04  0.00000000000E+00 0.  1.
         24    2    1    2    0    0  0.22989075021E+02  0.65090893003E+02 -0.11261017747E+04  0.11315837454E+04  0.87242442726E+02 0.  0.
         25    2    1    2    0    0  0.25314749391E+02 -0.64066204141E+02  0.28540366553E+03  0.31913663358E+03  0.12509046143E+03 0.  0.
        -24    2    1    2    0    0 -0.48303824413E+02 -0.10246888621E+01  0.20685407911E+04  0.20706511159E+04  0.80004561770E+02 0.  0.
        -11    1    3    3    0    0  0.22667013752E+02  0.13339293351E+02 -0.86514618082E+03  0.86554586501E+03  0.00000000000E+00 0.  1.
         12    1    3    3    0    0  0.32206126907E+00  0.51751599652E+02 -0.26095559391E+03  0.26603788036E+03  0.00000000000E+00 0. -1.
         13    1    5    5    0    0 -0.67264451364E+02  0.12538061419E+02  0.16977312791E+04  0.16991095330E+04  0.00000000000E+00 0. -1.
        -14    1    5    5    0    0  0.18960626951E+02 -0.13562750281E+02  0.37080951206E+03  0.37154158288E+03  0.00000000000E+00 0.  1.
          5    1    4    4  501    0  0.67736395201E+02 -0.37101377541E+02  0.96801580634E+02  0.12390621398E+03  0.41800000000E+01 0.  1.
         -5    1    4    4    0  501 -0.42421645810E+02 -0.26964826600E+02  0.18860208490E+03  0.19523041959E+03  0.41800000000E+01 0.  1.
</event>
<event>
11    1  0.8479398E-009  0.1385756E+03  0.7561462E-02  0.1109159E+00
         22   -1    0    0    0    0  0.00000000000E+00  0.00000000000E+00  0.88056818091E+02  0.88056818091E+02  0.00000000000E+00 0.  1.
         22   -1    0    0    0    0 -0.00000000000E+00 -0.00000000000E+00 -0.33426003053E+04  0.33426003053E+04  0.00000000000E+00 0. -1.
         24    2    1    2    0    0  0.23859113893E+02 -0.78890005650E+01 -0.30700962304E+04  0.30712332783E+04  0.79696249070E+02 0.  0.
         25    2    1    2    0    0 -0.66173545750E+02 -0.31654852281E+02 -0.21259196410E+03  0.25734009295E+03  0.12509041693E+03 0.  0.
        -24    2    1    2    0    0  0.42314431857E+02  0.39543852846E+02  0.28144707239E+02  0.10208375221E+03  0.79213259483E+02 0.  0.
        -13    1    3    3    0    0  0.18335525670E+02  0.30840979307E+02 -0.80497651765E+03  0.80577574515E+03  0.00000000000E+00 0.  1.
         14    1    3    3    0    0  0.55235882232E+01 -0.38729979872E+02 -0.22651197127E+04  0.22654575331E+04  0.00000000000E+00 0. -1.
         11    1    5    5    0    0  0.81099572878E+01  0.32718892429E+02 -0.22545103486E+02  0.40553409477E+02  0.00000000000E+00 0. -1.
        -12    1    5    5    0    0  0.34204474569E+02  0.68249604167E+01  0.50689810725E+02  0.61530342731E+02  0.00000000000E+00 0.  1.
          5    1    4    4  501    0 -0.17974941588E+02 -0.54667333779E+02 -0.26138942838E+02  0.63342976251E+02  0.41800000000E+01 0.  1.
         -5    1    4    4    0  501 -0.48198604162E+02  0.23012481498E+02 -0.18645302127E+03  0.19399711670E+03  0.41800000000E+01 0.  1.
</event>
<event>
11    1  0.8479398E-009  0.1429101E+03  0.7561462E-02  0.1104352E+00
         22   -1    0    0    0    0  0.00000000000E+00  0.00000000000E+00  0.52308801136E+03  0.52308801136E+03  0.00000000000E+00 0. -1.
         22   -1    0    0    0    0 -0.00000000000E+00 -0.00000000000E+00 -0.29214168029E+04  0.29214168029E+04  0.00000000000E+00 0.  1.
        -24    2    1    2    0    0  0.80884638176E+01 -0.11848139651E+02 -0.28879641115E+04  0.28891111403E+04  0.80129084646E+02 0.  0.
         25    2    1    2    0    0  0.62593969626E+02 -0.88560092460E+00  0.18140242379E+03  0.22906941975E+03  0.12508865010E+03 0.  0.
         24    2    1    2    0    0 -0.70682433444E+02  0.12733740576E+02  0.30823289613E+03  0.32632425423E+03  0.79510037693E+02 0.  0.
        -11    1    5    5    0    0 -0.78015513135E+02 -0.12701031519E+02  0.25329902166E+03  0.26534530496E+03  0.00000000000E+00 0.  1.
         12    1    5    5    0    0  0.73330796912E+01  0.25434772095E+02  0.54933874469E+02  0.60978949265E+02  0.00000000000E+00 0. -1.
         13    1    3    3    0    0  0.96099066178E+01  0.31514926123E+02 -0.77278475898E+03  0.77348679665E+03  0.00000000000E+00 0. -1.
        -14    1    3    3    0    0 -0.15214428001E+01 -0.43363065774E+02 -0.21151793525E+04  0.21156243437E+04  0.00000000000E+00 0.  1.
          5    1    4    4  501    0  0.52041637598E+02  0.15772371792E+02  0.19647225727E+03  0.20390174112E+03  0.41800000000E+01 0.  1.
         -5    1    4    4    0  501  0.10552332028E+02 -0.16657972717E+02 -0.15069833482E+02  0.25167678626E+02  0.41800000000E+01 0.  1.
</event>
<event>
11    1  0.8479398E-009  0.1355276E+03  0.7561462E-02  0.1112658E+00
         22   -1    0    0    0    0  0.00000000000E+00  0.00000000000E+00  0.73954464824E+03  0.73954464824E+03  0.00000000000E+00 0.  1.
         22   -1    0    0    0    0 -0.00000000000E+00 -0.00000000000E+00 -0.11206224490E+04  0.11206224490E+04  0.00000000000E+00 0. -1.
         24    2    1    2    0    0 -0.48635209605E+02 -0.92091293805E+01 -0.10859779398E+04  0.10900647505E+04  0.80267570178E+02 0.  0.
         25    2    1    2    0    0  0.91342159689E+02  0.25470780366E+02  0.18969350450E+03  0.24620774482E+03  0.12506988913E+03 0.  0.
        -24    2    1    2    0    0 -0.42706950083E+02 -0.16261650986E+02  0.51520663459E+03  0.52389460189E+03  0.83302777139E+02 0.  0.
        -13    1    3    3    0    0  0.16964570200E+02 -0.11884394585E+02 -0.11360411309E+03  0.11547696734E+03  0.00000000000E+00 0.  1.
         14    1    3    3    0    0 -0.65599779806E+02  0.26752652043E+01 -0.97237382674E+03  0.97458778316E+03  0.00000000000E+00 0. -1.
         13    1    5    5    0    0  0.27135746237E+01  0.11875157375E+02  0.96982161678E+01  0.15570428599E+02  0.00000000000E+00 0. -1.
        -14    1    5    5    0    0 -0.45420524707E+02 -0.28136808361E+02  0.50550841842E+03  0.50832417329E+03  0.00000000000E+00 0.  1.
          5    1    4    4  501    0  0.10711037904E+03  0.16217027916E+02  0.79519098659E+02  0.13444844642E+03  0.41800000000E+01 0. -1.
         -5    1    4    4    0  501 -0.15768219350E+02  0.92537524500E+01  0.11017440584E+03  0.11175929840E+03  0.41800000000E+01 0. -1.
</event>
<event>
11    1  0.8479398E-009  0.1337269E+03  0.7561462E-02  0.1114773E+00
         22   -1    0    0    0    0  0.00000000000E+00  0.00000000000E+00  0.16598472112E+03  0.16598472112E+03  0.00000000000E+00 0. -1.
         22   -1    0    0    0    0 -0.00000000000E+00 -0.00000000000E+00 -0.71557517821E+03  0.71557517821E+03  0.00000000000E+00 0.  1.
        -24    2    1    2    0    0  0.18380075628E+01 -0.33635376801E+02 -0.60674091314E+03  0.61304358908E+03  0.80951773250E+02 0.  0.
         25    2    1    2    0    0  0.17937045854E+01 -0.19881077346E+02 -0.38975529608E+02  0.13253049707E+03  0.12508703423E+03 0.  0.
         24    2    1    2    0    0 -0.36317121482E+01  0.53516454147E+02  0.96125985657E+02  0.13598581318E+03  0.79841944305E+02 0.  0.
        -11    1    5    5    0    0 -0.31371498064E+02  0.58752431793E+02  0.56543698687E+02  0.87368237899E+02  0.00000000000E+00 0.  1.
         12    1    5    5    0    0  0.27739785916E+02 -0.52359776457E+01  0.39582286970E+02  0.48617575283E+02  0.00000000000E+00 0. -1.
         13    1    3    3    0    0  0.19440452923E+02  0.17533974047E+02 -0.98127819349E+02  0.10156003341E+03  0.00000000000E+00 0. -1.
        -14    1    3    3    0    0 -0.17602445360E+02 -0.51169350848E+02 -0.50861309379E+03  0.51148355567E+03  0.00000000000E+00 0.  1.
          5    1    4    4  501    0  0.27429502588E+02  0.29424176697E+02 -0.60514067661E+02  0.72784507771E+02  0.41800000000E+01 0.  1.
         -5    1    4    4    0  501 -0.25635798002E+02 -0.49305254044E+02  0.21538538053E+02  0.59745989296E+02  0.41800000000E+01 0.  1.
</event>
<event>
11    1  0.8479398E-009  0.1364562E+03  0.7561462E-02  0.1111581E+00
         22   -1    0    0    0    0  0.00000000000E+00  0.00000000000E+00  0.64613459018E+03  0.64613459018E+03  0.00000000000E+00 0.  1.
         22   -1    0    0    0    0 -0.00000000000E+00 -0.00000000000E+00 -0.19557000367E+03  0.19557000367E+03  0.00000000000E+00 0. -1.
        -24    2    1    2    0    0  0.34522374828E+02 -0.10023347182E+00 -0.13683498938E+03  0.16257309390E+03  0.80711784325E+02 0.  0.
         25    2    1    2    0    0 -0.75226863880E+02 -0.31662968239E+02  0.95088698134E+02  0.17704725827E+03  0.12506896714E+03 0.  0.
         24    2    1    2    0    0  0.40704489052E+02  0.31763201711E+02  0.49231087776E+03  0.50208424169E+03  0.83981122729E+02 0.  0.
        -13    1    5    5    0    0  0.61213339427E+02  0.31197547855E+02  0.44820176174E+03  0.45343707297E+03  0.00000000000E+00 0.  1.
         14    1    5    5    0    0 -0.20508850374E+02  0.56565385600E+00  0.44109116025E+02  0.48647168720E+02  0.00000000000E+00 0. -1.
         13    1    3    3    0    0  0.10922694022E+02 -0.32936038659E+02 -0.10653482305E+03  0.11204354693E+03  0.00000000000E+00 0. -1.
        -14    1    3    3    0    0  0.23599680806E+02  0.32835805187E+02 -0.30300166333E+02  0.50529546962E+02  0.00000000000E+00 0.  1.
          5    1    4    4  501    0  0.15604160014E+02  0.89793195091E+01 -0.18381766341E+02  0.26066831844E+02  0.41800000000E+01 0.  1.
         -5    1    4    4    0  501 -0.90831023894E+02 -0.40642287748E+02  0.11347046448E+03  0.15098042642E+03  0.41800000000E+01 0.  1.
</event>
<event>
11    1  0.8479398E-009  0.2261512E+03  0.7561462E-02  0.1037431E+00
         22   -1    0    0    0    0  0.00000000000E+00  0.00000000000E+00  0.13724554652E+03  0.13724554652E+03  0.00000000000E+00 0.  1.
         22   -1    0    0    0    0 -0.00000000000E+00 -0.00000000000E+00 -0.12545858462E+04  0.12545858462E+04  0.00000000000E+00 0. -1.
        -24    2    1    2    0    0  0.14692041119E+03  0.12809565189E+03 -0.81000187301E+03  0.83691136555E+03  0.79520414092E+02 0.  0.
         25    2    1    2    0    0 -0.83722453101E+02 -0.16241786429E+03 -0.36856219618E+03  0.42997224970E+03  0.12509608814E+03 0.  0.
         24    2    1    2    0    0 -0.63197958084E+02  0.34322212406E+02  0.61223769485E+02  0.12494777750E+03  0.81802206453E+02 0.  0.
        -11    1    5    5    0    0 -0.67929219284E+02  0.40313525267E+02  0.75174534195E+02  0.10904480613E+03  0.00000000000E+00 0.  1.
         12    1    5    5    0    0  0.47312612000E+01 -0.59913128606E+01 -0.13950764710E+02  0.15902971368E+02  0.00000000000E+00 0. -1.
         11    1    3    3    0    0  0.12464621316E+03  0.13796413894E+03 -0.72784550654E+03  0.75121891848E+03  0.00000000000E+00 0. -1.
        -12    1    3    3    0    0  0.22274198022E+02 -0.98684870506E+01 -0.82156366464E+02  0.85692447069E+02  0.00000000000E+00 0.  1.
          5    1    4    4  501    0 -0.20372154569E+02  0.19230896814E+02 -0.59587695324E+02  0.65977404526E+02  0.41800000000E+01 0. -1.
         -5    1    4    4    0  501 -0.63350298532E+02 -0.18164876111E+03 -0.30897450086E+03  0.36399484518E+03  0.41800000000E+01 0. -1.
</event>
<event>
11    1  0.8479398E-009  0.1370905E+03  0.7561462E-02  0.1110852E+00
         22   -1    0    0    0    0  0.00000000000E+00  0.00000000000E+00  0.13337339669E+04  0.13337339669E+04  0.00000000000E+00 0.  1.
         22   -1    0    0    0    0 -0.00000000000E+00 -0.00000000000E+00 -0.25571324799E+04  0.25571324799E+04  0.00000000000E+00 0.  1.
        -24    2    1    2    0    0 -0.41641204383E+02 -0.46878094445E+02 -0.25389252006E+04  0.25409635929E+04  0.80145245325E+02 0.  0.
         25    2    1    2    0    0  0.10255770062E+02 -0.10316209377E+02  0.25686483297E+03  0.28607456235E+03  0.12508999885E+03 0.  0.
         24    2    1    2    0    0  0.31385434321E+02  0.57194303822E+02  0.10586618548E+04  0.10638282915E+04  0.81911398971E+02 0.  0.
        -11    1    5    5    0    0  0.53976690575E+02  0.61184465304E+02  0.85150811176E+03  0.85540814020E+03  0.00000000000E+00 0.  1.
         12    1    5    5    0    0 -0.22591256253E+02 -0.39901614829E+01  0.20715374300E+03  0.20842015135E+03  0.00000000000E+00 0. -1.
         11    1    3    3    0    0  0.18471424517E+02 -0.38063134544E+01 -0.10806328170E+04  0.10807973754E+04  0.00000000000E+00 0. -1.
        -12    1    3    3    0    0 -0.60112628900E+02 -0.43071780990E+02 -0.14582923836E+04  0.14601662175E+04  0.00000000000E+00 0.  1.
          5    1    4    4  501    0  0.48844217390E+02 -0.33894964204E+02  0.21893999660E+03  0.22690707499E+03  0.41800000000E+01 0.  1.
         -5    1    4    4    0  501 -0.38588447328E+02  0.23578754827E+02  0.37924836370E+02  0.59167487357E+02  0.41800000000E+01 0.  1.
</event>
<event>
11    1  0.8479398E-009  0.1472949E+03  0.7561462E-02  0.1099675E+00
         22   -1    0    0    0    0  0.00000000000E+00  0.00000000000E+00  0.14935155266E+04  0.14935155266E+04  0.00000000000E+00 0.  1.
         22   -1    0    0    0    0 -0.00000000000E+00 -0.00000000000E+00 -0.31893669394E+02  0.31893669394E+02  0.00000000000E+00 0. -1.
         24    2    1    2    0    0 -0.15520106119E+01  0.14025707277E+03  0.47234219937E+03  0.49913880499E+03  0.79736680034E+02 0.  0.
         25    2    1    2    0    0  0.27903187470E+02 -0.40059123470E+02  0.60676603807E+03  0.62144618053E+03  0.12508800542E+03 0.  0.
        -24    2    1    2    0    0 -0.26351176858E+02 -0.10019794930E+03  0.38251361973E+03  0.40482421044E+03  0.82655662303E+02 0.  0.
        -11    1    3    3    0    0  0.17901694166E+02  0.80084081133E+02  0.36874007235E+03  0.37776073335E+03  0.00000000000E+00 0.  1.
         12    1    3    3    0    0 -0.19453704778E+02  0.60172991632E+02  0.10360212702E+03  0.12137807164E+03  0.00000000000E+00 0. -1.
         11    1    5    5    0    0 -0.30558040377E+02 -0.92959337386E+02  0.20545282475E+03  0.22756558491E+03  0.00000000000E+00 0. -1.
        -12    1    5    5    0    0  0.42068635195E+01 -0.72386119093E+01  0.17706079499E+03  0.17725862553E+03  0.00000000000E+00 0.  1.
          5    1    4    4  501    0  0.76436094972E+02 -0.18593662413E+02  0.30428380337E+03  0.31431561573E+03  0.41800000000E+01 0.  1.
         -5    1    4    4    0  501 -0.48532907502E+02 -0.21465461058E+02  0.30248223469E+03  0.30713056480E+03  0.41800000000E+01 0.  1.
</event>
<event>
11    1  0.8479398E-009  0.2136751E+03  0.7561462E-02  0.1045253E+00
         22   -1    0    0    0    0  0.00000000000E+00  0.00000000000E+00  0.14612028257E+03  0.14612028257E+03  0.00000000000E+00 0.  1.
         22   -1    0    0    0    0 -0.00000000000E+00 -0.00000000000E+00 -0.42089326250E+04  0.42089326250E+04  0.00000000000E+00 0.  1.
        -24    2    1    2    0    0  0.11468336666E+03  0.13692728625E+03 -0.32961381670E+04  0.33022735609E+04  0.92641774454E+02 0.  0.
         25    2    1    2    0    0 -0.18255866520E+03 -0.30391741477E+02 -0.85165741568E+03  0.88046830969E+03  0.12511101669E+03 0.  0.
         24    2    1    2    0    0  0.67875298541E+02 -0.10653554477E+03  0.84983240273E+02  0.17231103702E+03  0.80697359934E+02 0.  0.
        -13    1    5    5    0    0  0.76771617857E+02 -0.11324623324E+03  0.85181070738E+02  0.16116577014E+03  0.00000000000E+00 0.  1.
         14    1    5    5    0    0 -0.88963193161E+01  0.67106884668E+01 -0.19783046535E+00  0.11145266886E+02  0.00000000000E+00 0. -1.
         11    1    3    3    0    0  0.61851787772E+02  0.47562375523E+02 -0.75617695195E+03  0.76019169021E+03  0.00000000000E+00 0. -1.
        -12    1    3    3    0    0  0.52831578885E+02  0.89364910729E+02 -0.25399612151E+04  0.25420818707E+04  0.00000000000E+00 0.  1.
          5    1    4    4  501    0 -0.84553641847E+02  0.46247502627E+02 -0.43742912235E+03  0.44793957106E+03  0.41800000000E+01 0. -1.
         -5    1    4    4    0  501 -0.98005023351E+02 -0.76639244104E+02 -0.41422829334E+03  0.43252873863E+03  0.41800000000E+01 0. -1.
</event>
<event>
11    1  0.8479398E-009  0.2852230E+03  0.7561462E-02  0.1006647E+00
         22   -1    0    0    0    0  0.00000000000E+00  0.00000000000E+00  0.80509178827E+03  0.80509178827E+03  0.00000000000E+00 0.  1.
         22   -1    0    0    0    0 -0.00000000000E+00 -0.00000000000E+00 -0.61004286874E+03  0.61004286874E+03  0.00000000000E+00 0. -1.
         24    2    1    2    0    0  0.25238895160E+03 -0.16265222244E+02 -0.43994399106E+03  0.51352785019E+03  0.78710846148E+02 0.  0.
         25    2    1    2    0    0 -0.26798571855E+03  0.72111014441E+02  0.51436372666E+02  0.30872136156E+03  0.12508730912E+03 0.  0.
        -24    2    1    2    0    0  0.15596766945E+02 -0.55845792197E+02  0.58355653792E+03  0.59288544526E+03  0.87251971954E+02 0.  0.
        -13    1    3    3    0    0  0.10801774696E+03  0.76551575046E+01 -0.11959341191E+03  0.16133511480E+03  0.00000000000E+00 0.  1.
         14    1    3    3    0    0  0.14437120464E+03 -0.23920379749E+02 -0.32035057916E+03  0.35219273539E+03  0.00000000000E+00 0. -1.
         11    1    5    5    0    0 -0.35579378602E+02 -0.22041839485E+02  0.18802772087E+03  0.19262958933E+03  0.00000000000E+00 0. -1.
        -12    1    5    5    0    0  0.51176145547E+02 -0.33803952713E+02  0.39552881705E+03  0.40025585593E+03  0.00000000000E+00 0.  1.
          5    1    4    4  501    0 -0.29874270634E+02 -0.26595613718E+02 -0.14293829251E+02  0.42680026588E+02  0.41800000000E+01 0.  1.
         -5    1    4    4    0  501 -0.23811144791E+03  0.98706628159E+02  0.65730201917E+02  0.26604133497E+03  0.41800000000E+01 0.  1.
</event>
<event>
11    1  0.8479398E-009  0.2483231E+03  0.7561462E-02  0.1024796E+00
         22   -1    0    0    0    0  0.00000000000E+00  0.00000000000E+00  0.10371970237E+04  0.10371970237E+04  0.00000000000E+00 0. -1.
         22   -1    0    0    0    0 -0.00000000000E+00 -0.00000000000E+00 -0.88087086031E+02  0.88087086031E+02  0.00000000000E+00 0.  1.
        -24    2    1    2    0    0 -0.69472272092E+02  0.13246771608E+02  0.11390846008E+03  0.15759629562E+03  0.82822590927E+02 0.  0.
         25    2    1    2    0    0  0.18585260097E+03  0.14213856623E+03  0.57539566375E+03  0.63361812603E+03  0.12508876235E+03 0.  0.
         24    2    1    2    0    0 -0.11638032888E+03 -0.15538533784E+03  0.25980581379E+03  0.33406968804E+03  0.80090645029E+02 0.  0.
        -11    1    5    5    0    0 -0.47170871086E+02 -0.90823425970E+02  0.76511421878E+02  0.12778099805E+03  0.00000000000E+00 0.  1.
         12    1    5    5    0    0 -0.69209457792E+02 -0.64561911872E+02  0.18329439191E+03  0.20628868999E+03  0.00000000000E+00 0. -1.
         13    1    3    3    0    0 -0.67153677800E+02  0.35962529571E+01  0.12547169583E+03  0.14235763391E+03  0.00000000000E+00 0. -1.
        -14    1    3    3    0    0 -0.23185942916E+01  0.96505186508E+01 -0.11563235751E+02  0.15238661711E+02  0.00000000000E+00 0.  1.
          5    1    4    4  501    0  0.60785668781E+02  0.11561360060E+03  0.21982276097E+03  0.25573603737E+03  0.41800000000E+01 0.  1.
         -5    1    4    4    0  501  0.12506693219E+03  0.26524965634E+02  0.35557290279E+03  0.37788208865E+03  0.41800000000E+01 0.  1.
</event>
<event>
11    1  0.8479398E-009  0.1289133E+03  0.7561462E-02  0.1120611E+00
         22   -1    0    0    0    0  0.00000000000E+00  0.00000000000E+00  0.14942541449E+03  0.14942541449E+03  0.00000000000E+00 0.  1.
         22   -1    0    0    0    0 -0.00000000000E+00 -0.00000000000E+00 -0.18140621248E+04  0.18140621248E+04  0.00000000000E+00 0.  1.
         24    2    1    2    0    0 -0.14040959493E+02 -0.28008138993E+02 -0.16233425465E+04  0.16257067569E+04  0.81852499772E+02 0.  0.
         25    2    1    2    0    0  0.12075184418E+02  0.25053588561E+02 -0.15365340966E+03  0.20007638782E+03  0.12509076019E+03 0.  0.
        -24    2    1    2    0    0  0.19657750752E+01  0.29545504319E+01  0.11235924587E+03  0.13770439457E+03  0.79531795604E+02 0.  0.
        -11    1    3    3    0    0 -0.43717372063E+02 -0.36206750458E+02 -0.10164517376E+04  0.10180354966E+04  0.00000000000E+00 0.  1.
         12    1    3    3    0    0  0.29676412570E+02  0.81986114649E+01 -0.60689080888E+03  0.60767126030E+03  0.00000000000E+00 0. -1.
         13    1    5    5    0    0 -0.17306616316E+02  0.14546949631E+01 -0.55408583765E+01  0.18230090984E+02  0.00000000000E+00 0. -1.
        -14    1    5    5    0    0  0.19272391391E+02  0.14998554688E+01  0.11790010425E+03  0.11947430359E+03  0.00000000000E+00 0.  1.
          5    1    4    4  501    0 -0.34668156983E+02  0.59775968448E+02 -0.74174436629E+02  0.10146115987E+03  0.41800000000E+01 0. -1.
         -5    1    4    4    0  501  0.46743341401E+02 -0.34722379887E+02 -0.79478973032E+02  0.98615227955E+02  0.41800000000E+01 0. -1.
</event>
<event>
11    1  0.8479398E-009  0.2090326E+03  0.7561462E-02  0.1048314E+00
         22   -1    0    0    0    0  0.00000000000E+00  0.00000000000E+00  0.77872168240E+03  0.77872168240E+03  0.00000000000E+00 0.  1.
         22   -1    0    0    0    0 -0.00000000000E+00 -0.00000000000E+00 -0.27899944114E+03  0.27899944114E+03  0.00000000000E+00 0. -1.
        -24    2    1    2    0    0 -0.62680093227E+02  0.15895818608E+03 -0.17945997307E+03  0.26023701503E+03  0.79504232904E+02 0.  0.
         25    2    1    2    0    0  0.62182037321E+01 -0.15911990467E+03  0.13185278058E+03  0.24163974962E+03  0.12508718053E+03 0.  0.
         24    2    1    2    0    0  0.56461889495E+02  0.16171858756E+00  0.54732943375E+03  0.55584435889E+03  0.78774812876E+02 0.  0.
        -11    1    5    5    0    0  0.39405828626E+02  0.26094741582E+02  0.47214669250E+03  0.47450632673E+03  0.00000000000E+00 0.  1.
         12    1    5    5    0    0  0.17056060869E+02 -0.25933022994E+02  0.75182741248E+02  0.81338032159E+02  0.00000000000E+00 0. -1.
         11    1    3    3    0    0 -0.67461297198E+01  0.11080443692E+03 -0.13206540718E+03  0.17252363687E+03  0.00000000000E+00 0. -1.
        -12    1    3    3    0    0 -0.55933963507E+02  0.48153749163E+02 -0.47394565894E+02  0.87713378161E+02  0.00000000000E+00 0.  1.
          5    1    4    4  501    0 -0.43280935098E+02 -0.11193378878E+02  0.17540397895E+02  0.48204450334E+02  0.41800000000E+01 0.  1.
         -5    1    4    4    0  501  0.49499138830E+02 -0.14792652579E+03  0.11431238268E+03  0.19343529929E+03  0.41800000000E+01 0.  1.
</event>
<event>
11    1  0.8479398E-009  0.1724621E+03  0.7561462E-02  0.1075909E+00
         22   -1    0    0    0    0  0.00000000000E+00  0.00000000000E+00  0.14728140554E+04  0.14728140554E+04  0.00000000000E+00 0.  1.
         22   -1    0    0    0    0 -0.00000000000E+00 -0.00000000000E+00 -0.16809321244E+04  0.16809321244E+04  0.00000000000E+00 0. -1.
        -24    2    1    2    0    0 -0.84428203768E+02 -0.71852090495E+02 -0.12239962956E+04  0.12313379080E+04  0.75731548882E+02 0.  0.
         25    2    1    2    0    0  0.13964140419E+03  0.10245392466E+03 -0.42620538448E+03  0.47675546813E+03  0.12509283828E+03 0.  0.
         24    2    1    2    0    0 -0.55213200417E+02 -0.30601834163E+02  0.14420836111E+04  0.14456528036E+04  0.79510485404E+02 0.  0.
        -11    1    5    5    0    0 -0.50781480240E+02  0.37186754171E-01  0.12548508278E+04  0.12558779241E+04  0.00000000000E+00 0.  1.
         12    1    5    5    0    0 -0.44317201766E+01 -0.30639020917E+02  0.18723278327E+03  0.18977487947E+03  0.00000000000E+00 0. -1.
         13    1    3    3    0    0 -0.71203562852E+02 -0.87856699095E+02 -0.10665646883E+04  0.10725432305E+04  0.00000000000E+00 0. -1.
        -14    1    3    3    0    0 -0.13224640917E+02  0.16004608600E+02 -0.15743160731E+03  0.15879467751E+03  0.00000000000E+00 0.  1.
          5    1    4    4  501    0  0.18338015249E+02 -0.28732640193E+02 -0.56519048398E+02  0.66134126195E+02  0.41800000000E+01 0.  1.
         -5    1    4    4    0  501  0.12130338894E+03  0.13118656485E+03 -0.36968633608E+03  0.41062134193E+03  0.41800000000E+01 0.  1.
</event>
<event>
11    1  0.8479398E-009  0.2001417E+03  0.7561462E-02  0.1054423E+00
         22   -1    0    0    0    0  0.00000000000E+00  0.00000000000E+00  0.80245390917E+03  0.80245390917E+03  0.00000000000E+00 0. -1.
         22   -1    0    0    0    0 -0.00000000000E+00 -0.00000000000E+00 -0.11459329562E+04  0.11459329562E+04  0.00000000000E+00 0. -1.
        -24    2    1    2    0    0 -0.83993939426E+02  0.13705176776E+03 -0.10667379979E+04  0.10818425792E+04  0.81334132307E+02 0.  0.
         25    2    1    2    0    0  0.10893725962E+03 -0.37894142939E+02  0.44956560165E+02  0.17598632759E+03  0.12508717998E+03 0.  0.
         24    2    1    2    0    0 -0.24943320193E+02 -0.99157624817E+02  0.67830239070E+03  0.69055795858E+03  0.79509478353E+02 0.  0.
        -13    1    5    5    0    0 -0.11875820789E+02 -0.92046580157E+02  0.35556931278E+03  0.36748216859E+03  0.00000000000E+00 0.  1.
         14    1    5    5    0    0 -0.13067499404E+02 -0.71110446602E+01  0.32273307792E+03  0.32307578999E+03  0.00000000000E+00 0. -1.
         13    1    3    3    0    0 -0.92559856420E+02  0.12780027754E+03 -0.83611248984E+03  0.85087268944E+03  0.00000000000E+00 0. -1.
        -14    1    3    3    0    0  0.85659169943E+01  0.92514902133E+01 -0.23062550805E+03  0.23096988974E+03  0.00000000000E+00 0.  1.
          5    1    4    4  501    0  0.97878406134E+02 -0.69589474447E+02  0.55863958374E+00  0.12016930481E+03  0.41800000000E+01 0.  1.
         -5    1    4    4    0  501  0.11058853484E+02  0.31695331507E+02  0.44397920581E+02  0.55817022777E+02  0.41800000000E+01 0.  1.
</event>
<event>
11    1  0.8479398E-009  0.1985903E+03  0.7561462E-02  0.1055525E+00
         22   -1    0    0    0    0  0.00000000000E+00  0.00000000000E+00  0.20953705961E+03  0.20953705961E+03  0.00000000000E+00 0.  1.
         22   -1    0    0    0    0 -0.00000000000E+00 -0.00000000000E+00 -0.21796348547E+04  0.21796348547E+04  0.00000000000E+00 0.  1.
         24    2    1    2    0    0 -0.18264866214E+03 -0.82838430520E+02 -0.11780498641E+04  0.11973947863E+04  0.75697110422E+02 0.  0.
         25    2    1    2    0    0  0.12336069580E+03 -0.92507685859E+02 -0.92790441179E+03  0.94891154780E+03  0.12510393651E+03 0.  0.
        -24    2    1    2    0    0  0.59287966337E+02  0.17534611638E+03  0.13585648082E+03  0.24286558020E+03  0.79154173516E+02 0.  0.
        -11    1    3    3    0    0 -0.72800183216E+02  0.13177533111E+01 -0.31380143999E+03  0.32213808668E+03  0.00000000000E+00 0.  1.
         12    1    3    3    0    0 -0.10984847892E+03 -0.84156183831E+02 -0.86424842411E+03  0.87525669959E+03  0.00000000000E+00 0. -1.
         13    1    5    5    0    0  0.50799231007E+02  0.37899706248E+02  0.48206882797E+02  0.79629474151E+02  0.00000000000E+00 0. -1.
        -14    1    5    5    0    0  0.84887353304E+01  0.13744641013E+03  0.87649598024E+02  0.16323610605E+03  0.00000000000E+00 0.  1.
          5    1    4    4  501    0  0.53640555882E+02 -0.16679846785E+02 -0.65110294315E+03  0.65353503464E+03  0.41800000000E+01 0. -1.
         -5    1    4    4    0  501  0.69720139916E+02 -0.75827839075E+02 -0.27680146863E+03  0.29537651316E+03  0.41800000000E+01 0. -1.
</event>
<event>
11    1  0.8479398E-009  0.1530233E+03  0.7561462E-02  0.1093829E+00
         22   -1    0    0    0    0  0.00000000000E+00  0.00000000000E+00  0.29387963292E+04  0.29387963292E+04  0.00000000000E+00 0.  1.
         22   -1    0    0    0    0 -0.00000000000E+00 -0.00000000000E+00 -0.12663842113E+04  0.12663842113E+04  0.00000000000E+00 0. -1.
        -24    2    1    2    0    0 -0.87328613568E+02  0.11005116663E+02 -0.12329962827E+04  0.12387536611E+04  0.80519564861E+02 0.  0.
         25    2    1    2    0    0  0.89857755716E+02 -0.70485490183E+02  0.21272569364E+03  0.27192376642E+03  0.12509074076E+03 0.  0.
         24    2    1    2    0    0 -0.25291421474E+01  0.59480373519E+02  0.26926827069E+04  0.26945031130E+04  0.79136302838E+02 0.  0.
        -11    1    5    5    0    0 -0.27962985629E+02  0.66327115254E+02  0.18195217859E+04  0.18209450141E+04  0.00000000000E+00 0.  1.
         12    1    5    5    0    0  0.25433843481E+02 -0.68467417348E+01  0.87316092100E+03  0.87355809895E+03  0.00000000000E+00 0. -1.
         11    1    3    3    0    0 -0.76784339816E+02 -0.10122488516E+02 -0.55852779422E+03  0.56387196821E+03  0.00000000000E+00 0. -1.
        -12    1    3    3    0    0 -0.10544273752E+02  0.21127605180E+02 -0.67446848846E+03  0.67488169285E+03  0.00000000000E+00 0.  1.
          5    1    4    4  501    0 -0.23608360535E+02 -0.40125553557E+02  0.33147948344E+02  0.57303347327E+02  0.41800000000E+01 0. -1.
         -5    1    4    4    0  501  0.11346611625E+03 -0.30359936625E+02  0.17957774529E+03  0.21462041910E+03  0.41800000000E+01 0. -1.
</event>
<event>
11    1  0.8479398E-009  0.1615253E+03  0.7561462E-02  0.1085651E+00
         22   -1    0    0    0    0  0.00000000000E+00  0.00000000000E+00  0.37851997746E+03  0.37851997746E+03  0.00000000000E+00 0.  1.
         22   -1    0    0    0    0 -0.00000000000E+00 -0.00000000000E+00 -0.19684537004E+03  0.19684537004E+03  0.00000000000E+00 0.  1.
        -24    2    1    2    0    0 -0.40573709492E+02  0.10738013226E+02 -0.12115928283E+03  0.15171354414E+03  0.81091903596E+02 0.  0.
         25    2    1    2    0    0 -0.32069542455E+02  0.77765154448E+02  0.11231398016E+03  0.18798394874E+03  0.12509060734E+03 0.  0.
         24    2    1    2    0    0  0.72643251948E+02 -0.88503167674E+02  0.19051991009E+03  0.23566785463E+03  0.78304845472E+02 0.  0.
        -13    1    5    5    0    0  0.77922523350E+02 -0.61851336649E+02  0.18161071737E+03  0.20707476948E+03  0.00000000000E+00 0.  1.
         14    1    5    5    0    0 -0.52792714017E+01 -0.26651831026E+02  0.89091927136E+01  0.28593085150E+02  0.00000000000E+00 0. -1.
         13    1    3    3    0    0 -0.98027827561E+01  0.34004260477E+02 -0.14414747308E+02  0.38212160634E+02  0.00000000000E+00 0. -1.
        -14    1    3    3    0    0 -0.30770926736E+02 -0.23266247251E+02 -0.10674453552E+03  0.11350138350E+03  0.00000000000E+00 0.  1.
          5    1    4    4  501    0 -0.62608580152E+01  0.10693170330E+03  0.60696859932E+02  0.12318753476E+03  0.41800000000E+01 0.  1.
         -5    1    4    4    0  501 -0.25808684440E+02 -0.29166548852E+02  0.51617120227E+02  0.64796413982E+02  0.41800000000E+01 0.  1.
</event>
<event>
11    1  0.8479398E-009  0.1980353E+03  0.7561462E-02  0.1055922E+00
         22   -1    0    0    0    0  0.00000000000E+00  0.00000000000E+00  0.96961417132E+03  0.96961417132E+03  0.00000000000E+00 0.  1.
         22   -1    0    0    0    0 -0.00000000000E+00 -0.00000000000E+00 -0.54764201044E+03  0.54764201044E+03  0.00000000000E+00 0. -1.
        -24    2    1    2    0    0 -0.50217224529E+02 -0.15263695556E+03 -0.15262421272E+03  0.23512748164E+03  0.78555537499E+02 0.  0.
         25    2    1    2    0    0  0.68226645889E+02  0.13312618968E+03 -0.32475582860E+03  0.37880133373E+03  0.12508654858E+03 0.  0.
         24    2    1    2    0    0 -0.18009421360E+02  0.19510765877E+02  0.89935220220E+03  0.90332736639E+03  0.80379960358E+02 0.  0.
        -13    1    5    5    0    0 -0.42266085631E+01  0.23174795315E+02  0.87337651404E+03  0.87369415165E+03  0.00000000000E+00 0.  1.
         14    1    5    5    0    0 -0.13782812796E+02 -0.36640294380E+01  0.25975688161E+02  0.29633214739E+02  0.00000000000E+00 0. -1.
         13    1    3    3    0    0 -0.14226027196E+02  0.16508222570E+01 -0.34969162979E+02  0.37788191587E+02  0.00000000000E+00 0. -1.
        -14    1    3    3    0    0 -0.35991197333E+02 -0.15428777782E+03 -0.11765504974E+03  0.19733929005E+03  0.00000000000E+00 0.  1.
          5    1    4    4  501    0  0.25831056347E+01 -0.21000502564E+02 -0.13913841814E+02  0.25666338591E+02  0.41800000000E+01 0.  1.
         -5    1    4    4    0  501  0.65643540254E+02  0.15412669225E+03 -0.31084198679E+03  0.35313499514E+03  0.41800000000E+01 0.  1.
</event>
<event>
11    1  0.8479398E-009  0.1677491E+03  0.7561462E-02  0.1080007E+00
         22   -1    0    0    0    0  0.00000000000E+00  0.00000000000E+00  0.79517483591E+03  0.79517483591E+03  0.00000000000E+00 0.  1.
         22   -1    0    0    0    0 -0.00000000000E+00 -0.00000000000E+00 -0.41805542253E+03  0.41805542253E+03  0.00000000000E+00 0.  1.
        -24    2    1    2    0    0  0.76385636127E+02  0.24688238439E+02 -0.31133441681E+03  0.33135887191E+03  0.80158021273E+02 0.  0.
         25    2    1    2    0    0 -0.82513682991E+02 -0.13414557105E+03  0.22458392709E+02  0.20237387975E+03  0.12508903105E+03 0.  0.
         24    2    1    2    0    0  0.61280468642E+01  0.10945733261E+03  0.66599543748E+03  0.67949750678E+03  0.78412233488E+02 0.  0.
        -11    1    5    5    0    0 -0.24244113680E+02  0.99670584300E+02  0.52642686175E+03  0.53632755215E+03  0.00000000000E+00 0.  1.
         12    1    5    5    0    0  0.30372160544E+02  0.97867483094E+01  0.13956857573E+03  0.14316995464E+03  0.00000000000E+00 0. -1.
         11    1    3    3    0    0  0.60317139905E+02 -0.15587915363E+02 -0.12040748196E+03  0.13556954741E+03  0.00000000000E+00 0. -1.
        -12    1    3    3    0    0  0.16068496221E+02  0.40276153802E+02 -0.19092693485E+03  0.19578932450E+03  0.00000000000E+00 0.  1.
          5    1    4    4  501    0 -0.77131409615E+01 -0.84193364603E+02 -0.39157041844E+02  0.93267151306E+02  0.41800000000E+01 0. -1.
         -5    1    4    4    0  501 -0.74800542029E+02 -0.49952206445E+02  0.61615434553E+02  0.10910672844E+03  0.41800000000E+01 0. -1.
</event>
<event>
11    1  0.8479398E-009  0.1513957E+03  0.7561462E-02  0.1095461E+00
         22   -1    0    0    0    0  0.00000000000E+00  0.00000000000E+00  0.82977168356E+03  0.82977168356E+03  0.00000000000E+00 0.  1.
         22   -1    0    0    0    0 -0.00000000000E+00 -0.00000000000E+00 -0.18230864644E+03  0.18230864644E+03  0.00000000000E+00 0. -1.
        -24    2    1    2    0    0  0.64539936507E+02 -0.32551496473E+01 -0.13233181687E+03  0.16762164927E+03  0.80058154766E+02 0.  0.
         25    2    1    2    0    0 -0.13753814097E+03 -0.21215914139E+01  0.30311668901E+03  0.35559287825E+03  0.12508127974E+03 0.  0.
         24    2    1    2    0    0  0.72998204458E+02  0.53767410612E+01  0.47667816498E+03  0.48886580248E+03  0.80062804491E+02 0.  0.
        -13    1    5    5    0    0  0.11898866868E+02 -0.18264659816E+02  0.29379043190E+03  0.29459802903E+03  0.00000000000E+00 0.  1.
         14    1    5    5    0    0  0.61099337591E+02  0.23641400877E+02  0.18288773309E+03  0.19426777345E+03  0.00000000000E+00 0. -1.
         13    1    3    3    0    0  0.57226891424E+02 -0.26341315756E+02 -0.12848873503E+03  0.14310184152E+03  0.00000000000E+00 0. -1.
        -14    1    3    3    0    0  0.73130450832E+01  0.23086166109E+02 -0.38430818417E+01  0.24519807749E+02  0.00000000000E+00 0.  1.
          5    1    4    4  501    0 -0.12055325749E+03 -0.50377285195E+02  0.24756375207E+03  0.27995757267E+03  0.41800000000E+01 0. -1.
         -5    1    4    4    0  501 -0.16984883475E+02  0.48255693781E+02  0.55552936932E+02  0.75635305584E+02  0.41800000000E+01 0. -1.
</event>
<event>
11    1  0.8479398E-009  0.1289544E+03  0.7561462E-02  0.1120560E+00
         22   -1    0    0    0    0  0.00000000000E+00  0.00000000000E+00  0.22673843842E+03  0.22673843842E+03  0.00000000000E+00 0.  1.
         22   -1    0    0    0    0 -0.00000000000E+00 -0.00000000000E+00 -0.88958079495E+03  0.88958079495E+03  0.00000000000E+00 0.  1.
        -24    2    1    2    0    0 -0.20098989246E+02  0.22326461583E+02 -0.69212618109E+03  0.69737773901E+03  0.79966368351E+02 0.  0.
         25    2    1    2    0    0  0.15010295105E+02 -0.52326499809E+02 -0.16050755978E+03  0.21065008215E+03  0.12508960317E+03 0.  0.
         24    2    1    2    0    0  0.50886941412E+01  0.30000038226E+02  0.18979138434E+03  0.20829141220E+03  0.80241172241E+02 0.  0.
        -11    1    5    5    0    0 -0.32148149823E+02  0.31774666527E+02  0.13195106313E+03  0.13947837120E+03  0.00000000000E+00 0.  1.
         12    1    5    5    0    0  0.37236843964E+02 -0.17746283012E+01  0.57840321209E+02  0.68813040999E+02  0.00000000000E+00 0. -1.
         13    1    3    3    0    0 -0.15776570284E+02 -0.22193235279E+01 -0.24119856680E+02  0.28906626457E+02  0.00000000000E+00 0. -1.
        -14    1    3    3    0    0 -0.43224189616E+01  0.24545785111E+02 -0.66800632441E+03  0.66847111256E+03  0.00000000000E+00 0.  1.
          5    1    4    4  501    0 -0.31550831334E+02  0.27232453418E+02 -0.68832106978E+02  0.80575385994E+02  0.41800000000E+01 0.  1.
         -5    1    4    4    0  501  0.46561126438E+02 -0.79558953228E+02 -0.91675452806E+02  0.13007469616E+03  0.41800000000E+01 0.  1.
</event>
<event>
11    1  0.8479398E-009  0.1341502E+03  0.7561462E-02  0.1114272E+00
         22   -1    0    0    0    0  0.00000000000E+00  0.00000000000E+00  0.13279705894E+04  0.13279705894E+04  0.00000000000E+00 0.  1.
         22   -1    0    0    0    0 -0.00000000000E+00 -0.00000000000E+00 -0.62338306645E+03  0.62338306645E+03  0.00000000000E+00 0. -1.
        -24    2    1    2    0    0  0.12895167675E+02  0.27836230408E+02 -0.59480961251E+03  0.60091419450E+03  0.79738654035E+02 0.  0.
         25    2    1    2    0    0 -0.22095806858E+02 -0.71796101161E+02  0.21401582395E+03  0.25902588156E+03  0.12509488237E+03 0.  0.
         24    2    1    2    0    0  0.92006391839E+01  0.43959870753E+02  0.10853813115E+04  0.10914135798E+04  0.10542243029E+03 0.  0.
        -13    1    5    5    0    0  0.14619910198E+02 -0.26339882882E+02  0.61899662083E+03  0.61972925363E+03  0.00000000000E+00 0.  1.
         14    1    5    5    0    0 -0.54192710139E+01  0.70299753635E+02  0.46638469070E+03  0.47168432620E+03  0.00000000000E+00 0. -1.
         11    1    3    3    0    0  0.26139211914E+02  0.42862111453E+02 -0.22369207540E+03  0.22925654537E+03  0.00000000000E+00 0. -1.
        -12    1    3    3    0    0 -0.13244044239E+02 -0.15025881045E+02 -0.37111753710E+03  0.37165764913E+03  0.00000000000E+00 0.  1.
          5    1    4    4  501    0  0.11386388966E+02 -0.82929830670E+02  0.65645573620E+02  0.10646041708E+03  0.41800000000E+01 0.  1.
         -5    1    4    4    0  501 -0.33482195824E+02  0.11133729509E+02  0.14837025033E+03  0.15256546449E+03  0.41800000000E+01 0.  1.
</event>
<event>
11    1  0.8479398E-009  0.1306456E+03  0.7561462E-02  0.1118478E+00
         22   -1    0    0    0    0  0.00000000000E+00  0.00000000000E+00  0.27930979626E+03  0.27930979626E+03  0.00000000000E+00 0.  1.
         22   -1    0    0    0    0 -0.00000000000E+00 -0.00000000000E+00 -0.62893361057E+03  0.62893361057E+03  0.00000000000E+00 0.  1.
         24    2    1    2    0    0  0.30523595117E+02 -0.28731299757E+01 -0.55501277314E+03  0.56163109048E+03  0.80314125187E+02 0.  0.
         25    2    1    2    0    0 -0.90673262524E+01 -0.31018522487E+02  0.74266176540E+01  0.12940763872E+03  0.12508723823E+03 0.  0.
        -24    2    1    2    0    0 -0.21456268865E+02  0.33891652462E+02  0.19796234118E+03  0.21720467763E+03  0.79873449148E+02 0.  0.
        -13    1    3    3    0    0  0.28515791852E+02 -0.34694415947E+02 -0.43982519364E+03  0.44211203766E+03  0.00000000000E+00 0.  1.
         14    1    3    3    0    0  0.20078032650E+01  0.31821285971E+02 -0.11518757950E+03  0.11951905281E+03  0.00000000000E+00 0. -1.
         13    1    5    5    0    0  0.12736028022E+02 -0.17995080062E+02  0.24554482844E+02  0.32999271871E+02  0.00000000000E+00 0. -1.
        -14    1    5    5    0    0 -0.34192296887E+02  0.51886732525E+02  0.17340785834E+03  0.18420540576E+03  0.00000000000E+00 0.  1.
          5    1    4    4  501    0 -0.63815716359E+02 -0.24870018226E+02 -0.14205238392E+02  0.70072995218E+02  0.41800000000E+01 0.  1.
         -5    1    4    4    0  501  0.54748390107E+02 -0.61485042609E+01  0.21631856046E+02  0.59334643506E+02  0.41800000000E+01 0.  1.
</event>
<event>
11    1  0.8479398E-009  0.1661951E+03  0.7561462E-02  0.1081391E+00
         22   -1    0    0    0    0  0.00000000000E+00  0.00000000000E+00  0.89257747225E+03  0.89257747225E+03  0.00000000000E+00 0.  1.
         22   -1    0    0    0    0 -0.00000000000E+00 -0.00000000000E+00 -0.26314969848E+04  0.26314969848E+04  0.00000000000E+00 0. -1.
         24    2    1    2    0    0  0.62364458579E+02 -0.44445361218E+01 -0.25563571255E+04  0.25583788848E+04  0.80197787552E+02 0.  0.
         25    2    1    2    0    0 -0.37995753939E+02 -0.10359057191E+03  0.33710719669E+02  0.17017608410E+03  0.12509517605E+03 0.  0.
        -24    2    1    2    0    0 -0.24368704640E+02  0.10803510803E+03  0.78372689330E+03  0.79551948820E+03  0.79737033333E+02 0.  0.
        -11    1    3    3    0    0  0.19226088580E+02 -0.79415863685E+01 -0.13146478953E+03  0.13310034622E+03  0.00000000000E+00 0.  1.
         12    1    3    3    0    0  0.43138369999E+02  0.34970502467E+01 -0.24248923360E+04  0.24252785385E+04  0.00000000000E+00 0. -1.
         13    1    5    5    0    0  0.24661499286E+02  0.41824173189E+02  0.40718271027E+03  0.41006732442E+03  0.00000000000E+00 0. -1.
        -14    1    5    5    0    0 -0.49030203926E+02  0.66210934844E+02  0.37654418303E+03  0.38545216378E+03  0.00000000000E+00 0.  1.
          5    1    4    4  501    0 -0.32777451897E+02 -0.11153322242E+03 -0.17756301998E+02  0.11767234049E+03  0.41800000000E+01 0. -1.
         -5    1    4    4    0  501 -0.52183020420E+01  0.79426505100E+01  0.51467021666E+02  0.52503743605E+02  0.41800000000E+01 0. -1.
</event>
<event>
11    1  0.8479398E-009  0.1535182E+03  0.7561462E-02  0.1093337E+00
         22   -1    0    0    0    0  0.00000000000E+00  0.00000000000E+00  0.52761899067E+02  0.52761899067E+02  0.00000000000E+00 0.  1.
         22   -1    0    0    0    0 -0.00000000000E+00 -0.00000000000E+00 -0.18379588545E+04  0.18379588545E+04  0.00000000000E+00 0. -1.
         24    2    1    2    0    0 -0.65459007719E+02 -0.60109776804E+02 -0.14949291828E+04  0.14996458240E+04  0.78906708571E+02 0.  0.
         25    2    1    2    0    0  0.35771823111E+02  0.93173214006E+02 -0.23452843818E+03  0.28392169809E+03  0.12508825362E+03 0.  0.
        -24    2    1    2    0    0  0.29687184607E+02 -0.33063437203E+02 -0.55739334421E+02  0.10715323153E+03  0.80002636302E+02 0.  0.
        -13    1    3    3    0    0 -0.12057523521E+02 -0.64110450580E+02 -0.79714824338E+03  0.79981301294E+03  0.00000000000E+00 0.  1.
         14    1    3    3    0    0 -0.53401484198E+02  0.40006737767E+01 -0.69778093946E+03  0.69983281102E+03  0.00000000000E+00 0. -1.
         11    1    5    5    0    0  0.50815594084E+02 -0.11189684616E+02 -0.56398016720E+02  0.76734411667E+02  0.00000000000E+00 0. -1.
        -12    1    5    5    0    0 -0.21128409477E+02 -0.21873752587E+02  0.65868229877E+00  0.30418819859E+02  0.00000000000E+00 0.  1.
          5    1    4    4  501    0 -0.36226821803E+01  0.29797972947E+02 -0.19877408945E+03  0.20107126611E+03  0.41800000000E+01 0.  1.
         -5    1    4    4    0  501  0.39394505292E+02  0.63375241059E+02 -0.35754348734E+02  0.82850431983E+02  0.41800000000E+01 0.  1.
</event>
<event>
11    1  0.8479398E-009  0.1258500E+03  0.7561462E-02  0.1124476E+00
         22   -1    0    0    0    0  0.00000000000E+00  0.00000000000E+00  0.48471567841E+03  0.48471567841E+03  0.00000000000E+00 0. -1.
         22   -1    0    0    0    0 -0.00000000000E+00 -0.00000000000E+00 -0.28465845790E+03  0.28465845790E+03  0.00000000000E+00 0.  1.
        -24    2    1    2    0    0 -0.11022226048E+02 -0.48761704644E+01 -0.21696996959E+03  0.24021285078E+03  0.10237665491E+03 0.  0.
         25    2    1    2    0    0  0.74767823412E+01  0.35218571656E+02  0.30906639686E+02  0.13380291266E+03  0.12510695023E+03 0.  0.
         24    2    1    2    0    0  0.35454437064E+01 -0.30342401191E+02  0.38612055040E+03  0.39535837287E+03  0.79283870201E+02 0.  0.
        -11    1    5    5    0    0  0.19186839674E+02 -0.20164753606E+02  0.39979185479E+02  0.48714344666E+02  0.00000000000E+00 0.  1.
         12    1    5    5    0    0 -0.15641395968E+02 -0.10177647585E+02  0.34614136492E+03  0.34664402821E+03  0.00000000000E+00 0. -1.
         13    1    3    3    0    0  0.24230324291E+02 -0.15264357055E+02 -0.10506614922E+02  0.30504068068E+02  0.00000000000E+00 0. -1.
        -14    1    3    3    0    0 -0.35252550339E+02  0.10388186591E+02 -0.20646335466E+03  0.20970878271E+03  0.00000000000E+00 0.  1.
          5    1    4    4  501    0 -0.11438767771E+02 -0.15399733927E+02 -0.39997718626E+02  0.44556560779E+02  0.41800000000E+01 0. -1.
         -5    1    4    4    0  501  0.18915550112E+02  0.50618305582E+02  0.70904358313E+02  0.89246351880E+02  0.41800000000E+01 0. -1.
</event>
<event>
11    1  0.8479398E-009  0.1360351E+03  0.7561462E-02  0.1112068E+00
         22   -1    0    0    0    0  0.00000000000E+00  0.00000000000E+00  0.18570034298E+03  0.18570034298E+03  0.00000000000E+00 0. -1.
         22   -1    0    0    0    0 -0.00000000000E+00 -0.00000000000E+00 -0.26852790765E+04  0.26852790765E+04  0.00000000000E+00 0.  1.
         24    2    1    2    0    0  0.33877350693E+02  0.27238502025E+02 -0.25194281071E+04  0.25209316757E+04  0.75424900577E+02 0.  0.
         25    2    1    2    0    0  0.13791961092E+01 -0.67444275103E+02 -0.11558026800E+03  0.18318633415E+03  0.12509117572E+03 0.  0.
        -24    2    1    2    0    0 -0.35256546802E+02  0.40205773078E+02  0.13542964162E+03  0.16686140963E+03  0.81498551601E+02 0.  0.
        -13    1    3    3    0    0  0.83359281306E+01 -0.89673152460E+01 -0.18492183599E+04  0.18492588902E+04  0.00000000000E+00 0.  1.
         14    1    3    3    0    0  0.25541422562E+02  0.36205817271E+02 -0.67020974723E+03  0.67167278548E+03  0.00000000000E+00 0. -1.
         13    1    5    5    0    0 -0.20728989810E+02 -0.12303034691E+02  0.97603697939E+02  0.10053624984E+03  0.00000000000E+00 0. -1.
        -14    1    5    5    0    0 -0.14527556993E+02  0.52508807769E+02  0.37825943683E+02  0.66325159789E+02  0.00000000000E+00 0.  1.
          5    1    4    4  501    0 -0.59109396054E+02 -0.52626304942E+02 -0.57368771514E+02  0.97837094288E+02  0.41800000000E+01 0.  1.
         -5    1    4    4    0  501  0.60488592164E+02 -0.14817970161E+02 -0.58211496487E+02  0.85349239861E+02  0.41800000000E+01 0.  1.
</event>
<event>
11    1  0.8479398E-009  0.2455228E+03  0.7561462E-02  0.1026312E+00
         22   -1    0    0    0    0  0.00000000000E+00  0.00000000000E+00  0.18310875746E+04  0.18310875746E+04  0.00000000000E+00 0. -1.
         22   -1    0    0    0    0 -0.00000000000E+00 -0.00000000000E+00 -0.17452650519E+04  0.17452650519E+04  0.00000000000E+00 0.  1.
        -24    2    1    2    0    0 -0.91688166828E+02  0.36776890746E+02 -0.16611596961E+04  0.16661316621E+04  0.82364555272E+02 0.  0.
         25    2    1    2    0    0  0.25119363673E+03 -0.16060983204E+03  0.28142980956E+03  0.42865411378E+03  0.12509136769E+03 0.  0.
         24    2    1    2    0    0 -0.15950546990E+03  0.12383294129E+03  0.14655524093E+04  0.14815668506E+04  0.80124129433E+02 0.  0.
        -11    1    5    5    0    0 -0.50598596662E+02  0.43944299204E+02  0.77749163682E+03  0.78037463102E+03  0.00000000000E+00 0.  1.
         12    1    5    5    0    0 -0.10890687324E+03  0.79888642086E+02  0.68806077249E+03  0.70119221959E+03  0.00000000000E+00 0. -1.
         13    1    3    3    0    0 -0.52607921596E+02  0.74428604992E+01 -0.34519399190E+03  0.34925904660E+03  0.00000000000E+00 0. -1.
        -14    1    3    3    0    0 -0.39080245232E+02  0.29334030246E+02 -0.13159657042E+04  0.13168726155E+04  0.00000000000E+00 0.  1.
          5    1    4    4  501    0  0.36659568859E+02  0.16852655332E+02  0.62197638301E+02  0.74256007103E+02  0.41800000000E+01 0. -1.
         -5    1    4    4    0  501  0.21453406787E+03 -0.17746248737E+03  0.21923217126E+03  0.35439810668E+03  0.41800000000E+01 0. -1.
</event>
<event>
11    1  0.8479398E-009  0.2521930E+03  0.7561462E-02  0.1022737E+00
         22   -1    0    0    0    0  0.00000000000E+00  0.00000000000E+00  0.14189304674E+04  0.14189304674E+04  0.00000000000E+00 0.  1.
         22   -1    0    0    0    0 -0.00000000000E+00 -0.00000000000E+00 -0.35212189659E+04  0.35212189659E+04  0.00000000000E+00 0.  1.
        -24    2    1    2    0    0  0.11548028322E+03 -0.69802500994E+02 -0.33319842871E+04  0.33355870946E+04  0.76248876300E+02 0.  0.
         25    2    1    2    0    0 -0.10552492092E+03  0.28486438181E+03 -0.24502116848E+02  0.32943861325E+03  0.12508485603E+03 0.  0.
         24    2    1    2    0    0 -0.99553623015E+01 -0.21506188082E+03  0.12541979054E+04  0.12751237254E+04  0.81101216773E+02 0.  0.
        -11    1    5    5    0    0 -0.44725900862E+02 -0.14155084731E+03  0.84060470214E+03  0.85361192226E+03  0.00000000000E+00 0.  1.
         12    1    5    5    0    0  0.34770538561E+02 -0.73511033513E+02  0.41359320328E+03  0.42151180315E+03  0.00000000000E+00 0. -1.
         11    1    3    3    0    0 -0.41815542405E+01 -0.10352544987E+02 -0.71533066796E+02  0.72399172846E+02  0.00000000000E+00 0. -1.
        -12    1    3    3    0    0  0.11966183746E+03 -0.59449956007E+02 -0.32604512203E+04  0.32631879218E+04  0.00000000000E+00 0.  1.
          5    1    4    4  501    0 -0.19449853319E+02  0.12158058593E+03 -0.66633873579E+02  0.14006313282E+03  0.41800000000E+01 0.  1.
         -5    1    4    4    0  501 -0.86075067597E+02  0.16328379589E+03  0.42131756731E+02  0.18937548043E+03  0.41800000000E+01 0.  1.
</event>
<event>
11    1  0.8479398E-009  0.1309969E+03  0.7561462E-02  0.1118050E+00
         22   -1    0    0    0    0  0.00000000000E+00  0.00000000000E+00  0.71639766540E+03  0.71639766540E+03  0.00000000000E+00 0.  1.
         22   -1    0    0    0    0 -0.00000000000E+00 -0.00000000000E+00 -0.32560063194E+03  0.32560063194E+03  0.00000000000E+00 0.  1.
         24    2    1    2    0    0 -0.21589536251E+02  0.30898738986E+02 -0.26375258426E+03  0.27862013855E+03  0.81504084265E+02 0.  0.
         25    2    1    2    0    0  0.64781151370E+02 -0.20426122193E+02  0.44514836950E+02  0.14912366697E+03  0.12506987368E+03 0.  0.
        -24    2    1    2    0    0 -0.43191615119E+02 -0.10472616792E+02  0.61003478078E+03  0.61425449183E+03  0.56488544449E+02 0.  0.
        -11    1    3    3    0    0 -0.46148494820E+02 -0.27815039778E+01 -0.16675811400E+03  0.17304822716E+03  0.00000000000E+00 0.  1.
         12    1    3    3    0    0  0.24558958569E+02  0.33680242963E+02 -0.96994470259E+02  0.10557191138E+03  0.00000000000E+00 0. -1.
         11    1    5    5    0    0 -0.18984075675E+02  0.80676537616E+01  0.61384091276E+02  0.64757152719E+02  0.00000000000E+00 0. -1.
        -12    1    5    5    0    0 -0.24207539444E+02 -0.18540270554E+02  0.54865068950E+03  0.54949733911E+03  0.00000000000E+00 0.  1.
          5    1    4    4  501    0  0.91201589727E+02 -0.87279928612E+01  0.65899717184E+02  0.11293428599E+03  0.41800000000E+01 0. -1.
         -5    1    4    4    0  501 -0.26420438357E+02 -0.11698129332E+02 -0.21384880234E+02  0.36189380977E+02  0.41800000000E+01 0. -1.
</event>
<event>
11    1  0.8479398E-009  0.1586416E+03  0.7561462E-02  0.1088362E+00
         22   -1    0    0    0    0  0.00000000000E+00  0.00000000000E+00  0.14166628281E+04  0.14166628281E+04  0.00000000000E+00 0.  1.
         22   -1    0    0    0    0 -0.00000000000E+00 -0.00000000000E+00 -0.83360823280E+03  0.83360823280E+03  0.00000000000E+00 0.  1.
        -24    2    1    2    0    0  0.90825854297E+02  0.36175239569E+02 -0.78010326264E+03  0.79110819681E+03  0.87938017467E+02 0.  0.
         25    2    1    2    0    0 -0.52423580101E+02 -0.11252999890E+03  0.12629016005E+03  0.21681253353E+03  0.12508891944E+03 0.  0.
         24    2    1    2    0    0 -0.38402274195E+02  0.76354759331E+02  0.12368676979E+04  0.12423503306E+04  0.79296013927E+02 0.  0.
        -11    1    5    5    0    0 -0.44964283981E+02  0.41403067797E+02  0.10695496002E+04  0.10712947064E+04  0.00000000000E+00 0.  1.
         12    1    5    5    0    0  0.65620097856E+01  0.34951691534E+02  0.16731809778E+03  0.17105562416E+03  0.00000000000E+00 0. -1.
         11    1    3    3    0    0  0.20291035137E+02 -0.28798791079E+02 -0.18440528544E+03  0.18774026146E+03  0.00000000000E+00 0. -1.
        -12    1    3    3    0    0  0.70534819160E+02  0.64974030649E+02 -0.59569797720E+03  0.60336793535E+03  0.00000000000E+00 0.  1.
          5    1    4    4  501    0 -0.74905752858E+02 -0.66030123290E+02  0.24975148044E+02  0.10301494752E+03  0.41800000000E+01 0. -1.
         -5    1    4    4    0  501  0.22482172756E+02 -0.46499875611E+02  0.10131501200E+03  0.11379758600E+03  0.41800000000E+01 0. -1.
</event>
<event>
11    1  0.8479398E-009  0.1618318E+03  0.7561462E-02  0.1085367E+00
         22   -1    0    0    0    0  0.00000000000E+00  0.00000000000E+00  0.80446665273E+03  0.80446665273E+03  0.00000000000E+00 0.  1.
         22   -1    0    0    0    0 -0.00000000000E+00 -0.00000000000E+00 -0.11621665510E+03  0.11621665510E+03  0.00000000000E+00 0. -1.
        -24    2    1    2    0    0  0.25815390905E+02  0.88622880948E+02 -0.21748013364E+02  0.12379023609E+03  0.79565049054E+02 0.  0.
         25    2    1    2    0    0 -0.55919425548E+02 -0.14681347624E+03  0.22822817905E+03  0.30400308689E+03  0.12509434905E+03 0.  0.
         24    2    1    2    0    0  0.30104034644E+02  0.58190595297E+02  0.48176983194E+03  0.49288998485E+03  0.80907156136E+02 0.  0.
        -11    1    5    5    0    0 -0.40750725060E+01  0.53695938555E+02  0.40710359542E+03  0.41064972597E+03  0.00000000000E+00 0.  1.
         12    1    5    5    0    0  0.34179107150E+02  0.44946567411E+01  0.74666236516E+02  0.82240258877E+02  0.00000000000E+00 0. -1.
         13    1    3    3    0    0  0.50956024554E+02  0.79704742823E+02 -0.21948896162E+02  0.97113935713E+02  0.00000000000E+00 0. -1.
        -14    1    3    3    0    0 -0.25140633650E+02  0.89181381244E+01  0.20088279795E+00  0.26676300377E+02  0.00000000000E+00 0.  1.
          5    1    4    4  501    0 -0.13824032807E+02  0.12739417800E+02  0.79558366554E+02  0.81855987794E+02  0.41800000000E+01 0.  1.
         -5    1    4    4    0  501 -0.42095392741E+02 -0.15955289404E+03  0.14866981250E+03  0.22214709909E+03  0.41800000000E+01 0.  1.
</event>
<event>
11    1  0.8479398E-009  0.3015420E+03  0.7561462E-02  0.9995407E-01
         22   -1    0    0    0    0  0.00000000000E+00  0.00000000000E+00  0.45557979773E+03  0.45557979773E+03  0.00000000000E+00 0. -1.
         22   -1    0    0    0    0 -0.00000000000E+00 -0.00000000000E+00 -0.92599845554E+03  0.92599845554E+03  0.00000000000E+00 0. -1.
         24    2    1    2    0    0 -0.20901013272E+03 -0.26542735410E+02 -0.21148978919E+03  0.30901700092E+03  0.79836229551E+02 0.  0.
         25    2    1    2    0    0  0.33036501663E+03  0.92138226984E+02 -0.59637560143E+03  0.69924381088E+03  0.12509017539E+03 0.  0.
        -24    2    1    2    0    0 -0.12135488392E+03 -0.65595491574E+02  0.33744673281E+03  0.37331744147E+03  0.80410436247E+02 0.  0.
        -13    1    3    3    0    0 -0.42204661021E+02 -0.26877853868E+02 -0.17119196066E+02  0.52884017571E+02  0.00000000000E+00 0.  1.
         14    1    3    3    0    0 -0.16680547169E+03  0.33511845727E+00 -0.19437059312E+03  0.25613298335E+03  0.00000000000E+00 0. -1.
         13    1    5    5    0    0 -0.26092740539E+02  0.76331914313E+01  0.13655185462E+03  0.13923184162E+03  0.00000000000E+00 0. -1.
        -14    1    5    5    0    0 -0.95262143376E+02 -0.73228683005E+02  0.20089487819E+03  0.23408559985E+03  0.00000000000E+00 0.  1.
          5    1    4    4  501    0  0.14301068477E+03 -0.21840020034E+02 -0.26276898380E+03  0.29999008931E+03  0.41800000000E+01 0.  1.
         -5    1    4    4    0  501  0.18735433186E+03  0.11397824702E+03 -0.33360661763E+03  0.39925372157E+03  0.41800000000E+01 0.  1.
</event>
<event>
11    1  0.8479398E-009  0.1596798E+03  0.7561462E-02  0.1087379E+00
         22   -1    0    0    0    0  0.00000000000E+00  0.00000000000E+00  0.50908805148E+03  0.50908805148E+03  0.00000000000E+00 0. -1.
         22   -1    0    0    0    0 -0.00000000000E+00 -0.00000000000E+00 -0.79371150958E+03  0.79371150958E+03  0.00000000000E+00 0.  1.
        -24    2    1    2    0    0 -0.90802625913E+02 -0.47104705506E+02 -0.72062436709E+03  0.73227074422E+03  0.80355424462E+02 0.  0.
         25    2    1    2    0    0  0.73152769666E+02 -0.34775645856E+02  0.34747014091E+02  0.15302115372E+03  0.12508974875E+03 0.  0.
         24    2    1    2    0    0  0.17649856248E+02  0.81880351362E+02  0.40125389490E+03  0.41750766312E+03  0.79322450977E+02 0.  0.
        -13    1    5    5    0    0  0.29357084914E+02  0.44386324922E+01  0.54959347761E+02  0.62466549444E+02  0.00000000000E+00 0.  1.
         14    1    5    5    0    0 -0.11707228666E+02  0.77441718870E+02  0.34629454714E+03  0.35504111368E+03  0.00000000000E+00 0. -1.
         13    1    3    3    0    0 -0.10125514028E+02  0.51293061299E+01 -0.98522269945E+01  0.15030042996E+02  0.00000000000E+00 0. -1.
        -14    1    3    3    0    0 -0.80677111885E+02 -0.52234011636E+02 -0.71077214009E+03  0.71724070122E+03  0.00000000000E+00 0.  1.
          5    1    4    4  501    0 -0.31265973721E+02  0.75985413893E+01  0.22730106892E+02  0.39616020791E+02  0.41800000000E+01 0. -1.
         -5    1    4    4    0  501  0.10441874339E+03 -0.42374187246E+02  0.12016907198E+02  0.11340513293E+03  0.41800000000E+01 0. -1.
</event>
<event>
11    1  0.9168323E-009  0.2006361E+03  0.7561462E-02  0.1054075E+00
         22   -1    0    0    0    0  0.00000000000E+00  0.00000000000E+00  0.15936799988E+04  0.15936799988E+04  0.00000000000E+00 0.  1.
         22   -1    0    0    0    0 -0.00000000000E+00 -0.00000000000E+00 -0.26262175018E+03  0.26262175018E+03  0.00000000000E+00 0. -1.
        -24    2    1    2    0    0 -0.25175006650E+02  0.23752741001E+02 -0.15899151335E+03  0.18176977116E+03  0.81018360430E+02 0.  0.
         25    2    1    2    0    0  0.51146006157E+02 -0.17685812798E+03  0.55368797593E+02  0.22936401241E+03  0.12508970806E+03 0.  0.
         24    2    1    2    0    0 -0.25970999507E+02  0.15310538698E+03  0.14346809643E+04  0.14451679654E+04  0.78007860977E+02 0.  0.
        -13    1    5    5    0    0 -0.11254401076E+01  0.14823933104E+03  0.11982260026E+04  0.12073614700E+04  0.00000000000E+00 0.  1.
         14    1    5    5    0    0 -0.24845559399E+02  0.48660559446E+01  0.23645496169E+03  0.23780649535E+03  0.00000000000E+00 0. -1.
         13    1    3    3    0    0  0.91725851788E+01  0.94198142318E+01 -0.13881144396E+03  0.13943273000E+03  0.00000000000E+00 0. -1.
        -14    1    3    3    0    0 -0.34347591829E+02  0.14332926769E+02 -0.20180069382E+02  0.42337041164E+02  0.00000000000E+00 0.  1.
          5    1    4    4  501    0  0.86740692965E+02 -0.15709319392E+03  0.57208712782E+02  0.18839460876E+03  0.41800000000E+01 0. -1.
         -5    1    4    4    0  501 -0.35594686808E+02 -0.19764934065E+02 -0.18399151889E+01  0.40969403651E+02  0.41800000000E+01 0. -1.
</event>
<event>
11    1  0.8479398E-009  0.1316197E+03  0.7561462E-02  0.1117295E+00
         22   -1    0    0    0    0  0.00000000000E+00  0.00000000000E+00  0.23068534432E+03  0.23068534432E+03  0.00000000000E+00 0. -1.
         22   -1    0    0    0    0 -0.00000000000E+00 -0.00000000000E+00 -0.43817884107E+03  0.43817884107E+03  0.00000000000E+00 0. -1.
         24    2    1    2    0    0 -0.15143783978E+01  0.24807305005E+02 -0.34754388209E+03  0.35826729082E+03  0.83372693190E+02 0.  0.
         25    2    1    2    0    0  0.20403412649E+02  0.14992853772E+02 -0.17038427027E+02  0.12876141719E+03  0.12509240444E+03 0.  0.
        -24    2    1    2    0    0 -0.18889034251E+02 -0.39800158777E+02  0.15708881236E+03  0.18183547738E+03  0.80289461386E+02 0.  0.
        -11    1    3    3    0    0 -0.22856898208E+02 -0.18299788260E+02 -0.60405197113E+02  0.67127549369E+02  0.00000000000E+00 0.  1.
         12    1    3    3    0    0  0.21342519811E+02  0.43107093265E+02 -0.28713868498E+03  0.29113974145E+03  0.00000000000E+00 0. -1.
         13    1    5    5    0    0  0.12290762543E+02 -0.15776254253E+02  0.13544946337E+03  0.13691789572E+03  0.00000000000E+00 0. -1.
        -14    1    5    5    0    0 -0.31179796794E+02 -0.24023904524E+02  0.21639348992E+02  0.44917581652E+02  0.00000000000E+00 0.  1.
          5    1    4    4  501    0 -0.13166300802E+02  0.85696362391E+01 -0.66520298393E+02  0.68477825903E+02  0.41800000000E+01 0. -1.
         -5    1    4    4    0  501  0.33569713451E+02  0.64232175333E+01  0.49481871366E+02  0.60283591288E+02  0.41800000000E+01 0. -1.
</event>
<event>
11    1  0.8479398E-009  0.1497963E+03  0.7561462E-02  0.1097087E+00
         22   -1    0    0    0    0  0.00000000000E+00  0.00000000000E+00  0.59030573031E+03  0.59030573031E+03  0.00000000000E+00 0. -1.
         22   -1    0    0    0    0 -0.00000000000E+00 -0.00000000000E+00 -0.94300779902E+02  0.94300779902E+02  0.00000000000E+00 0. -1.
        -24    2    1    2    0    0  0.10743575484E+02  0.43911365603E+02 -0.26790935687E+02  0.95532713757E+02  0.79781656535E+02 0.  0.
         25    2    1    2    0    0 -0.47317152496E+02  0.43633452434E+02  0.21140199116E+03  0.25393235239E+03  0.12509215257E+03 0.  0.
         24    2    1    2    0    0  0.36573577013E+02 -0.87544818037E+02  0.31139389493E+03  0.33514144406E+03  0.79698858361E+02 0.  0.
        -13    1    5    5    0    0 -0.14981236764E+02 -0.27418989305E+02  0.31942023817E+02  0.44682561643E+02  0.00000000000E+00 0.  1.
         14    1    5    5    0    0  0.51554813776E+02 -0.60125828732E+02  0.27945187111E+03  0.29045888241E+03  0.00000000000E+00 0. -1.
         11    1    3    3    0    0  0.36376638261E+02  0.43814614760E+02 -0.37032439723E+02  0.67929241638E+02  0.00000000000E+00 0. -1.
        -12    1    3    3    0    0 -0.25633062777E+02  0.96750843023E-01  0.10241504036E+02  0.27603472118E+02  0.00000000000E+00 0.  1.
          5    1    4    4  501    0 -0.14463936232E+02 -0.32942503689E+02  0.13843627298E+03  0.14309607988E+03  0.41800000000E+01 0. -1.
         -5    1    4    4    0  501 -0.32853216264E+02  0.76575956123E+02  0.72965718176E+02  0.11083627251E+03  0.41800000000E+01 0. -1.
</event>
<event>
11    1  0.8479398E-009  0.1848007E+03  0.7561462E-02  0.1065824E+00
         22   -1    0    0    0    0  0.00000000000E+00  0.00000000000E+00  0.69955592374E+03  0.69955592374E+03  0.00000000000E+00 0.  1.
         22   -1    0    0    0    0 -0.00000000000E+00 -0.00000000000E+00 -0.86846136411E+03  0.86846136411E+03  0.00000000000E+00 0. -1.
        -24    2    1    2    0    0 -0.25401787939E+02 -0.16276566984E+02 -0.82359120393E+03  0.82805866211E+03  0.80426980868E+02 0.  0.
         25    2    1    2    0    0 -0.37185879068E+02 -0.11667737836E+03  0.29363547810E+03  0.34185649138E+03  0.12509063306E+03 0.  0.
         24    2    1    2    0    0  0.62587667007E+02  0.13295394534E+03  0.36105028546E+03  0.39810213436E+03  0.80833366299E+02 0.  0.
        -11    1    5    5    0    0  0.44683437265E+02  0.14056784555E+03  0.32994352189E+03  0.36141203135E+03  0.00000000000E+00 0.  1.
         12    1    5    5    0    0  0.17904229742E+02 -0.76139002053E+01  0.31106763569E+02  0.36690103008E+02  0.00000000000E+00 0. -1.
         11    1    3    3    0    0 -0.13535159748E+02 -0.34928531258E+02 -0.75634203035E+03  0.75726908673E+03  0.00000000000E+00 0. -1.
        -12    1    3    3    0    0 -0.11866628191E+02  0.18651964275E+02 -0.67249173579E+02  0.70789575384E+02  0.00000000000E+00 0.  1.
          5    1    4    4  501    0  0.45773206462E+02 -0.49002622875E+02  0.98303322170E+02  0.11906913550E+03  0.41800000000E+01 0. -1.
         -5    1    4    4    0  501 -0.82959085531E+02 -0.67674755482E+02  0.19533215593E+03  0.22278735588E+03  0.41800000000E+01 0. -1.
</event>
<event>
11    1  0.8479398E-009  0.2064214E+03  0.7561462E-02  0.1050073E+00
         22   -1    0    0    0    0  0.00000000000E+00  0.00000000000E+00  0.13498448227E+04  0.13498448227E+04  0.00000000000E+00 0.  1.
         22   -1    0    0    0    0 -0.00000000000E+00 -0.00000000000E+00 -0.15777370228E+03  0.15777370228E+03  0.00000000000E+00 0. -1.
         24    2    1    2    0    0 -0.95164395755E+02  0.13817062904E+03 -0.73930700711E+02  0.20062230009E+03  0.81462714398E+02 0.  0.
         25    2    1    2    0    0  0.51836742411E+02 -0.12935355945E+03  0.47761689240E+03  0.51301646635E+03  0.12509439489E+03 0.  0.
        -24    2    1    2    0    0  0.43327653344E+02 -0.88170695884E+01  0.78838492871E+03  0.79397975853E+03  0.83054409080E+02 0.  0.
        -11    1    3    3    0    0  0.66148798661E+01  0.45554298244E+02 -0.34338390821E+02  0.57428876085E+02  0.00000000000E+00 0.  1.
         12    1    3    3    0    0 -0.10177927562E+03  0.92616330797E+02 -0.39592309890E+02  0.14319342401E+03  0.00000000000E+00 0. -1.
         13    1    5    5    0    0  0.16586213654E+02  0.32189741699E+02  0.17867266190E+03  0.18230524420E+03  0.00000000000E+00 0. -1.
        -14    1    5    5    0    0  0.26741439689E+02 -0.41006811288E+02  0.60971226682E+03  0.61167451433E+03  0.00000000000E+00 0.  1.
          5    1    4    4  501    0  0.57867292537E+02 -0.76813915200E+02  0.13211238701E+03  0.16346301207E+03  0.41800000000E+01 0.  1.
         -5    1    4    4    0  501 -0.60305501261E+01 -0.52539644253E+02  0.34550450540E+03  0.34955345428E+03  0.41800000000E+01 0.  1.
</event>
<event>
11    1  0.8479398E-009  0.1393797E+03  0.7561462E-02  0.1108253E+00
         22   -1    0    0    0    0  0.00000000000E+00  0.00000000000E+00  0.10287121099E+03  0.10287121099E+03  0.00000000000E+00 0. -1.
         22   -1    0    0    0    0 -0.00000000000E+00 -0.00000000000E+00 -0.15518910295E+04  0.15518910295E+04  0.00000000000E+00 0. -1.
         24    2    1    2    0    0 -0.41725955000E+02 -0.17465389081E+02 -0.67709520545E+03  0.68287413459E+03  0.76243500201E+02 0.  0.
         25    2    1    2    0    0  0.47540769882E+02 -0.44045586698E+02 -0.83927698017E+03  0.85102549027E+03  0.12513351724E+03 0.  0.
        -24    2    1    2    0    0 -0.58148148823E+01  0.61510975779E+02  0.67352367094E+02  0.12086261563E+03  0.79082351323E+02 0.  0.
        -11    1    3    3    0    0  0.19018128672E+02 -0.34697438085E+01 -0.71101025846E+02  0.73682319566E+02  0.00000000000E+00 0.  1.
         12    1    3    3    0    0 -0.60744083672E+02 -0.13995645273E+02 -0.60599417960E+03  0.60919181503E+03  0.00000000000E+00 0. -1.
         13    1    5    5    0    0 -0.35389704324E+02  0.61179254637E+02  0.44967961688E+02  0.83770221131E+02  0.00000000000E+00 0. -1.
        -14    1    5    5    0    0  0.29574889441E+02  0.33172114261E+00  0.22384405407E+02  0.37092394501E+02  0.00000000000E+00 0.  1.
          5    1    4    4  501    0  0.28322129321E+02  0.42984710751E+02 -0.29691560308E+03  0.30137381459E+03  0.41800000000E+01 0. -1.
         -5    1    4    4    0  501  0.19218640561E+02 -0.87030297449E+02 -0.54236137709E+03  0.54965167568E+03  0.41800000000E+01 0. -1.
</event>
<event>
11    1  0.8479398E-009  0.1332912E+03  0.7561462E-02  0.1115290E+00
         22   -1    0    0    0    0  0.00000000000E+00  0.00000000000E+00  0.11175152134E+03  0.11175152134E+03  0.00000000000E+00 0.  1.
         22   -1    0    0    0    0 -0.00000000000E+00 -0.00000000000E+00 -0.23350175010E+04  0.23350175010E+04  0.00000000000E+00 0.  1.
         24    2    1    2    0    0  0.17659810892E+02  0.45040301425E+02 -0.19268433904E+04  0.19291746963E+04  0.81541767508E+02 0.  0.
         25    2    1    2    0    0  0.14164832380E+02 -0.30658475259E+02 -0.37652412184E+03  0.39819661538E+03  0.12509814381E+03 0.  0.
        -24    2    1    2    0    0 -0.31824643271E+02 -0.14381826166E+02  0.80101532631E+02  0.11939771068E+03  0.81362847431E+02 0.  0.
        -13    1    3    3    0    0  0.41602101206E+02  0.59766630953E+01 -0.56512553719E+03  0.56668626956E+03  0.00000000000E+00 0.  1.
         14    1    3    3    0    0 -0.23942290314E+02  0.39063638330E+02 -0.13617178532E+04  0.13624884267E+04  0.00000000000E+00 0. -1.
         13    1    5    5    0    0  0.38671596296E+01 -0.40887476433E+02  0.23138264485E+02  0.47139367158E+02  0.00000000000E+00 0. -1.
        -14    1    5    5    0    0 -0.35691802901E+02  0.26505650267E+02  0.56963268146E+02  0.72258343520E+02  0.00000000000E+00 0.  1.
          5    1    4    4  501    0 -0.35180740678E+02  0.31168600582E+02 -0.18530874161E+03  0.19122230073E+03  0.41800000000E+01 0.  1.
         -5    1    4    4    0  501  0.49345573057E+02 -0.61827075841E+02 -0.19121538023E+03  0.20697431465E+03  0.41800000000E+01 0.  1.
</event>
<event>
11    1  0.8479398E-009  0.1492242E+03  0.7561462E-02  0.1097674E+00
         22   -1    0    0    0    0  0.00000000000E+00  0.00000000000E+00  0.53130291919E+03  0.53130291919E+03  0.00000000000E+00 0. -1.
         22   -1    0    0    0    0 -0.00000000000E+00 -0.00000000000E+00 -0.54113715913E+03  0.54113715913E+03  0.00000000000E+00 0. -1.
        -24    2    1    2    0    0  0.75234671620E+02 -0.24237986992E+02 -0.44580536473E+03  0.45971533432E+03  0.79674522702E+02 0.  0.
         25    2    1    2    0    0 -0.94799318109E+02  0.63641546907E+02  0.20099604133E+01  0.16936943963E+03  0.12507921464E+03 0.  0.
         24    2    1    2    0    0  0.19564646489E+02 -0.39403559916E+02  0.43396116437E+03  0.44335530436E+03  0.79411698098E+02 0.  0.
        -11    1    5    5    0    0  0.30394775368E+02 -0.46242695665E+02  0.16388355102E+03  0.17297412398E+03  0.00000000000E+00 0.  1.
         12    1    5    5    0    0 -0.10830128878E+02  0.68391357492E+01  0.27007761335E+03  0.27038118038E+03  0.00000000000E+00 0. -1.
         13    1    3    3    0    0  0.40385804967E+02 -0.83273450904E+01 -0.38912012369E+03  0.39129889928E+03  0.00000000000E+00 0. -1.
        -14    1    3    3    0    0  0.34848866653E+02 -0.15910641901E+02 -0.56685241040E+02  0.68416435046E+02  0.00000000000E+00 0.  1.
          5    1    4    4  501    0 -0.95941400258E+02  0.22787718854E+02  0.46247965581E+02  0.10899715196E+03  0.41800000000E+01 0. -1.
         -5    1    4    4    0  501  0.11420821486E+01  0.40853828053E+02 -0.44238005168E+02  0.60372287678E+02  0.41800000000E+01 0. -1.
</event>
<event>
11    1  0.8479398E-009  0.1939115E+03  0.7561462E-02  0.1058915E+00
         22   -1    0    0    0    0  0.00000000000E+00  0.00000000000E+00  0.62822270163E+03  0.62822270163E+03  0.00000000000E+00 0. -1.
         22   -1    0    0    0    0 -0.00000000000E+00 -0.00000000000E+00 -0.29463713572E+03  0.29463713572E+03  0.00000000000E+00 0. -1.
         24    2    1    2    0    0 -0.28339203291E+02 -0.58310537712E+01 -0.19794128309E+03  0.21549991616E+03  0.80139570015E+02 0.  0.
         25    2    1    2    0    0 -0.63585264460E+02 -0.11488280277E+03  0.38517506742E+02  0.18539567378E+03  0.12508722277E+03 0.  0.
        -24    2    1    2    0    0  0.91924467751E+02  0.12071385654E+03  0.49300934225E+03  0.52196424741E+03  0.79790482458E+02 0.  0.
        -11    1    3    3    0    0 -0.45054816639E+02 -0.72833783419E+01 -0.54524051953E+02  0.71104545170E+02  0.00000000000E+00 0.  1.
         12    1    3    3    0    0  0.16715613348E+02  0.14523245707E+01 -0.14341723114E+03  0.14439537099E+03  0.00000000000E+00 0. -1.
         11    1    5    5    0    0  0.94175535805E+02  0.75338149059E+02  0.40958250275E+03  0.42696919656E+03  0.00000000000E+00 0. -1.
        -12    1    5    5    0    0 -0.22510680543E+01  0.45375707484E+02  0.83426839499E+02  0.94995050849E+02  0.00000000000E+00 0.  1.
          5    1    4    4  501    0 -0.58974907627E+02 -0.13095817870E+03  0.61811772891E+02  0.15641691713E+03  0.41800000000E+01 0. -1.
         -5    1    4    4    0  501 -0.46103568327E+01  0.16075375926E+02 -0.23294266148E+02  0.28978756645E+02  0.41800000000E+01 0. -1.
</event>
<event>
11    1  0.8479398E-009  0.1467343E+03  0.7561462E-02  0.1100263E+00
         22   -1    0    0    0    0  0.00000000000E+00  0.00000000000E+00  0.10473937330E+04  0.10473937330E+04  0.00000000000E+00 0. -1.
         22   -1    0    0    0    0 -0.00000000000E+00 -0.00000000000E+00 -0.11342070053E+04  0.11342070053E+04  0.00000000000E+00 0. -1.
         24    2    1    2    0    0  0.17961522873E+02  0.39419930007E+02 -0.10207139880E+04  0.10253906011E+04  0.87705714026E+02 0.  0.
         25    2    1    2    0    0  0.14103344288E+02  0.31626187558E+02 -0.68976091373E+02  0.14698126441E+03  0.12508665335E+03 0.  0.
        -24    2    1    2    0    0 -0.32064867160E+02 -0.71046117564E+02  0.10028768072E+04  0.10092288728E+04  0.81886023106E+02 0.  0.
        -13    1    3    3    0    0  0.72648810842E+01 -0.26757439155E+02 -0.42814604712E+03  0.42904286116E+03  0.00000000000E+00 0.  1.
         14    1    3    3    0    0  0.10696641788E+02  0.66177369162E+02 -0.59256794093E+03  0.59634773996E+03  0.00000000000E+00 0. -1.
         11    1    5    5    0    0 -0.38202059252E+02 -0.80701998598E+02  0.64293210380E+03  0.64910238022E+03  0.00000000000E+00 0. -1.
        -12    1    5    5    0    0  0.61371920920E+01  0.96558810339E+01  0.35994470337E+03  0.36012649256E+03  0.00000000000E+00 0.  1.
          5    1    4    4  501    0 -0.45708788714E+01  0.11784131462E+02  0.36033271592E+02  0.38413900474E+02  0.41800000000E+01 0.  1.
         -5    1    4    4    0  501  0.18674223159E+02  0.19842056095E+02 -0.10500936297E+03  0.10856736393E+03  0.41800000000E+01 0.  1.
</event>
<event>
11    1  0.8479398E-009  0.1310029E+03  0.7561462E-02  0.1118043E+00
         22   -1    0    0    0    0  0.00000000000E+00  0.00000000000E+00  0.14343083727E+04  0.14343083727E+04  0.00000000000E+00 0. -1.
         22   -1    0    0    0    0 -0.00000000000E+00 -0.00000000000E+00 -0.26211214373E+03  0.26211214373E+03  0.00000000000E+00 0.  1.
         24    2    1    2    0    0  0.15899302427E+02  0.19906430648E+02 -0.24359268189E+03  0.25769349198E+03  0.80121703280E+02 0.  0.
         25    2    1    2    0    0  0.25956118761E+02 -0.17489143030E+02  0.43616549382E+03  0.45482689364E+03  0.12509026723E+03 0.  0.
        -24    2    1    2    0    0 -0.41855421188E+02 -0.24172876185E+01  0.97962341702E+03  0.98390013078E+03  0.81484407233E+02 0.  0.
        -13    1    3    3    0    0  0.37351941954E+02  0.19090665685E+02 -0.22622088542E+03  0.23007718288E+03  0.00000000000E+00 0.  1.
         14    1    3    3    0    0 -0.21452639527E+02  0.81576496389E+00 -0.17371796472E+02  0.27616309091E+02  0.00000000000E+00 0. -1.
         11    1    5    5    0    0 -0.30322392723E+02  0.23716592811E+02  0.86194824466E+03  0.86280745288E+03  0.00000000000E+00 0. -1.
        -12    1    5    5    0    0 -0.11533028464E+02 -0.26133880430E+02  0.11767517236E+03  0.12109267790E+03  0.00000000000E+00 0.  1.
          5    1    4    4  501    0 -0.58505356674E+01 -0.60381871474E+02  0.12409038908E+03  0.13818862555E+03  0.41800000000E+01 0. -1.
         -5    1    4    4    0  501  0.31806654428E+02  0.42892728444E+02  0.31207510475E+03  0.31663826809E+03  0.41800000000E+01 0. -1.
</event>
<event>
11    1  0.8479398E-009  0.1341538E+03  0.7561462E-02  0.1114268E+00
         22   -1    0    0    0    0  0.00000000000E+00  0.00000000000E+00  0.50961334447E+03  0.50961334447E+03  0.00000000000E+00 0. -1.
         22   -1    0    0    0    0 -0.00000000000E+00 -0.00000000000E+00 -0.33094429754E+03  0.33094429754E+03  0.00000000000E+00 0. -1.
        -24    2    1    2    0    0  0.27318071236E+02  0.40687035855E+02 -0.29675077077E+03  0.31149725733E+03  0.81042022886E+02 0.  0.
         25    2    1    2    0    0 -0.21002500454E+02 -0.27656983397E+02  0.16721032996E+03  0.21169126816E+03  0.12509150576E+03 0.  0.
         24    2    1    2    0    0 -0.63155707826E+01 -0.13030052458E+02  0.30820948774E+03  0.31736911651E+03  0.74299388154E+02 0.  0.
        -11    1    5    5    0    0 -0.10761046833E+02 -0.85495888594E+01  0.58391180059E+01  0.14932879752E+02  0.00000000000E+00 0.  1.
         12    1    5    5    0    0  0.44454760500E+01 -0.44804635987E+01  0.30237036973E+03  0.30243623676E+03  0.00000000000E+00 0. -1.
         13    1    3    3    0    0  0.17685817247E+02 -0.98458362053E+01 -0.20748048194E+03  0.20846553434E+03  0.00000000000E+00 0. -1.
        -14    1    3    3    0    0  0.96322539897E+01  0.50532872061E+02 -0.89270288826E+02  0.10303172299E+03  0.00000000000E+00 0.  1.
          5    1    4    4  501    0  0.43523850447E+02 -0.32675927089E+02  0.11886422763E+03  0.13079838981E+03  0.41800000000E+01 0. -1.
         -5    1    4    4    0  501 -0.64526350900E+02  0.50189436921E+01  0.48346102335E+02  0.80892878347E+02  0.41800000000E+01 0. -1.
</event>
<event>
11    1  0.8479398E-009  0.1303187E+03  0.7561462E-02  0.1118878E+00
         22   -1    0    0    0    0  0.00000000000E+00  0.00000000000E+00  0.22486272035E+04  0.22486272035E+04  0.00000000000E+00 0. -1.
         22   -1    0    0    0    0 -0.00000000000E+00 -0.00000000000E+00 -0.39200923003E+03  0.39200923003E+03  0.00000000000E+00 0.  1.
        -24    2    1    2    0    0  0.13134830470E+02  0.32376186739E+02 -0.33416790234E+03  0.34553732159E+03  0.80666674783E+02 0.  0.
         25    2    1    2    0    0 -0.28347123529E+02 -0.57106119664E+02  0.44726153910E+02  0.14735287667E+03  0.12509105925E+03 0.  0.
         24    2    1    2    0    0  0.15212293058E+02  0.24729932925E+02  0.21460597219E+04  0.21477462353E+04  0.79991110098E+02 0.  0.
        -11    1    5    5    0    0  0.86204592834E+01 -0.27948682220E+02  0.52173896221E+03  0.52255811719E+03  0.00000000000E+00 0.  1.
         12    1    5    5    0    0  0.65918337751E+01  0.52678615145E+02  0.16243207597E+04  0.16251881181E+04  0.00000000000E+00 0. -1.
         11    1    3    3    0    0 -0.31925641889E+02  0.96924485406E+00 -0.14951458251E+03  0.15288818276E+03  0.00000000000E+00 0. -1.
        -12    1    3    3    0    0  0.45060472359E+02  0.31406941884E+02 -0.18465331983E+03  0.19264913883E+03  0.00000000000E+00 0.  1.
          5    1    4    4  501    0 -0.39295489839E+02  0.87432893139E+01 -0.27486839900E+02  0.48924220969E+02  0.41800000000E+01 0.  1.
         -5    1    4    4    0  501  0.10948366310E+02 -0.65849408978E+02  0.72212993810E+02  0.98428655698E+02  0.41800000000E+01 0.  1.
</event>
<event>
11    1  0.8479398E-009  0.1382548E+03  0.7561462E-02  0.1109523E+00
         22   -1    0    0    0    0  0.00000000000E+00  0.00000000000E+00  0.24425968816E+03  0.24425968816E+03  0.00000000000E+00 0. -1.
         22   -1    0    0    0    0 -0.00000000000E+00 -0.00000000000E+00 -0.99495356939E+03  0.99495356939E+03  0.00000000000E+00 0. -1.
         24    2    1    2    0    0 -0.43384668774E+01  0.19417171617E+02 -0.68429131793E+03  0.68929754755E+03  0.80502499444E+02 0.  0.
         25    2    1    2    0    0 -0.30922347217E+01 -0.77173219093E+02 -0.27900523546E+03  0.31536410000E+03  0.12508127955E+03 0.  0.
        -24    2    1    2    0    0  0.74307015991E+01  0.57756047476E+02  0.21260267216E+03  0.23455161000E+03  0.80147271951E+02 0.  0.
        -13    1    3    3    0    0 -0.79801392241E+01 -0.47357604229E+01 -0.71469271682E+01  0.11712754448E+02  0.00000000000E+00 0.  1.
         14    1    3    3    0    0  0.36416723467E+01  0.24152932040E+02 -0.67714439076E+03  0.67758479310E+03  0.00000000000E+00 0. -1.
         13    1    5    5    0    0 -0.23851066764E+02  0.60625082468E+02  0.11693234473E+03  0.13385606917E+03  0.00000000000E+00 0. -1.
        -14    1    5    5    0    0  0.31281768363E+02 -0.28690349922E+01  0.95670327427E+02  0.10069554083E+03  0.00000000000E+00 0.  1.
          5    1    4    4  501    0 -0.46097858452E+02  0.19758968358E+01 -0.15672945499E+03  0.16343350691E+03  0.41800000000E+01 0. -1.
         -5    1    4    4    0  501  0.43005623730E+02 -0.79149115929E+02 -0.12227578047E+03  0.15193059308E+03  0.41800000000E+01 0. -1.
</event>
<event>
11    1  0.8479398E-009  0.1443402E+03  0.7561462E-02  0.1102806E+00
         22   -1    0    0    0    0  0.00000000000E+00  0.00000000000E+00  0.39292837460E+03  0.39292837460E+03  0.00000000000E+00 0.  1.
         22   -1    0    0    0    0 -0.00000000000E+00 -0.00000000000E+00 -0.16308818412E+04  0.16308818412E+04  0.00000000000E+00 0.  1.
         24    2    1    2    0    0  0.61302466338E+02  0.28593368963E+02 -0.12505975805E+04  0.12549216331E+04  0.79110200008E+02 0.  0.
         25    2    1    2    0    0 -0.11671658554E+03 -0.12555249905E+02 -0.35172794878E+03  0.39133200587E+03  0.12509113968E+03 0.  0.
        -24    2    1    2    0    0  0.55414119206E+02 -0.16038119058E+02  0.36437206268E+03  0.37755657683E+03  0.80336932848E+02 0.  0.
        -13    1    3    3    0    0  0.72981759193E+02  0.11931390784E+02 -0.11447444630E+04  0.11471305857E+04  0.00000000000E+00 0.  1.
         14    1    3    3    0    0 -0.11679292855E+02  0.16661978180E+02 -0.10585311754E+03  0.10779104736E+03  0.00000000000E+00 0. -1.
         13    1    5    5    0    0 -0.60174942490E+01  0.46792338271E+01  0.16511213423E+00  0.76244821636E+01  0.00000000000E+00 0. -1.
        -14    1    5    5    0    0  0.61431613455E+02 -0.20717352885E+02  0.36420695055E+03  0.36993209467E+03  0.00000000000E+00 0.  1.
          5    1    4    4  501    0 -0.42556391321E+02 -0.50280734693E+02 -0.25626682507E+03  0.26463060435E+03  0.41800000000E+01 0.  1.
         -5    1    4    4    0  501 -0.74160194223E+02  0.37725484788E+02 -0.95461123706E+02  0.12670140153E+03  0.41800000000E+01 0.  1.
</event>
<event>
11    1  0.8479398E-009  0.1664363E+03  0.7561462E-02  0.1081175E+00
         22   -1    0    0    0    0  0.00000000000E+00  0.00000000000E+00  0.20046072502E+04  0.20046072502E+04  0.00000000000E+00 0.  1.
         22   -1    0    0    0    0 -0.00000000000E+00 -0.00000000000E+00 -0.12263619031E+03  0.12263619031E+03  0.00000000000E+00 0.  1.
         24    2    1    2    0    0 -0.22159606053E+02 -0.22755555995E+02 -0.77615282951E+02  0.11510594789E+03  0.78844046211E+02 0.  0.
         25    2    1    2    0    0  0.12944513912E+03  0.14375272360E+02  0.32337911938E+03  0.37038439543E+03  0.12509137871E+03 0.  0.
        -24    2    1    2    0    0 -0.10728553307E+03  0.83802836349E+01  0.16362072235E+04  0.16417530972E+04  0.81232624621E+02 0.  0.
        -13    1    3    3    0    0 -0.43580930288E+02 -0.63060007954E+01 -0.76263597003E+02  0.88063609729E+02  0.00000000000E+00 0.  1.
         14    1    3    3    0    0  0.21421324235E+02 -0.16449555200E+02 -0.13516859482E+01  0.27042338160E+02  0.00000000000E+00 0. -1.
         11    1    5    5    0    0 -0.32212342805E+02  0.41244446410E+02  0.56713892150E+03  0.56954832602E+03  0.00000000000E+00 0. -1.
        -12    1    5    5    0    0 -0.75073190263E+02 -0.32864162775E+02  0.10690683020E+04  0.10722047712E+04  0.00000000000E+00 0.  1.
          5    1    4    4  501    0  0.96798652366E+02 -0.63961232051E+01  0.31624567728E+03  0.33081670195E+03  0.41800000000E+01 0. -1.
         -5    1    4    4    0  501  0.32646486755E+02  0.20771395565E+02  0.71334421084E+01  0.39567693482E+02  0.41800000000E+01 0. -1.
</event>
<event>
11    1  0.8479398E-009  0.1461210E+03  0.7561462E-02  0.1100910E+00
         22   -1    0    0    0    0  0.00000000000E+00  0.00000000000E+00  0.81461180281E+03  0.81461180281E+03  0.00000000000E+00 0. -1.
         22   -1    0    0    0    0 -0.00000000000E+00 -0.00000000000E+00 -0.67593134635E+03  0.67593134635E+03  0.00000000000E+00 0.  1.
        -24    2    1    2    0    0 -0.52087801787E+02 -0.55885972893E+02 -0.57485489616E+03  0.58536416852E+03  0.79728772012E+02 0.  0.
         25    2    1    2    0    0  0.70531482846E+02  0.23611815957E+02 -0.36376456252E+02  0.15001083997E+03  0.12509115721E+03 0.  0.
         24    2    1    2    0    0 -0.18443681058E+02  0.32274156936E+02  0.74991180888E+03  0.75516814067E+03  0.80804758601E+02 0.  0.
        -13    1    5    5    0    0  0.37090885044E+01  0.13462547420E+02  0.18497177413E+02  0.23176347702E+02  0.00000000000E+00 0.  1.
         14    1    5    5    0    0 -0.22152769563E+02  0.18811609516E+02  0.73141463147E+03  0.73199179297E+03  0.00000000000E+00 0. -1.
         13    1    3    3    0    0  0.19578182686E+01  0.13223241013E+02 -0.23191365746E+02  0.26768014503E+02  0.00000000000E+00 0. -1.
        -14    1    3    3    0    0 -0.54045620056E+02 -0.69109213905E+02 -0.55166353041E+03  0.55859615402E+03  0.00000000000E+00 0.  1.
          5    1    4    4  501    0  0.45177367812E+02  0.19099939696E+01  0.43783668411E+02  0.63080303256E+02  0.41800000000E+01 0.  1.
         -5    1    4    4    0  501  0.25354115034E+02  0.21701821987E+02 -0.80160124664E+02  0.86930536711E+02  0.41800000000E+01 0.  1.
</event>
<event>
11    1  0.8479398E-009  0.1654704E+03  0.7561462E-02  0.1082042E+00
         22   -1    0    0    0    0  0.00000000000E+00  0.00000000000E+00  0.13972021635E+04  0.13972021635E+04  0.00000000000E+00 0.  1.
         22   -1    0    0    0    0 -0.00000000000E+00 -0.00000000000E+00 -0.39753185552E+03  0.39753185552E+03  0.00000000000E+00 0. -1.
        -24    2    1    2    0    0 -0.65396858642E+02 -0.86636185382E+02 -0.35629273270E+03  0.38105986733E+03  0.80495548765E+02 0.  0.
         25    2    1    2    0    0  0.77401347247E+02  0.71516609994E+02  0.21712273977E+03  0.27183724252E+03  0.12509040026E+03 0.  0.
         24    2    1    2    0    0 -0.12004488606E+02  0.15119575388E+02  0.11388403009E+04  0.11418369092E+04  0.80383996142E+02 0.  0.
        -11    1    5    5    0    0 -0.44079079403E+02  0.10204787398E+02  0.84498325819E+03  0.84619371868E+03  0.00000000000E+00 0.  1.
         12    1    5    5    0    0  0.32074590797E+02  0.49147879905E+01  0.29385704276E+03  0.29564319051E+03  0.00000000000E+00 0. -1.
         11    1    3    3    0    0 -0.23751016731E+02 -0.71078000343E+02 -0.30059022138E+03  0.30979133965E+03  0.00000000000E+00 0. -1.
        -12    1    3    3    0    0 -0.41645841911E+02 -0.15558185039E+02 -0.55702511320E+02  0.71268527679E+02  0.00000000000E+00 0.  1.
          5    1    4    4  501    0  0.10337752677E+03  0.51433681365E+02  0.10929854037E+03  0.15904709978E+03  0.41800000000E+01 0. -1.
         -5    1    4    4    0  501 -0.25976179524E+02  0.20082928629E+02  0.10782419939E+03  0.11279014274E+03  0.41800000000E+01 0. -1.
</event>
<event>
11    1  0.8479398E-009  0.1382124E+03  0.7561462E-02  0.1109571E+00
         22   -1    0    0    0    0  0.00000000000E+00  0.00000000000E+00  0.14454289773E+04  0.14454289773E+04  0.00000000000E+00 0.  1.
         22   -1    0    0    0    0 -0.00000000000E+00 -0.00000000000E+00 -0.16172878822E+03  0.16172878822E+03  0.00000000000E+00 0. -1.
         24    2    1    2    0    0 -0.44337617884E+02  0.20990980491E+01 -0.12696541751E+03  0.15707479419E+03  0.81129792036E+02 0.  0.
         25    2    1    2    0    0 -0.14671873226E+02  0.21272324265E+02  0.21567039990E+03  0.25065891860E+03  0.12509355073E+03 0.  0.
        -24    2    1    2    0    0  0.59009491109E+02 -0.23371422314E+02  0.11949952067E+04  0.11994240527E+04  0.81093593149E+02 0.  0.
        -13    1    3    3    0    0 -0.35393265806E+02  0.19690805945E+02 -0.14698684067E+02  0.43086684909E+02  0.00000000000E+00 0.  1.
         14    1    3    3    0    0 -0.89443520775E+01 -0.17591707895E+02 -0.11226673344E+03  0.11398810928E+03  0.00000000000E+00 0. -1.
         13    1    5    5    0    0 -0.66654323506E+01 -0.11338448063E+02  0.33178016847E+02  0.35689903261E+02  0.00000000000E+00 0. -1.
        -14    1    5    5    0    0  0.65674923460E+02 -0.12032974251E+02  0.11618171899E+04  0.11637341495E+04  0.00000000000E+00 0.  1.
          5    1    4    4  501    0  0.42835269971E+02  0.41666125802E+02  0.66855720023E+02  0.89766842947E+02  0.41800000000E+01 0. -1.
         -5    1    4    4    0  501 -0.57507143197E+02 -0.20393801537E+02  0.14881467988E+03  0.16089207565E+03  0.41800000000E+01 0. -1.
</event>
<event>
11    1  0.8479398E-009  0.1496546E+03  0.7561462E-02  0.1097232E+00
         22   -1    0    0    0    0  0.00000000000E+00  0.00000000000E+00  0.54735084051E+03  0.54735084051E+03  0.00000000000E+00 0. -1.
         22   -1    0    0    0    0 -0.00000000000E+00 -0.00000000000E+00 -0.34456031507E+03  0.34456031507E+03  0.00000000000E+00 0.  1.
         24    2    1    2    0    0  0.16991591249E+02 -0.79571826028E+02 -0.30466922925E+03  0.32585041364E+03  0.82065602715E+02 0.  0.
         25    2    1    2    0    0 -0.27006600805E+02  0.10074296959E+03  0.28126066306E+03  0.32501741932E+03  0.12510099869E+03 0.  0.
        -24    2    1    2    0    0  0.10015009556E+02 -0.21171143557E+02  0.22619909163E+03  0.24104332261E+03  0.79920814471E+02 0.  0.
        -11    1    3    3    0    0  0.77617158844E+01 -0.40104512967E+02 -0.26830460668E+03  0.27139634884E+03  0.00000000000E+00 0.  1.
         12    1    3    3    0    0  0.92298753647E+01 -0.39467313061E+02 -0.36364622562E+02  0.54454064804E+02  0.00000000000E+00 0. -1.
         11    1    5    5    0    0  0.30674333689E+02 -0.42974535852E+02  0.13186001287E+03  0.14203798250E+03  0.00000000000E+00 0. -1.
        -12    1    5    5    0    0 -0.20659324133E+02  0.21803392294E+02  0.94339078763E+02  0.99005340114E+02  0.00000000000E+00 0.  1.
          5    1    4    4  501    0 -0.56180146062E+02  0.99808005306E+02  0.27024032186E+03  0.29353901051E+03  0.41800000000E+01 0.  1.
         -5    1    4    4    0  501  0.29173545257E+02  0.93496427948E+00  0.11020341198E+02  0.31478408809E+02  0.41800000000E+01 0.  1.
</event>
<event>
11    1  0.8479398E-009  0.1350221E+03  0.7561462E-02  0.1113248E+00
         22   -1    0    0    0    0  0.00000000000E+00  0.00000000000E+00  0.10142410240E+04  0.10142410240E+04  0.00000000000E+00 0.  1.
         22   -1    0    0    0    0 -0.00000000000E+00 -0.00000000000E+00 -0.46940645963E+04  0.46940645963E+04  0.00000000000E+00 0. -1.
        -24    2    1    2    0    0 -0.35155346813E+02 -0.38758337684E+01 -0.36035565681E+04  0.36047924215E+04  0.87507382174E+02 0.  0.
         25    2    1    2    0    0  0.17366039996E+02 -0.43762132368E+02 -0.10835281105E+04  0.10917409696E+04  0.12509386434E+03 0.  0.
         24    2    1    2    0    0  0.17789306817E+02  0.47637966137E+02  0.10072611062E+04  0.10117722292E+04  0.80760586971E+02 0.  0.
        -13    1    5    5    0    0  0.17819355238E+01 -0.18734160056E+02  0.44236537371E+03  0.44276547731E+03  0.00000000000E+00 0.  1.
         14    1    5    5    0    0  0.16007371294E+02  0.66372126193E+02  0.56489573252E+03  0.56900675189E+03  0.00000000000E+00 0. -1.
         11    1    3    3    0    0 -0.43690977162E+02  0.33444300010E+02 -0.23850828424E+04  0.23857174158E+04  0.00000000000E+00 0. -1.
        -12    1    3    3    0    0  0.85356303485E+01 -0.37320133779E+02 -0.12184737257E+04  0.12190750057E+04  0.00000000000E+00 0.  1.
          5    1    4    4  501    0  0.29793622125E+02 -0.60678230707E+01 -0.59624995924E+02  0.67060352930E+02  0.41800000000E+01 0.  1.
         -5    1    4    4    0  501 -0.12427582129E+02 -0.37694309298E+02 -0.10239031146E+04  0.10246806167E+04  0.41800000000E+01 0.  1.
</event>
<event>
11    1  0.8479398E-009  0.1392959E+03  0.7561462E-02  0.1108347E+00
         22   -1    0    0    0    0  0.00000000000E+00  0.00000000000E+00  0.87098653787E+02  0.87098653787E+02  0.00000000000E+00 0.  1.
         22   -1    0    0    0    0 -0.00000000000E+00 -0.00000000000E+00 -0.91455207839E+03  0.91455207839E+03  0.00000000000E+00 0.  1.
         24    2    1    2    0    0  0.13946623383E+02  0.25958337392E+02 -0.69809520465E+03  0.70332902392E+03  0.80414286931E+02 0.  0.
         25    2    1    2    0    0  0.47312931000E+02 -0.11034718965E+01 -0.14033102059E+03  0.19385435007E+03  0.12508789953E+03 0.  0.
        -24    2    1    2    0    0 -0.61259554383E+02 -0.24854865495E+02  0.10972800638E+02  0.10446735820E+03  0.80140684006E+02 0.  0.
        -11    1    3    3    0    0  0.77461110150E+01 -0.48939148869E+01 -0.60479944199E+03  0.60486884336E+03  0.00000000000E+00 0.  1.
         12    1    3    3    0    0  0.62005123685E+01  0.30852252279E+02 -0.93295762661E+02  0.98460180554E+02  0.00000000000E+00 0. -1.
         11    1    5    5    0    0 -0.45144494392E+01 -0.42606512673E+02  0.13602027792E+02  0.44952311797E+02  0.00000000000E+00 0. -1.
        -12    1    5    5    0    0 -0.56745104944E+02  0.17751647177E+02 -0.26292271544E+01  0.59515046401E+02  0.00000000000E+00 0.  1.
          5    1    4    4  501    0  0.21271608905E+02  0.53061375903E+02 -0.22617372027E+02  0.61619874031E+02  0.41800000000E+01 0.  1.
         -5    1    4    4    0  501  0.26041322095E+02 -0.54164847800E+02 -0.11771364857E+03  0.13223447604E+03  0.41800000000E+01 0.  1.
</event>
<event>
11    1  0.8479398E-009  0.1461073E+03  0.7561462E-02  0.1100924E+00
         22   -1    0    0    0    0  0.00000000000E+00  0.00000000000E+00  0.16949938151E+03  0.16949938151E+03  0.00000000000E+00 0. -1.
         22   -1    0    0    0    0 -0.00000000000E+00 -0.00000000000E+00 -0.39908002615E+03  0.39908002615E+03  0.00000000000E+00 0. -1.
        -24    2    1    2    0    0 -0.14479336877E+02  0.56109818326E+02 -0.11444313842E+03  0.15082493541E+03  0.79328218806E+02 0.  0.
         25    2    1    2    0    0  0.51920669525E+02 -0.88552574609E+02 -0.22251205735E+03  0.27513032372E+03  0.12509102675E+03 0.  0.
         24    2    1    2    0    0 -0.37441332648E+02  0.32442756284E+02  0.10737455112E+03  0.14262414853E+03  0.79736865312E+02 0.  0.
        -13    1    5    5    0    0 -0.49933242631E+02  0.50189555279E+02  0.91715360276E+02  0.11586210549E+03  0.00000000000E+00 0.  1.
         14    1    5    5    0    0  0.12491909983E+02 -0.17746798995E+02  0.15659190845E+02  0.26762043037E+02  0.00000000000E+00 0. -1.
         11    1    3    3    0    0 -0.29926779806E+02  0.29478575769E+02 -0.11754895251E+02  0.43620822336E+02  0.00000000000E+00 0. -1.
        -12    1    3    3    0    0  0.15447442929E+02  0.26631242557E+02 -0.10268824317E+03  0.10720411307E+03  0.00000000000E+00 0.  1.
          5    1    4    4  501    0  0.64659229478E+02 -0.10559170905E+03 -0.22105119975E+03  0.25339994137E+03  0.41800000000E+01 0. -1.
         -5    1    4    4    0  501 -0.12738559953E+02  0.17039134443E+02 -0.14608575988E+01  0.21730382352E+02  0.41800000000E+01 0. -1.
</event>
<event>
11    1  0.8479398E-009  0.1495645E+03  0.7561462E-02  0.1097325E+00
         22   -1    0    0    0    0  0.00000000000E+00  0.00000000000E+00  0.45527360012E+03  0.45527360012E+03  0.00000000000E+00 0. -1.
         22   -1    0    0    0    0 -0.00000000000E+00 -0.00000000000E+00 -0.15659629579E+04  0.15659629579E+04  0.00000000000E+00 0.  1.
         24    2    1    2    0    0  0.79450366413E+02 -0.30021694715E+02 -0.13648975094E+04  0.13699062347E+04  0.80524641261E+02 0.  0.
         25    2    1    2    0    0 -0.33219956433E+02  0.56323638953E+02 -0.16943359979E+03  0.22052630455E+03  0.12509271943E+03 0.  0.
        -24    2    1    2    0    0 -0.46230409980E+02 -0.26301944238E+02  0.42364175145E+03  0.43080401871E+03  0.57364848849E+02 0.  0.
        -13    1    3    3    0    0  0.59704760773E+01 -0.33539787745E+02 -0.72391541916E+03  0.72471656394E+03  0.00000000000E+00 0.  1.
         14    1    3    3    0    0  0.73479890335E+02  0.35180930297E+01 -0.64098209025E+03  0.64518967079E+03  0.00000000000E+00 0. -1.
         13    1    5    5    0    0 -0.35179164107E+02 -0.44710782169E+01  0.37169608053E+03  0.37338390486E+03  0.00000000000E+00 0. -1.
        -14    1    5    5    0    0 -0.11051245872E+02 -0.21830866021E+02  0.51945670917E+02  0.57420113842E+02  0.00000000000E+00 0.  1.
          5    1    4    4  501    0 -0.20210968048E+02 -0.23825530187E+02 -0.12283251274E+03  0.12681260862E+03  0.41800000000E+01 0.  1.
         -5    1    4    4    0  501 -0.13008988385E+02  0.80149169140E+02 -0.46601087046E+02  0.93713695939E+02  0.41800000000E+01 0.  1.
</event>
<event>
11    1  0.8479398E-009  0.1586313E+03  0.7561462E-02  0.1088372E+00
         22   -1    0    0    0    0  0.00000000000E+00  0.00000000000E+00  0.49331195579E+03  0.49331195579E+03  0.00000000000E+00 0.  1.
         22   -1    0    0    0    0 -0.00000000000E+00 -0.00000000000E+00 -0.63269750522E+03  0.63269750522E+03  0.00000000000E+00 0. -1.
        -24    2    1    2    0    0  0.67008396974E+02  0.63842612356E+02 -0.54851316278E+03  0.56209121693E+03  0.80708376207E+02 0.  0.
         25    2    1    2    0    0  0.40101491536E+02 -0.56363675922E+02  0.10647379143E+02  0.14333581455E+03  0.12508715147E+03 0.  0.
         24    2    1    2    0    0 -0.10710988851E+03 -0.74789364337E+01  0.39848023421E+03  0.42058242954E+03  0.81084032169E+02 0.  0.
        -13    1    5    5    0    0 -0.95490129937E+02 -0.71337566842E+01  0.19978596378E+03  0.22154838461E+03  0.00000000000E+00 0.  1.
         14    1    5    5    0    0 -0.11619758572E+02 -0.34517974954E+00  0.19869427043E+03  0.19903404493E+03  0.00000000000E+00 0. -1.
         13    1    3    3    0    0  0.55918750336E+02  0.29016903828E+02 -0.16144603343E+03  0.17330236311E+03  0.00000000000E+00 0. -1.
        -14    1    3    3    0    0  0.11089646637E+02  0.34825708528E+02 -0.38706712935E+03  0.38878885383E+03  0.00000000000E+00 0.  1.
          5    1    4    4  501    0  0.58176586285E+02 -0.52720981087E+02  0.54443858081E+02  0.95632751300E+02  0.41800000000E+01 0.  1.
         -5    1    4    4    0  501 -0.18075094749E+02 -0.36426948347E+01 -0.43796478938E+02  0.47703063248E+02  0.41800000000E+01 0.  1.
</event>
<event>
11    1  0.8479398E-009  0.1530154E+03  0.7561462E-02  0.1093837E+00
         22   -1    0    0    0    0  0.00000000000E+00  0.00000000000E+00  0.38761866323E+03  0.38761866323E+03  0.00000000000E+00 0. -1.
         22   -1    0    0    0    0 -0.00000000000E+00 -0.00000000000E+00 -0.11861820676E+04  0.11861820676E+04  0.00000000000E+00 0.  1.
         24    2    1    2    0    0  0.58066083422E+02  0.68994137221E+02 -0.98960019927E+03  0.99693828309E+03  0.80284026313E+02 0.  0.
         25    2    1    2    0    0 -0.82293218782E+02 -0.21519647519E+02 -0.15573967035E+03  0.21711448996E+03  0.12509431539E+03 0.  0.
        -24    2    1    2    0    0  0.24227135360E+02 -0.47474489702E+02  0.34677646526E+03  0.35974795778E+03  0.79522921251E+02 0.  0.
        -13    1    3    3    0    0  0.56028616251E+02  0.55445040962E+02 -0.96898107919E+03  0.97218192240E+03  0.00000000000E+00 0.  1.
         14    1    3    3    0    0  0.20374671716E+01  0.13549096258E+02 -0.20619120075E+02  0.24756360689E+02  0.00000000000E+00 0. -1.
         13    1    5    5    0    0  0.23973941610E+02 -0.69272455382E+02  0.24870243593E+03  0.25928039762E+03  0.00000000000E+00 0. -1.
        -14    1    5    5    0    0  0.25319374976E+00  0.21797965680E+02  0.98074029331E+02  0.10046756016E+03  0.00000000000E+00 0.  1.
          5    1    4    4  501    0 -0.39252305970E+02  0.20812843283E+02 -0.14980394582E+03  0.15630934890E+03  0.41800000000E+01 0.  1.
         -5    1    4    4    0  501 -0.43040912811E+02 -0.42332490802E+02 -0.59357245228E+01  0.60805141055E+02  0.41800000000E+01 0.  1.
</event>
<event>
11    1  0.8479398E-009  0.1320415E+03  0.7561462E-02  0.1116786E+00
         22   -1    0    0    0    0  0.00000000000E+00  0.00000000000E+00  0.25958683152E+03  0.25958683152E+03  0.00000000000E+00 0. -1.
         22   -1    0    0    0    0 -0.00000000000E+00 -0.00000000000E+00 -0.31996992488E+03  0.31996992488E+03  0.00000000000E+00 0.  1.
        -24    2    1    2    0    0  0.16962727571E+02 -0.16386230056E+02 -0.24585215175E+03  0.25951621940E+03  0.79681522022E+02 0.  0.
         25    2    1    2    0    0  0.14426355394E+02 -0.17310550666E+02  0.14989000899E+02  0.12798497164E+03  0.12509079871E+03 0.  0.
         24    2    1    2    0    0 -0.31389082964E+02  0.33696780722E+02  0.17048005748E+03  0.19205556536E+03  0.75505911205E+02 0.  0.
        -13    1    5    5    0    0  0.53659718509E+00 -0.21622207388E+02  0.24302180516E+02  0.32533117998E+02  0.00000000000E+00 0.  1.
         14    1    5    5    0    0 -0.31925680149E+02  0.55318988110E+02  0.14617787697E+03  0.15952244737E+03  0.00000000000E+00 0. -1.
         11    1    3    3    0    0 -0.15104173915E+02  0.21809322149E+02 -0.14016193367E+03  0.14265044778E+03  0.00000000000E+00 0. -1.
        -12    1    3    3    0    0  0.32066901486E+02 -0.38195552205E+02 -0.10569021808E+03  0.11686577162E+03  0.00000000000E+00 0.  1.
          5    1    4    4  501    0  0.64475614857E+02  0.12238097830E+00 -0.15847309863E+02  0.66526156647E+02  0.41800000000E+01 0. -1.
         -5    1    4    4    0  501 -0.50049259463E+02 -0.17432931645E+02  0.30836310763E+02  0.61458814990E+02  0.41800000000E+01 0. -1.
</event>
<event>
11    1  0.8479398E-009  0.1666822E+03  0.7561462E-02  0.1080956E+00
         22   -1    0    0    0    0  0.00000000000E+00  0.00000000000E+00  0.11989218946E+04  0.11989218946E+04  0.00000000000E+00 0.  1.
         22   -1    0    0    0    0 -0.00000000000E+00 -0.00000000000E+00 -0.29769520675E+03  0.29769520675E+03  0.00000000000E+00 0. -1.
         24    2    1    2    0    0 -0.82953086039E+02  0.60623711876E+01 -0.25788381824E+03  0.28175212411E+03  0.77215470625E+02 0.  0.
         25    2    1    2    0    0  0.17318757849E+03  0.20844265233E+02  0.49667539618E+03  0.54107511863E+03  0.12508962425E+03 0.  0.
        -24    2    1    2    0    0 -0.90234492448E+02 -0.26906636421E+02  0.66243510993E+03  0.67378985862E+03  0.79412014201E+02 0.  0.
        -13    1    3    3    0    0  0.12059612513E+02 -0.81273640646E+01 -0.60617357857E+02  0.62337407503E+02  0.00000000000E+00 0.  1.
         14    1    3    3    0    0 -0.95012698553E+02  0.14189735252E+02 -0.19726646038E+03  0.21941471661E+03  0.00000000000E+00 0. -1.
         13    1    5    5    0    0 -0.38866322402E+02 -0.12927877338E+02  0.89973744191E+02  0.98858462831E+02  0.00000000000E+00 0. -1.
        -14    1    5    5    0    0 -0.51368170045E+02 -0.13978759083E+02  0.57246136574E+03  0.57493139579E+03  0.00000000000E+00 0.  1.
          5    1    4    4  501    0  0.19183563664E+03  0.12876015214E+02  0.42534447032E+03  0.46679984370E+03  0.41800000000E+01 0. -1.
         -5    1    4    4    0  501 -0.18648058149E+02  0.79682500191E+01  0.71330925862E+02  0.74275274927E+02  0.41800000000E+01 0. -1.
</event>
<event>
11    1  0.8479398E-009  0.1654541E+03  0.7561462E-02  0.1082057E+00
         22   -1    0    0    0    0  0.00000000000E+00  0.00000000000E+00  0.33703012631E+04  0.33703012631E+04  0.00000000000E+00 0.  1.
         22   -1    0    0    0    0 -0.00000000000E+00 -0.00000000000E+00 -0.24274182791E+03  0.24274182791E+03  0.00000000000E+00 0. -1.
        -24    2    1    2    0    0  0.48061234653E+02  0.36112290919E+02 -0.17035830079E+03  0.19880492158E+03  0.82990760702E+02 0.  0.
         25    2    1    2    0    0 -0.71608965627E+02  0.70242185350E+02  0.56820425717E+02  0.17011252678E+03  0.12509157616E+03 0.  0.
         24    2    1    2    0    0  0.23547730974E+02 -0.10635447627E+03  0.32410973103E+04  0.32441256427E+04  0.88168250809E+02 0.  0.
        -11    1    5    5    0    0 -0.49758847626E+01 -0.20610619973E+02  0.18376012237E+04  0.18377235413E+04  0.00000000000E+00 0.  1.
         12    1    5    5    0    0  0.28523615736E+02 -0.85743856296E+02  0.14034960866E+04  0.14064021014E+04  0.00000000000E+00 0. -1.
         13    1    3    3    0    0  0.33072746509E-01  0.17146776370E+01 -0.12320868836E+03  0.12322062368E+03  0.00000000000E+00 0. -1.
        -14    1    3    3    0    0  0.48028161907E+02  0.34397613282E+02 -0.47149612435E+02  0.75584297896E+02  0.00000000000E+00 0.  1.
          5    1    4    4  501    0  0.12404801041E+02  0.71906949375E+02  0.43147983405E+02  0.84874668360E+02  0.41800000000E+01 0. -1.
         -5    1    4    4    0  501 -0.84013766668E+02 -0.16647640249E+01  0.13672442312E+02  0.85237858418E+02  0.41800000000E+01 0. -1.
</event>
<event>
11    1  0.8479398E-009  0.1632871E+03  0.7561462E-02  0.1084026E+00
         22   -1    0    0    0    0  0.00000000000E+00  0.00000000000E+00  0.19946822184E+03  0.19946822184E+03  0.00000000000E+00 0. -1.
         22   -1    0    0    0    0 -0.00000000000E+00 -0.00000000000E+00 -0.24979155270E+04  0.24979155270E+04  0.00000000000E+00 0. -1.
        -24    2    1    2    0    0 -0.83759504510E+02 -0.69795489745E+02 -0.18721868600E+04  0.18769190907E+04  0.76515155973E+02 0.  0.
         25    2    1    2    0    0  0.10265658409E+03  0.68623899142E+01 -0.59803602824E+03  0.61958060457E+03  0.12509023874E+03 0.  0.
         24    2    1    2    0    0 -0.18897079577E+02  0.62933099830E+02  0.17177558309E+03  0.20088405363E+03  0.80807656737E+02 0.  0.
        -11    1    5    5    0    0  0.10365500159E+02  0.59584878719E+02  0.59620080261E+02  0.84925587050E+02  0.00000000000E+00 0.  1.
         12    1    5    5    0    0 -0.29262579736E+02  0.33482211113E+01  0.11215550283E+03  0.11595846658E+03  0.00000000000E+00 0. -1.
         13    1    3    3    0    0 -0.48480648194E+02 -0.62321048215E+02 -0.16444727058E+04  0.16463671420E+04  0.00000000000E+00 0. -1.
        -14    1    3    3    0    0 -0.35278856316E+02 -0.74744415293E+01 -0.22771415425E+03  0.23055194865E+03  0.00000000000E+00 0.  1.
          5    1    4    4  501    0  0.56487348734E+02  0.16778821008E+02 -0.80354596667E+02  0.99733058747E+02  0.41800000000E+01 0.  1.
         -5    1    4    4    0  501  0.46169235353E+02 -0.99164310934E+01 -0.51768143157E+03  0.51984754582E+03  0.41800000000E+01 0.  1.
</event>
<event>
11    1  0.8479398E-009  0.1297256E+03  0.7561462E-02  0.1119607E+00
         22   -1    0    0    0    0  0.00000000000E+00  0.00000000000E+00  0.12518502272E+04  0.12518502272E+04  0.00000000000E+00 0. -1.
         22   -1    0    0    0    0 -0.00000000000E+00 -0.00000000000E+00 -0.19607904535E+03  0.19607904535E+03  0.00000000000E+00 0. -1.
         24    2    1    2    0    0  0.18525494845E+00 -0.25331840308E+02 -0.13620506509E+03  0.15682442872E+03  0.73487041274E+02 0.  0.
         25    2    1    2    0    0  0.31349171563E+02  0.10794102717E+02  0.39415438559E+02  0.13527672541E+03  0.12508769895E+03 0.  0.
        -24    2    1    2    0    0 -0.31534426512E+02  0.14537737591E+02  0.11525608084E+04  0.11558281184E+04  0.79601862212E+02 0.  0.
        -13    1    3    3    0    0 -0.80936487416E+00  0.25935317304E+02 -0.54501130641E+02  0.60362811368E+02  0.00000000000E+00 0.  1.
         14    1    3    3    0    0  0.99461982261E+00 -0.51267157612E+02 -0.81703934445E+02  0.96461617351E+02  0.00000000000E+00 0. -1.
         11    1    5    5    0    0 -0.41726495030E+02  0.33802115077E+02  0.10260099137E+04  0.10274142428E+04  0.00000000000E+00 0. -1.
        -12    1    5    5    0    0  0.10192068518E+02 -0.19264377486E+02  0.12655089470E+03  0.12841387561E+03  0.00000000000E+00 0.  1.
          5    1    4    4  501    0  0.35110190246E+02 -0.52433324380E+02  0.33389424436E+02  0.71514369387E+02  0.41800000000E+01 0. -1.
         -5    1    4    4    0  501 -0.37610186827E+01  0.63227427097E+02  0.60260141229E+01  0.63762356019E+02  0.41800000000E+01 0. -1.
</event>
<event>
11    1  0.8479398E-009  0.1459496E+03  0.7561462E-02  0.1101091E+00
         22   -1    0    0    0    0  0.00000000000E+00  0.00000000000E+00  0.87769267491E+03  0.87769267491E+03  0.00000000000E+00 0.  1.
         22   -1    0    0    0    0 -0.00000000000E+00 -0.00000000000E+00 -0.61164552571E+03  0.61164552571E+03  0.00000000000E+00 0. -1.
         24    2    1    2    0    0  0.21011301394E+02 -0.75354523911E+01 -0.55427450108E+03  0.56073487360E+03  0.81884785502E+02 0.  0.
         25    2    1    2    0    0 -0.74953532517E+02 -0.43807887371E+02  0.64821302250E+02  0.16548989301E+03  0.12509172807E+03 0.  0.
        -24    2    1    2    0    0  0.53942231123E+02  0.51343339762E+02  0.75550034802E+03  0.76311343400E+03  0.77559231937E+02 0.  0.
        -11    1    3    3    0    0  0.51598738319E+02  0.15302720338E+01 -0.29208248190E+03  0.29660908240E+03  0.00000000000E+00 0.  1.
         12    1    3    3    0    0 -0.30587436925E+02 -0.90657244250E+01 -0.26219201917E+03  0.26412579120E+03  0.00000000000E+00 0. -1.
         13    1    5    5    0    0  0.44123003292E+01  0.33100295163E+02  0.98706406681E+02  0.10420198009E+03  0.00000000000E+00 0. -1.
        -14    1    5    5    0    0  0.49529930794E+02  0.18243044599E+02  0.65679394134E+03  0.65891145392E+03  0.00000000000E+00 0.  1.
          5    1    4    4  501    0 -0.36585211967E+01 -0.68419547242E+02  0.44478816822E+01  0.68788627501E+02  0.41800000000E+01 0.  1.
         -5    1    4    4    0  501 -0.71295011321E+02  0.24611659871E+02  0.60373420567E+02  0.96701265513E+02  0.41800000000E+01 0.  1.
</event>
<event>
11    1  0.8479398E-009  0.1645614E+03  0.7561462E-02  0.1082864E+00
         22   -1    0    0    0    0  0.00000000000E+00  0.00000000000E+00  0.83468877900E+03  0.83468877900E+03  0.00000000000E+00 0.  1.
         22   -1    0    0    0    0 -0.00000000000E+00 -0.00000000000E+00 -0.20266413144E+03  0.20266413144E+03  0.00000000000E+00 0. -1.
        -24    2    1    2    0    0 -0.68917820369E+02  0.83487547933E+02 -0.12104649796E+03  0.18490707459E+03  0.88422479843E+02 0.  0.
         25    2    1    2    0    0  0.28015141851E+02 -0.10512188599E+03  0.10697275297E+03  0.19729721415E+03  0.12509021442E+03 0.  0.
         24    2    1    2    0    0  0.40902678518E+02  0.21634338058E+02  0.64609839255E+03  0.65514862170E+03  0.98160633507E+02 0.  0.
        -11    1    5    5    0    0  0.26563188440E+02 -0.23868113568E+02  0.50382979476E+03  0.50509380506E+03  0.00000000000E+00 0.  1.
         12    1    5    5    0    0  0.14339490078E+02  0.45502451626E+02  0.14226859779E+03  0.15005481664E+03  0.00000000000E+00 0. -1.
         13    1    3    3    0    0  0.65834454516E+01  0.37065690741E+02 -0.77492916876E+02  0.86153115730E+02  0.00000000000E+00 0. -1.
        -14    1    3    3    0    0 -0.75501265820E+02  0.46421857192E+02 -0.43553581084E+02  0.98753958862E+02  0.00000000000E+00 0.  1.
          5    1    4    4  501    0  0.53355997662E+02 -0.11969527842E+03  0.65994516291E+02  0.14678750200E+03  0.41800000000E+01 0.  1.
         -5    1    4    4    0  501 -0.25340855811E+02  0.14573392425E+02  0.40978236684E+02  0.50509712152E+02  0.41800000000E+01 0.  1.
</event>
<event>
11    1  0.8479398E-009  0.1796228E+03  0.7561462E-02  0.1069948E+00
         22   -1    0    0    0    0  0.00000000000E+00  0.00000000000E+00  0.65412688227E+03  0.65412688227E+03  0.00000000000E+00 0.  1.
         22   -1    0    0    0    0 -0.00000000000E+00 -0.00000000000E+00 -0.17837418552E+04  0.17837418552E+04  0.00000000000E+00 0. -1.
        -24    2    1    2    0    0  0.11939808764E+03  0.17387198618E+02 -0.13266909689E+04  0.13346068240E+04  0.80673599191E+02 0.  0.
         25    2    1    2    0    0 -0.18484357661E+03 -0.38123976997E+02 -0.42000254043E+03  0.47714767911E+03  0.12508872163E+03 0.  0.
         24    2    1    2    0    0  0.65445488969E+02  0.20736778378E+02  0.61707853641E+03  0.62611423437E+03  0.80746444963E+02 0.  0.
        -11    1    5    5    0    0  0.20635795220E+02  0.45714526469E+02  0.39588117172E+03  0.39904580701E+03  0.00000000000E+00 0.  1.
         12    1    5    5    0    0  0.44809693749E+02 -0.24977748090E+02  0.22119736470E+03  0.22706842736E+03  0.00000000000E+00 0. -1.
         13    1    3    3    0    0  0.76399787590E+02  0.16114354763E+02 -0.11540084872E+04  0.11566469593E+04  0.00000000000E+00 0. -1.
        -14    1    3    3    0    0  0.42998300052E+02  0.12728438555E+01 -0.17268248170E+03  0.17795986465E+03  0.00000000000E+00 0.  1.
          5    1    4    4  501    0 -0.13350465460E+03 -0.82757344093E+02 -0.31407205833E+03  0.35118513782E+03  0.41800000000E+01 0.  1.
         -5    1    4    4    0  501 -0.51338922010E+02  0.44633367097E+02 -0.10593048210E+03  0.12596254129E+03  0.41800000000E+01 0.  1.
</event>
<event>
11    1  0.8479398E-009  0.1388368E+03  0.7561462E-02  0.1108864E+00
         22   -1    0    0    0    0  0.00000000000E+00  0.00000000000E+00  0.11852883552E+03  0.11852883552E+03  0.00000000000E+00 0. -1.
         22   -1    0    0    0    0 -0.00000000000E+00 -0.00000000000E+00 -0.10928305726E+04  0.10928305726E+04  0.00000000000E+00 0.  1.
        -24    2    1    2    0    0 -0.37670038582E+02 -0.50407620267E+02 -0.91970310168E+03  0.92543267328E+03  0.81313452391E+02 0.  0.
         25    2    1    2    0    0  0.66597382718E+01  0.36436819415E+02 -0.12047342054E+03  0.17757648780E+03  0.12509024758E+03 0.  0.
         24    2    1    2    0    0  0.31010300310E+02  0.13970800853E+02  0.65874785183E+02  0.10835024700E+03  0.79015610491E+02 0.  0.
        -13    1    5    5    0    0  0.13878834255E+02 -0.25108866385E+02 -0.13565299018E+01  0.28721375051E+02  0.00000000000E+00 0.  1.
         14    1    5    5    0    0  0.17131466055E+02  0.39079667238E+02  0.67231315085E+02  0.79628871954E+02  0.00000000000E+00 0. -1.
         13    1    3    3    0    0 -0.14918599517E+02  0.20133218230E+02 -0.14092948600E+03  0.14313990049E+03  0.00000000000E+00 0. -1.
        -14    1    3    3    0    0 -0.22751439065E+02 -0.70540838498E+02 -0.77877361568E+03  0.78229277279E+03  0.00000000000E+00 0.  1.
          5    1    4    4  501    0  0.49765515030E+02  0.32360004366E+01 -0.11157659640E+03  0.12228608854E+03  0.41800000000E+01 0. -1.
         -5    1    4    4    0  501 -0.43105776759E+02  0.33200818978E+02 -0.88968241396E+01  0.55290399262E+02  0.41800000000E+01 0. -1.
</event>
<event>
11    1  0.8479398E-009  0.1315593E+03  0.7561462E-02  0.1117368E+00
         22   -1    0    0    0    0  0.00000000000E+00  0.00000000000E+00  0.16818106930E+04  0.16818106930E+04  0.00000000000E+00 0. -1.
         22   -1    0    0    0    0 -0.00000000000E+00 -0.00000000000E+00 -0.20847551214E+03  0.20847551214E+03  0.00000000000E+00 0. -1.
        -24    2    1    2    0    0 -0.84575736122E+01  0.40935872245E+02 -0.16840268263E+03  0.19206248650E+03  0.82348400195E+02 0.  0.
         25    2    1    2    0    0 -0.16469645899E+02 -0.30445216352E+02  0.12846395286E+03  0.18261596040E+03  0.12508973329E+03 0.  0.
         24    2    1    2    0    0  0.24927219512E+02 -0.10490655893E+02  0.15132739106E+04  0.15156077582E+04  0.79608593216E+02 0.  0.
        -13    1    5    5    0    0 -0.16460009632E+02 -0.16854355683E+02  0.16391630437E+03  0.16560059197E+03  0.00000000000E+00 0.  1.
         14    1    5    5    0    0  0.41387229144E+02  0.63636997905E+01  0.13493576062E+04  0.13500071662E+04  0.00000000000E+00 0. -1.
         11    1    3    3    0    0 -0.44030943633E+02  0.34969255231E+02 -0.10571208529E+03  0.11973561620E+03  0.00000000000E+00 0. -1.
        -12    1    3    3    0    0  0.35573370021E+02  0.59666170138E+01 -0.62690597333E+02  0.72326870299E+02  0.00000000000E+00 0.  1.
          5    1    4    4  501    0 -0.67160973273E+02 -0.10624913051E+02  0.40988103485E+02  0.79504604494E+02  0.41800000000E+01 0. -1.
         -5    1    4    4    0  501  0.50691327374E+02 -0.19820303301E+02  0.87475849370E+02  0.10311135591E+03  0.41800000000E+01 0. -1.
</event>
<event>
11    1  0.8479398E-009  0.1845741E+03  0.7561462E-02  0.1066002E+00
         22   -1    0    0    0    0  0.00000000000E+00  0.00000000000E+00  0.26689775417E+03  0.26689775417E+03  0.00000000000E+00 0. -1.
         22   -1    0    0    0    0 -0.00000000000E+00 -0.00000000000E+00 -0.67961963953E+03  0.67961963953E+03  0.00000000000E+00 0. -1.
         24    2    1    2    0    0  0.60652793533E+02  0.11868838961E+03 -0.49889539867E+03  0.52250673029E+03  0.79692968234E+02 0.  0.
         25    2    1    2    0    0 -0.70709391222E+02 -0.12976093903E+03 -0.10187519702E+03  0.21878119996E+03  0.12509571689E+03 0.  0.
        -24    2    1    2    0    0  0.10056597688E+02  0.11072549419E+02  0.18804871034E+03  0.20522946345E+03  0.80827462533E+02 0.  0.
        -11    1    3    3    0    0 -0.69789481692E+01  0.72104610189E+02 -0.25924668601E+03  0.26917768247E+03  0.00000000000E+00 0.  1.
         12    1    3    3    0    0  0.67631741703E+02  0.46583779419E+02 -0.23964871266E+03  0.25332904782E+03  0.00000000000E+00 0. -1.
         13    1    5    5    0    0  0.28433162638E+02  0.18666616196E+02  0.18094611181E+03  0.18411513430E+03  0.00000000000E+00 0. -1.
        -14    1    5    5    0    0 -0.18376564949E+02 -0.75940667766E+01  0.71025985236E+01  0.21114329147E+02  0.00000000000E+00 0.  1.
          5    1    4    4  501    0  0.35517313739E+02 -0.39602955612E+02 -0.19165058773E+02  0.56697844282E+02  0.41800000000E+01 0. -1.
         -5    1    4    4    0  501 -0.10622670496E+03 -0.90157983415E+02 -0.82710138247E+02  0.16208335568E+03  0.41800000000E+01 0. -1.
</event>
<event>
11    1  0.8479398E-009  0.1499439E+03  0.7561462E-02  0.1096936E+00
         22   -1    0    0    0    0  0.00000000000E+00  0.00000000000E+00  0.21620317891E+04  0.21620317891E+04  0.00000000000E+00 0.  1.
         22   -1    0    0    0    0 -0.00000000000E+00 -0.00000000000E+00 -0.50010456705E+03  0.50010456705E+03  0.00000000000E+00 0.  1.
        -24    2    1    2    0    0  0.66381341756E+02 -0.19399876331E+02 -0.39428497800E+03  0.40951644621E+03  0.86372669927E+02 0.  0.
         25    2    1    2    0    0 -0.14790559804E+03  0.22436711492E+02  0.18083113597E+01  0.19501512154E+03  0.12509258845E+03 0.  0.
         24    2    1    2    0    0  0.81524256287E+02 -0.30368351607E+01  0.20544038887E+04  0.20576047884E+04  0.80664122225E+02 0.  0.
        -13    1    5    5    0    0  0.44693170578E+02 -0.41250875084E+02  0.97265861482E+03  0.97455830773E+03  0.00000000000E+00 0.  1.
         14    1    5    5    0    0  0.36831085709E+02  0.38214039923E+02  0.10817452739E+04  0.10830464806E+04  0.00000000000E+00 0. -1.
         11    1    3    3    0    0  0.32075830820E+02 -0.35159613992E+02 -0.80863157858E+02  0.93829140877E+02  0.00000000000E+00 0. -1.
        -12    1    3    3    0    0  0.34305510936E+02  0.15759737661E+02 -0.31342182014E+03  0.31568730534E+03  0.00000000000E+00 0.  1.
          5    1    4    4  501    0 -0.14875896777E+03 -0.21485871504E+02 -0.45533440112E+01  0.15042964637E+03  0.41800000000E+01 0.  1.
         -5    1    4    4    0  501  0.85336972626E+00  0.43922582996E+02  0.63616553709E+01  0.44585475168E+02  0.41800000000E+01 0.  1.
</event>
<event>
11    1  0.8479398E-009  0.1335719E+03  0.7561462E-02  0.1114956E+00
         22   -1    0    0    0    0  0.00000000000E+00  0.00000000000E+00  0.16821698012E+03  0.16821698012E+03  0.00000000000E+00 0.  1.
         22   -1    0    0    0    0 -0.00000000000E+00 -0.00000000000E+00 -0.71179664089E+03  0.71179664089E+03  0.00000000000E+00 0. -1.
         24    2    1    2    0    0  0.42648503195E+02 -0.22070995393E+02 -0.58172098771E+03  0.58856959412E+03  0.75556838973E+02 0.  0.
         25    2    1    2    0    0 -0.32891294573E+02  0.10426309132E+02 -0.75965328515E+02  0.15036144375E+03  0.12508911803E+03 0.  0.
        -24    2    1    2    0    0 -0.97572086213E+01  0.11644686261E+02  0.11410665546E+03  0.14108258314E+03  0.81566933304E+02 0.  0.
        -13    1    3    3    0    0  0.20864144847E+00 -0.77953210917E+00  0.23948330225E+01  0.25271380589E+01  0.00000000000E+00 0.  1.
         14    1    3    3    0    0  0.42439861746E+02 -0.21291463284E+02 -0.58411582073E+03  0.58604245606E+03  0.00000000000E+00 0. -1.
         11    1    5    5    0    0 -0.21298992839E+02 -0.30341668747E+02  0.69364458667E+02  0.78649170908E+02  0.00000000000E+00 0. -1.
        -12    1    5    5    0    0  0.11541784217E+02  0.41986355008E+02  0.44742196791E+02  0.62433412236E+02  0.00000000000E+00 0.  1.
          5    1    4    4  501    0 -0.37849085877E+02 -0.26418845735E+02  0.17614285378E+02  0.49580683346E+02  0.41800000000E+01 0. -1.
         -5    1    4    4    0  501  0.49577913035E+01  0.36845154867E+02 -0.93579613893E+02  0.10078076041E+03  0.41800000000E+01 0. -1.
</event>
<event>
11    1  0.8479398E-009  0.1351624E+03  0.7561462E-02  0.1113084E+00
         22   -1    0    0    0    0  0.00000000000E+00  0.00000000000E+00  0.90599324845E+03  0.90599324845E+03  0.00000000000E+00 0.  1.
         22   -1    0    0    0    0 -0.00000000000E+00 -0.00000000000E+00 -0.99986324914E+03  0.99986324914E+03  0.00000000000E+00 0. -1.
         24    2    1    2    0    0 -0.74539904549E+00 -0.43833266985E+01 -0.92423139815E+03  0.92761507106E+03  0.79033369882E+02 0.  0.
         25    2    1    2    0    0  0.41735893341E+02  0.34857197178E+02 -0.59695353802E+01  0.13653045880E+03  0.12509205346E+03 0.  0.
        -24    2    1    2    0    0 -0.40990494296E+02 -0.30473870479E+02  0.83633093284E+03  0.84171096774E+03  0.80118952725E+02 0.  0.
        -13    1    3    3    0    0  0.28062535441E+02 -0.66232016062E+01 -0.14450925079E+03  0.14735771530E+03  0.00000000000E+00 0.  1.
         14    1    3    3    0    0 -0.28807934486E+02  0.22398749077E+01 -0.77972214736E+03  0.78025735576E+03  0.00000000000E+00 0. -1.
         11    1    5    5    0    0 -0.14813157832E+02  0.17921822334E+01  0.23617513254E+02  0.27936150315E+02  0.00000000000E+00 0. -1.
        -12    1    5    5    0    0 -0.26177336464E+02 -0.32266052712E+02  0.81271341959E+03  0.81377481743E+03  0.00000000000E+00 0.  1.
          5    1    4    4  501    0  0.12711018978E+02 -0.26878818543E+02  0.43004414601E+02  0.52448955804E+02  0.41800000000E+01 0.  1.
         -5    1    4    4    0  501  0.29024874363E+02  0.61736015720E+02 -0.48973949982E+02  0.84081502993E+02  0.41800000000E+01 0.  1.
</event>
<event>
11    1  0.8479398E-009  0.1786891E+03  0.7561462E-02  0.1070708E+00
         22   -1    0    0    0    0  0.00000000000E+00  0.00000000000E+00  0.21978262098E+03  0.21978262098E+03  0.00000000000E+00 0. -1.
         22   -1    0    0    0    0 -0.00000000000E+00 -0.00000000000E+00 -0.10905263447E+04  0.10905263447E+04  0.00000000000E+00 0. -1.
         24    2    1    2    0    0  0.74177733196E+02 -0.10103008378E+03 -0.72876275137E+03  0.74379279207E+03  0.80144593192E+02 0.  0.
         25    2    1    2    0    0 -0.75221459619E+02  0.11219069508E+03 -0.32169526438E+03  0.37064836846E+03  0.12508936750E+03 0.  0.
        -24    2    1    2    0    0  0.10437264231E+01 -0.11160611301E+02  0.17971429204E+03  0.19586780516E+03  0.77079969659E+02 0.  0.
        -13    1    3    3    0    0  0.37130934739E+02 -0.14974327224E+02 -0.94264436389E+02  0.10241445581E+03  0.00000000000E+00 0.  1.
         14    1    3    3    0    0  0.37046798457E+02 -0.86055756555E+02 -0.63449831498E+03  0.64137833626E+03  0.00000000000E+00 0. -1.
         11    1    5    5    0    0 -0.18700037170E+02  0.17971139359E+02  0.14174296445E+03  0.14409622206E+03  0.00000000000E+00 0. -1.
        -12    1    5    5    0    0  0.19743763593E+02 -0.29131750660E+02  0.37971327592E+02  0.51771583098E+02  0.00000000000E+00 0.  1.
          5    1    4    4  501    0 -0.10767488527E+03  0.77314972280E+02 -0.20086357087E+03  0.24069717979E+03  0.41800000000E+01 0. -1.
         -5    1    4    4    0  501  0.32453425653E+02  0.34875722801E+02 -0.12083169351E+03  0.12995118866E+03  0.41800000000E+01 0. -1.
</event>
<event>
11    1  0.8479398E-009  0.1332861E+03  0.7561462E-02  0.1115296E+00
         22   -1    0    0    0    0  0.00000000000E+00  0.00000000000E+00  0.17151267347E+04  0.17151267347E+04  0.00000000000E+00 0.  1.
         22   -1    0    0    0    0 -0.00000000000E+00 -0.00000000000E+00 -0.47788086034E+02  0.47788086034E+02  0.00000000000E+00 0.  1.
        -24    2    1    2    0    0  0.44528639466E+02 -0.93879266864E+01  0.10850722388E+02  0.90565281422E+02  0.77546109654E+02 0.  0.
         25    2    1    2    0    0 -0.50657848371E+02  0.20156776768E+02  0.76284887934E+03  0.77495697764E+03  0.12508953286E+03 0.  0.
         24    2    1    2    0    0  0.61292089050E+01 -0.10768850082E+02  0.89363904693E+03  0.89739256167E+03  0.81050158530E+02 0.  0.
        -11    1    5    5    0    0  0.41589280959E+02 -0.17194856352E+02  0.56283055582E+03  0.56462692633E+03  0.00000000000E+00 0.  1.
         12    1    5    5    0    0 -0.35460072054E+02  0.64260062705E+01  0.33080849111E+03  0.33276563534E+03  0.00000000000E+00 0. -1.
         11    1    3    3    0    0  0.19759871278E+02 -0.17582740703E+02  0.42185219176E+02  0.49791545472E+02  0.00000000000E+00 0. -1.
        -12    1    3    3    0    0  0.24768768188E+02  0.81948140169E+01 -0.31334496788E+02  0.40773735950E+02  0.00000000000E+00 0.  1.
          5    1    4    4  501    0 -0.44588845846E+02 -0.20306605771E+02  0.68629378540E+03  0.68805316342E+03  0.41800000000E+01 0.  1.
         -5    1    4    4    0  501 -0.60690025250E+01  0.40463382539E+02  0.76555093944E+02  0.86903814225E+02  0.41800000000E+01 0.  1.
</event>
<event>
11    1  0.8479398E-009  0.1320218E+03  0.7561462E-02  0.1116810E+00
         22   -1    0    0    0    0  0.00000000000E+00  0.00000000000E+00  0.46788396040E+02  0.46788396040E+02  0.00000000000E+00 0. -1.
         22   -1    0    0    0    0 -0.00000000000E+00 -0.00000000000E+00 -0.12822328015E+04  0.12822328015E+04  0.00000000000E+00 0.  1.
         24    2    1    2    0    0 -0.20067079270E+02 -0.38939738889E+02 -0.74813549823E+03  0.75362943206E+03  0.79571390677E+02 0.  0.
         25    2    1    2    0    0  0.16691194862E+02  0.33245569712E+02 -0.47761232759E+03  0.49512013072E+03  0.12508614828E+03 0.  0.
        -24    2    1    2    0    0  0.33758844074E+01  0.56941691776E+01 -0.96965796174E+01  0.80271634736E+02  0.79408384499E+02 0.  0.
        -13    1    3    3    0    0 -0.22255790457E+02 -0.58605510419E+02 -0.67364601415E+03  0.67655663358E+03  0.00000000000E+00 0.  1.
         14    1    3    3    0    0  0.21887111875E+01  0.19665771529E+02 -0.74489484079E+02  0.77072798476E+02  0.00000000000E+00 0. -1.
         11    1    5    5    0    0 -0.27433570670E+02 -0.24001532193E+02 -0.86727566427E+01  0.37468534200E+02  0.00000000000E+00 0. -1.
        -12    1    5    5    0    0  0.30809455077E+02  0.29695701371E+02 -0.10238229746E+01  0.42803100536E+02  0.00000000000E+00 0.  1.
          5    1    4    4  501    0 -0.10718130221E+02 -0.26406829510E+02 -0.26191153575E+02  0.38931322683E+02  0.41800000000E+01 0.  1.
         -5    1    4    4    0  501  0.27409325083E+02  0.59652399222E+02 -0.45142117401E+03  0.45618880804E+03  0.41800000000E+01 0.  1.
</event>
<event>
11    1  0.8479398E-009  0.1712586E+03  0.7561462E-02  0.1076942E+00
         22   -1    0    0    0    0  0.00000000000E+00  0.00000000000E+00  0.23783511307E+03  0.23783511307E+03  0.00000000000E+00 0.  1.
         22   -1    0    0    0    0 -0.00000000000E+00 -0.00000000000E+00 -0.10963324514E+04  0.10963324514E+04  0.00000000000E+00 0.  1.
         24    2    1    2    0    0 -0.12978123868E+02  0.19196274804E+02 -0.57897122943E+03  0.58493911369E+03  0.80057189230E+02 0.  0.
         25    2    1    2    0    0 -0.44696476745E+02 -0.12043391876E+03 -0.47526371365E+03  0.50796159444E+03  0.12508908860E+03 0.  0.
        -24    2    1    2    0    0  0.57674600613E+02  0.10123764396E+03  0.19573760477E+03  0.24126685633E+03  0.79505131486E+02 0.  0.
        -11    1    3    3    0    0 -0.31349924331E+02 -0.20813738809E+02 -0.32608631141E+03  0.32825038000E+03  0.00000000000E+00 0.  1.
         12    1    3    3    0    0  0.18371800463E+02  0.40010013613E+02 -0.25288491802E+03  0.25668873369E+03  0.00000000000E+00 0. -1.
         13    1    5    5    0    0 -0.16749023845E+00  0.57825857740E+01 -0.74560430648E+01  0.94371038671E+01  0.00000000000E+00 0. -1.
        -14    1    5    5    0    0  0.57842090851E+02  0.95455058185E+02  0.20319364784E+03  0.23182975247E+03  0.00000000000E+00 0.  1.
          5    1    4    4  501    0 -0.31074308870E+02 -0.34408629251E+02 -0.36220018403E+03  0.36517942460E+03  0.41800000000E+01 0.  1.
         -5    1    4    4    0  501 -0.13622167874E+02 -0.86025289512E+02 -0.11306352962E+03  0.14278216984E+03  0.41800000000E+01 0.  1.
</event>
<event>
11    1  0.8479398E-009  0.1312436E+03  0.7561462E-02  0.1117750E+00
         22   -1    0    0    0    0  0.00000000000E+00  0.00000000000E+00  0.17042134366E+04  0.17042134366E+04  0.00000000000E+00 0. -1.
         22   -1    0    0    0    0 -0.00000000000E+00 -0.00000000000E+00 -0.11303290282E+04  0.11303290282E+04  0.00000000000E+00 0.  1.
         24    2    1    2    0    0 -0.32758416610E+02 -0.15386343872E+02 -0.11165047021E+04  0.11200993150E+04  0.82035798029E+02 0.  0.
         25    2    1    2    0    0 -0.24055499116E+01 -0.11556224476E+02  0.36653544741E+03  0.38747146358E+03  0.12508624179E+03 0.  0.
        -24    2    1    2    0    0  0.35163966522E+02  0.26942568347E+02  0.13238536631E+04  0.13269716862E+04  0.79390983143E+02 0.  0.
        -13    1    3    3    0    0 -0.56148885520E+01 -0.37151043367E+02 -0.24169507987E+03  0.24459811657E+03  0.00000000000E+00 0.  1.
         14    1    3    3    0    0 -0.27143528058E+02  0.21764699495E+02 -0.87480962227E+03  0.87550119844E+03  0.00000000000E+00 0. -1.
         11    1    5    5    0    0 -0.97504342155E+01  0.31838733875E+02  0.91931995472E+03  0.91992279844E+03  0.00000000000E+00 0. -1.
        -12    1    5    5    0    0  0.44914400737E+02 -0.48961655279E+01  0.40453370839E+03  0.40704888779E+03  0.00000000000E+00 0.  1.
          5    1    4    4  501    0 -0.21573486954E+02 -0.14365383505E+02  0.36671357910E+03  0.36765214684E+03  0.41800000000E+01 0. -1.
         -5    1    4    4    0  501  0.19167937042E+02  0.28091590290E+01 -0.17813169048E+00  0.19819316734E+02  0.41800000000E+01 0. -1.
</event>
<event>
11    1  0.8479398E-009  0.1283240E+03  0.7561462E-02  0.1121346E+00
         22   -1    0    0    0    0  0.00000000000E+00  0.00000000000E+00  0.86554534749E+03  0.86554534749E+03  0.00000000000E+00 0.  1.
         22   -1    0    0    0    0 -0.00000000000E+00 -0.00000000000E+00 -0.39336477055E+03  0.39336477055E+03  0.00000000000E+00 0.  1.
         24    2    1    2    0    0  0.15679885914E+02  0.25065693740E+02 -0.32087460312E+03  0.33554755433E+03  0.93581528429E+02 0.  0.
         25    2    1    2    0    0 -0.46559462801E+02  0.10282284788E+02  0.92769224658E+01  0.13419412805E+03  0.12509393973E+03 0.  0.
        -24    2    1    2    0    0  0.30879576887E+02 -0.35347978527E+02  0.78377825760E+03  0.78916843566E+03  0.79217642585E+02 0.  0.
        -11    1    3    3    0    0 -0.82974694420E+01  0.57268704720E+02 -0.19769797780E+03  0.20599282260E+03  0.00000000000E+00 0.  1.
         12    1    3    3    0    0  0.23977355356E+02 -0.32203010980E+02 -0.12317662533E+03  0.12955473173E+03  0.00000000000E+00 0. -1.
         13    1    5    5    0    0  0.12747056221E+02 -0.16627637989E+02  0.42031475360E+02  0.46963929865E+02  0.00000000000E+00 0. -1.
        -14    1    5    5    0    0  0.18132520666E+02 -0.18720340538E+02  0.74174678224E+03  0.74220450579E+03  0.00000000000E+00 0.  1.
          5    1    4    4  501    0  0.18418727366E+02 -0.44709166746E+02  0.74211434281E+00  0.48540521656E+02  0.41800000000E+01 0. -1.
         -5    1    4    4    0  501 -0.64978190167E+02  0.54991451534E+02  0.85348081229E+01  0.85653606398E+02  0.41800000000E+01 0. -1.
</event>
<event>
11    1  0.8479398E-009  0.1905163E+03  0.7561462E-02  0.1061440E+00
         22   -1    0    0    0    0  0.00000000000E+00  0.00000000000E+00  0.12226444458E+04  0.12226444458E+04  0.00000000000E+00 0. -1.
         22   -1    0    0    0    0 -0.00000000000E+00 -0.00000000000E+00 -0.94216193970E+03  0.94216193970E+03  0.00000000000E+00 0.  1.
        -24    2    1    2    0    0  0.38010435904E+02  0.72075252926E+02 -0.88530089866E+03  0.89236274594E+03  0.76902235696E+02 0.  0.
         25    2    1    2    0    0 -0.13010756809E+03 -0.16893720668E+03  0.28190363894E+03  0.37494680919E+03  0.12509072307E+03 0.  0.
         24    2    1    2    0    0  0.92097132187E+02  0.96861953750E+02  0.88387976584E+03  0.89749683039E+03  0.79956239660E+02 0.  0.
        -13    1    5    5    0    0 -0.19474030112E+01  0.29345729405E+02  0.78307150971E+02  0.83647917523E+02  0.00000000000E+00 0.  1.
         14    1    5    5    0    0  0.94044535198E+02  0.67516224346E+02  0.80557261487E+03  0.81384891287E+03  0.00000000000E+00 0. -1.
         11    1    3    3    0    0 -0.41484212508E+01 -0.49001476506E+01 -0.63128229868E+01  0.90040313157E+01  0.00000000000E+00 0. -1.
        -12    1    3    3    0    0  0.42158857155E+02  0.76975400577E+02 -0.87898807567E+03  0.88335871463E+03  0.00000000000E+00 0.  1.
          5    1    4    4  501    0 -0.67159772520E+02 -0.16193316254E+03  0.15941227313E+03  0.23698634855E+03  0.41800000000E+01 0.  1.
         -5    1    4    4    0  501 -0.62947795571E+02 -0.70040441411E+01  0.12249136581E+03  0.13796046064E+03  0.41800000000E+01 0.  1.
</event>
<event>
11    1  0.8479398E-009  0.1381915E+03  0.7561462E-02  0.1109595E+00
         22   -1    0    0    0    0  0.00000000000E+00  0.00000000000E+00  0.78578915462E+03  0.78578915462E+03  0.00000000000E+00 0. -1.
         22   -1    0    0    0    0 -0.00000000000E+00 -0.00000000000E+00 -0.31845408157E+03  0.31845408157E+03  0.00000000000E+00 0. -1.
         24    2    1    2    0    0 -0.22612693776E+02  0.34369088991E+02 -0.26990961056E+03  0.28558449414E+03  0.83754028106E+02 0.  0.
         25    2    1    2    0    0  0.49321182088E+02  0.19916867591E+02  0.87435317348E+02  0.16162144425E+03  0.12508915183E+03 0.  0.
        -24    2    1    2    0    0 -0.26708488312E+02 -0.54285956581E+02  0.64980936626E+03  0.65703729779E+03  0.76062407172E+02 0.  0.
        -11    1    3    3    0    0 -0.98693560978E+01  0.14344048100E+02 -0.30562325423E+01  0.17677569489E+02  0.00000000000E+00 0.  1.
         12    1    3    3    0    0 -0.12743337678E+02  0.20025040891E+02 -0.26685337801E+03  0.26790692465E+03  0.00000000000E+00 0. -1.
         13    1    5    5    0    0 -0.49453918105E+02 -0.33138564757E+02  0.52741418710E+03  0.53076320450E+03  0.00000000000E+00 0. -1.
        -14    1    5    5    0    0  0.22745429793E+02 -0.21147391824E+02  0.12239517915E+03  0.12627409330E+03  0.00000000000E+00 0.  1.
          5    1    4    4  501    0  0.41428059721E+01 -0.12175507405E+02  0.10301976719E+03  0.10390356420E+03  0.41800000000E+01 0.  1.
         -5    1    4    4    0  501  0.45178376116E+02  0.32092374996E+02 -0.15584449838E+02  0.57717880056E+02  0.41800000000E+01 0.  1.
</event>
<event>
11    1  0.8479398E-009  0.1534964E+03  0.7561462E-02  0.1093359E+00
         22   -1    0    0    0    0  0.00000000000E+00  0.00000000000E+00  0.13290769830E+04  0.13290769830E+04  0.00000000000E+00 0.  1.
         22   -1    0    0    0    0 -0.00000000000E+00 -0.00000000000E+00 -0.65176258703E+03  0.65176258703E+03  0.00000000000E+00 0. -1.
        -24    2    1    2    0    0 -0.83868364592E+02 -0.31459902659E+02 -0.60611431887E+03  0.61834201745E+03  0.83358592545E+02 0.  0.
         25    2    1    2    0    0  0.70961191447E+02  0.24003384882E+02  0.10114576292E+03  0.17745417906E+03  0.12509143509E+03 0.  0.
         24    2    1    2    0    0  0.12907173145E+02  0.74565177762E+01  0.11822829519E+04  0.11850433735E+04  0.79452023102E+02 0.  0.
        -13    1    5    5    0    0  0.87570132531E+01  0.43054590333E+02  0.55428462007E+03  0.55602322171E+03  0.00000000000E+00 0.  1.
         14    1    5    5    0    0  0.41501598921E+01 -0.35598072557E+02  0.62799833184E+03  0.62902015182E+03  0.00000000000E+00 0. -1.
         13    1    3    3    0    0 -0.90714724241E+02 -0.21211505638E+02 -0.59327319838E+03  0.60054323498E+03  0.00000000000E+00 0. -1.
        -14    1    3    3    0    0  0.68463596492E+01 -0.10248397021E+02 -0.12841120489E+02  0.17798782468E+02  0.00000000000E+00 0.  1.
          5    1    4    4  501    0 -0.21758571889E+01 -0.23963848150E+02  0.84968623200E+02  0.88408934510E+02  0.41800000000E+01 0.  1.
         -5    1    4    4    0  501  0.73137048636E+02  0.47967233033E+02  0.16177139722E+02  0.89045244553E+02  0.41800000000E+01 0.  1.
</event>
<event>
11    1  0.8479398E-009  0.1440962E+03  0.7561462E-02  0.1103069E+00
         22   -1    0    0    0    0  0.00000000000E+00  0.00000000000E+00  0.35192166147E+03  0.35192166147E+03  0.00000000000E+00 0.  1.
         22   -1    0    0    0    0 -0.00000000000E+00 -0.00000000000E+00 -0.69861319335E+03  0.69861319335E+03  0.00000000000E+00 0. -1.
        -24    2    1    2    0    0 -0.63261450919E+02 -0.32115411894E+02 -0.61806755578E+03  0.62885921139E+03  0.91776867384E+02 0.  0.
         25    2    1    2    0    0  0.57199554482E+02  0.64804669747E+02  0.17893473765E+02  0.15309773659E+03  0.12508919335E+03 0.  0.
         24    2    1    2    0    0  0.60618964373E+01 -0.32689257853E+02  0.25348255013E+03  0.26857790684E+03  0.82312542513E+02 0.  0.
        -13    1    5    5    0    0 -0.22515983488E+02 -0.13901752849E+02  0.21686287282E+03  0.21847135705E+03  0.00000000000E+00 0.  1.
         14    1    5    5    0    0  0.28577879925E+02 -0.18787505005E+02  0.36619677309E+02  0.50106549787E+02  0.00000000000E+00 0. -1.
         11    1    3    3    0    0 -0.30822317165E+02 -0.50724430824E+02 -0.52814812477E+03  0.53147288249E+03  0.00000000000E+00 0. -1.
        -12    1    3    3    0    0 -0.32439133755E+02  0.18609018930E+02 -0.89919431007E+02  0.97386328902E+02  0.00000000000E+00 0.  1.
          5    1    4    4  501    0  0.71620670510E+01 -0.33124977374E+02  0.25746681699E+02  0.42765913401E+02  0.41800000000E+01 0. -1.
         -5    1    4    4    0  501  0.50037487431E+02  0.97929647122E+02 -0.78532079336E+01  0.11033182319E+03  0.41800000000E+01 0. -1.
</event>
<event>
11    1  0.8479398E-009  0.3018653E+03  0.7561462E-02  0.9994049E-01
         22   -1    0    0    0    0  0.00000000000E+00  0.00000000000E+00  0.35799038019E+03  0.35799038019E+03  0.00000000000E+00 0.  1.
         22   -1    0    0    0    0 -0.00000000000E+00 -0.00000000000E+00 -0.14456394338E+04  0.14456394338E+04  0.00000000000E+00 0.  1.
         24    2    1    2    0    0  0.36020335811E+02  0.38181214896E+01 -0.11026023210E+04  0.11059458233E+04  0.77924598406E+02 0.  0.
         25    2    1    2    0    0 -0.29878679102E+03  0.43441964755E+02 -0.16483966589E+03  0.36603366629E+03  0.12509108128E+03 0.  0.
        -24    2    1    2    0    0  0.26276645521E+03 -0.47260086244E+02  0.17979293333E+03  0.33165032441E+03  0.79916913559E+02 0.  0.
        -13    1    3    3    0    0  0.31337406843E+02 -0.20136469253E+02 -0.99125778700E+03  0.99195741378E+03  0.00000000000E+00 0.  1.
         14    1    3    3    0    0  0.46829289683E+01  0.23954590743E+02 -0.11134453403E+03  0.11398840950E+03  0.00000000000E+00 0. -1.
         13    1    5    5    0    0  0.39648173674E+02 -0.37187802514E+02  0.24516402805E+02  0.59631907046E+02  0.00000000000E+00 0. -1.
        -14    1    5    5    0    0  0.22311828154E+03 -0.10072283730E+02  0.15527653052E+03  0.27201841737E+03  0.00000000000E+00 0.  1.
          5    1    4    4  501    0 -0.26858099428E+03  0.57203766682E+02 -0.18096211948E+03  0.32889630964E+03  0.41800000000E+01 0. -1.
         -5    1    4    4    0  501 -0.30205796741E+02 -0.13761801927E+02  0.16122453588E+02  0.37137356647E+02  0.41800000000E+01 0. -1.
</event>
<event>
11    1  0.8479398E-009  0.1554115E+03  0.7561462E-02  0.1091474E+00
         22   -1    0    0    0    0  0.00000000000E+00  0.00000000000E+00  0.23729021440E+03  0.23729021440E+03  0.00000000000E+00 0.  1.
         22   -1    0    0    0    0 -0.00000000000E+00 -0.00000000000E+00 -0.75624851522E+03  0.75624851522E+03  0.00000000000E+00 0. -1.
        -24    2    1    2    0    0  0.24730992897E+02  0.51692154575E+02 -0.66039495982E+03  0.66783079771E+03  0.81195877721E+02 0.  0.
         25    2    1    2    0    0 -0.51559966964E+02 -0.12105710749E+03  0.66576690420E+02  0.19338496927E+03  0.12510810192E+03 0.  0.
         24    2    1    2    0    0  0.26828974067E+02  0.69364952918E+02  0.74859968584E+02  0.13232296264E+03  0.79837716660E+02 0.  0.
        -13    1    5    5    0    0  0.37576068834E+02  0.61115484233E+02  0.87939133692E+02  0.11349164990E+03  0.00000000000E+00 0.  1.
         14    1    5    5    0    0 -0.10747094767E+02  0.82494686841E+01 -0.13079165108E+02  0.18831312738E+02  0.00000000000E+00 0. -1.
         11    1    3    3    0    0  0.39007616794E+02  0.21077099173E+02 -0.56301664953E+03  0.56475975948E+03  0.00000000000E+00 0. -1.
        -12    1    3    3    0    0 -0.14276623896E+02  0.30615055402E+02 -0.97378310291E+02  0.10307103823E+03  0.00000000000E+00 0.  1.
          5    1    4    4  501    0  0.11209211105E+02 -0.99177207047E+02  0.97871704937E+00  0.99900926414E+02  0.41800000000E+01 0.  1.
         -5    1    4    4    0  501 -0.62769178069E+02 -0.21879900446E+02  0.65597973371E+02  0.93484042860E+02  0.41800000000E+01 0.  1.
</event>
<event>
11    1  0.1269839E-008  0.1907990E+03  0.7561462E-02  0.1061228E+00
         22   -1    0    0    0    0  0.00000000000E+00  0.00000000000E+00  0.59555965546E+03  0.59555965546E+03  0.00000000000E+00 0.  1.
         22   -1    0    0    0    0 -0.00000000000E+00 -0.00000000000E+00 -0.78996581662E+03  0.78996581662E+03  0.00000000000E+00 0.  1.
         24    2    1    2    0    0 -0.30571396104E+02 -0.18856500697E+02 -0.56637586050E+03  0.57331064760E+03  0.81322231960E+02 0.  0.
         25    2    1    2    0    0 -0.41863270021E+02  0.14330712094E+03 -0.16199086893E+03  0.25333954658E+03  0.12510163849E+03 0.  0.
        -24    2    1    2    0    0  0.72434666125E+02 -0.12445062024E+03  0.53396056828E+03  0.55887527790E+03  0.80578843650E+02 0.  0.
        -13    1    3    3    0    0 -0.55101821526E+01 -0.84700987378E+01 -0.51596422026E+03  0.51606315628E+03  0.00000000000E+00 0.  1.
         14    1    3    3    0    0 -0.25061213951E+02 -0.10386401960E+02 -0.50411640241E+02  0.57247491318E+02  0.00000000000E+00 0. -1.
         13    1    5    5    0    0 -0.14755333982E+01  0.10218633393E+02  0.20910498058E+02  0.23320518782E+02  0.00000000000E+00 0. -1.
        -14    1    5    5    0    0  0.73910199523E+02 -0.13466925364E+03  0.51305007022E+03  0.53555475912E+03  0.00000000000E+00 0.  1.
          5    1    4    4  501    0 -0.30304042589E+02  0.13512604793E+03 -0.61178924143E+02  0.15145202866E+03  0.41800000000E+01 0.  1.
         -5    1    4    4    0  501 -0.11559227432E+02  0.81810730087E+01 -0.10081194479E+03  0.10188751791E+03  0.41800000000E+01 0.  1.
</event>
<event>
11    1  0.8479398E-009  0.1418644E+03  0.7561462E-02  0.1105494E+00
         22   -1    0    0    0    0  0.00000000000E+00  0.00000000000E+00  0.47799398295E+02  0.47799398295E+02  0.00000000000E+00 0. -1.
         22   -1    0    0    0    0 -0.00000000000E+00 -0.00000000000E+00 -0.17309532199E+04  0.17309532199E+04  0.00000000000E+00 0. -1.
        -24    2    1    2    0    0  0.68540846065E+02 -0.19533017272E+01 -0.12525328148E+04  0.12569403116E+04  0.79742283846E+02 0.  0.
         25    2    1    2    0    0 -0.56530387934E+02  0.28754295858E+02 -0.41081802605E+03  0.43409830662E+03  0.12508954788E+03 0.  0.
         24    2    1    2    0    0 -0.12010458130E+02 -0.26800994131E+02 -0.19802980703E+02  0.87713999918E+02  0.80243649880E+02 0.  0.
        -11    1    5    5    0    0  0.24383210283E+02  0.57662711913E+01  0.13635439829E+02  0.28525708519E+02  0.00000000000E+00 0.  1.
         12    1    5    5    0    0 -0.36393668414E+02 -0.32567265322E+02 -0.33438420532E+02  0.59188291400E+02  0.00000000000E+00 0. -1.
         11    1    3    3    0    0  0.39525605013E+02 -0.36054042126E+02 -0.89786140888E+03  0.89945387706E+03  0.00000000000E+00 0. -1.
        -12    1    3    3    0    0  0.29015241052E+02  0.34100740399E+02 -0.35467140595E+03  0.35748643458E+03  0.00000000000E+00 0.  1.
          5    1    4    4  501    0 -0.92092998103E+02 -0.31414171191E+01 -0.27600841130E+03  0.29101392460E+03  0.41800000000E+01 0. -1.
         -5    1    4    4    0  501  0.35562610169E+02  0.31895712977E+02 -0.13480961475E+03  0.14308438202E+03  0.41800000000E+01 0. -1.
</event>
<event>
11    1  0.8479398E-009  0.1633862E+03  0.7561462E-02  0.1083935E+00
         22   -1    0    0    0    0  0.00000000000E+00  0.00000000000E+00  0.68145405016E+03  0.68145405016E+03  0.00000000000E+00 0. -1.
         22   -1    0    0    0    0 -0.00000000000E+00 -0.00000000000E+00 -0.54062691818E+03  0.54062691818E+03  0.00000000000E+00 0.  1.
        -24    2    1    2    0    0  0.39930892964E+02  0.11970846524E+02 -0.45732516993E+03  0.46612705360E+03  0.79939612611E+02 0.  0.
         25    2    1    2    0    0  0.65763238590E+02  0.14894285517E+02 -0.76776186558E+00  0.14210298773E+03  0.12508407721E+03 0.  0.
         24    2    1    2    0    0 -0.10569413155E+03 -0.26865132041E+02  0.59892006377E+03  0.61385092701E+03  0.78833578136E+02 0.  0.
        -11    1    5    5    0    0 -0.77431543108E+02 -0.71912951982E+01  0.21944085440E+03  0.23281247212E+03  0.00000000000E+00 0.  1.
         12    1    5    5    0    0 -0.28262588445E+02 -0.19673836842E+02  0.37947920938E+03  0.38103845490E+03  0.00000000000E+00 0. -1.
         11    1    3    3    0    0  0.63099291845E+01  0.43021699556E+02 -0.18994194308E+03  0.19485539146E+03  0.00000000000E+00 0. -1.
        -12    1    3    3    0    0  0.33620963779E+02 -0.31050853032E+02 -0.26738322684E+03  0.27127166214E+03  0.00000000000E+00 0.  1.
          5    1    4    4  501    0  0.78590247137E+01 -0.21186203120E+02  0.51277189135E+02  0.56191120274E+02  0.41800000000E+01 0. -1.
         -5    1    4    4    0  501  0.57904213876E+02  0.36080488637E+02 -0.52044951001E+02  0.85911867455E+02  0.41800000000E+01 0. -1.
</event>
<event>
11    1  0.8479398E-009  0.1306558E+03  0.7561462E-02  0.1118466E+00
         22   -1    0    0    0    0  0.00000000000E+00  0.00000000000E+00  0.40918459901E+03  0.40918459901E+03  0.00000000000E+00 0.  1.
         22   -1    0    0    0    0 -0.00000000000E+00 -0.00000000000E+00 -0.10009744967E+03  0.10009744967E+03  0.00000000000E+00 0. -1.
         24    2    1    2    0    0  0.32770967948E+02 -0.11426726038E+02 -0.38072471836E+02  0.94593957070E+02  0.79334716199E+02 0.  0.
         25    2    1    2    0    0 -0.56753294402E+02  0.16065073760E+02  0.17318270206E+03  0.22162634299E+03  0.12508782753E+03 0.  0.
        -24    2    1    2    0    0  0.23982326455E+02 -0.46383477214E+01  0.17397691911E+03  0.19306174861E+03  0.80051259464E+02 0.  0.
        -13    1    3    3    0    0 -0.13087993371E+02 -0.26496285221E+02  0.49121647565E+01  0.29957938240E+02  0.00000000000E+00 0.  1.
         14    1    3    3    0    0  0.45858961319E+02  0.15069559183E+02 -0.42984636592E+02  0.64636018830E+02  0.00000000000E+00 0. -1.
         13    1    5    5    0    0  0.21466301795E+01  0.25486382399E+02  0.14706487561E+02  0.29503296177E+02  0.00000000000E+00 0. -1.
        -14    1    5    5    0    0  0.21835696275E+02 -0.30124730121E+02  0.15927043155E+03  0.16355845243E+03  0.00000000000E+00 0.  1.
          5    1    4    4  501    0  0.14866658010E+02  0.53703865447E+02  0.55543135570E+02  0.78788546079E+02  0.41800000000E+01 0.  1.
         -5    1    4    4    0  501 -0.71619952412E+02 -0.37638791687E+02  0.11763956649E+03  0.14283779692E+03  0.41800000000E+01 0.  1.
</event>
<event>
11    1  0.8479398E-009  0.1652698E+03  0.7561462E-02  0.1082223E+00
         22   -1    0    0    0    0  0.00000000000E+00  0.00000000000E+00  0.93672821069E+03  0.93672821069E+03  0.00000000000E+00 0.  1.
         22   -1    0    0    0    0 -0.00000000000E+00 -0.00000000000E+00 -0.52514180416E+03  0.52514180416E+03  0.00000000000E+00 0.  1.
        -24    2    1    2    0    0 -0.69762179027E+02 -0.85144594256E+02 -0.49078645203E+03  0.50939948753E+03  0.80623401340E+02 0.  0.
         25    2    1    2    0    0  0.79095964605E+02 -0.83545967033E+01  0.26854459571E+03  0.30674000489E+03  0.12508900754E+03 0.  0.
         24    2    1    2    0    0 -0.93337855783E+01  0.93499190959E+02  0.63382826284E+03  0.64573052244E+03  0.80002641023E+02 0.  0.
        -11    1    5    5    0    0 -0.33006434052E+02  0.67539476117E+02  0.54576583824E+03  0.55091864709E+03  0.00000000000E+00 0.  1.
         12    1    5    5    0    0  0.23672648474E+02  0.25959714843E+02  0.88062424602E+02  0.94811875350E+02  0.00000000000E+00 0. -1.
         13    1    3    3    0    0 -0.19136212934E+02  0.10311824177E+02 -0.36878751067E+02  0.42808534705E+02  0.00000000000E+00 0. -1.
        -14    1    3    3    0    0 -0.50625966093E+02 -0.95456418433E+02 -0.45390770096E+03  0.46659095282E+03  0.00000000000E+00 0.  1.
          5    1    4    4  501    0  0.10616323500E+03  0.86494121626E+01  0.24385070786E+03  0.26613170597E+03  0.41800000000E+01 0.  1.
         -5    1    4    4    0  501 -0.27067270392E+02 -0.17004008866E+02  0.24693887849E+02  0.40608298919E+02  0.41800000000E+01 0.  1.
</event>
<event>
11    1  0.8479398E-009  0.1446280E+03  0.7561462E-02  0.1102498E+00
         22   -1    0    0    0    0  0.00000000000E+00  0.00000000000E+00  0.30299892935E+04  0.30299892935E+04  0.00000000000E+00 0. -1.
         22   -1    0    0    0    0 -0.00000000000E+00 -0.00000000000E+00 -0.89226075886E+03  0.89226075886E+03  0.00000000000E+00 0. -1.
         24    2    1    2    0    0  0.49381004893E+02 -0.35076132940E+02 -0.86386731144E+03  0.86957128849E+03  0.78858577465E+02 0.  0.
         25    2    1    2    0    0  0.24558467476E+02  0.22140120624E+02  0.14733673449E+03  0.19608961193E+03  0.12509883817E+03 0.  0.
        -24    2    1    2    0    0 -0.73939472370E+02  0.12936012316E+02  0.28542591116E+04  0.28565891519E+04  0.87590644312E+02 0.  0.
        -13    1    3    3    0    0  0.46712576662E+01  0.23196763648E+02 -0.30163611699E+03  0.30256281590E+03  0.00000000000E+00 0.  1.
         14    1    3    3    0    0  0.44709747227E+02 -0.58272896587E+02 -0.56223119445E+03  0.56700847258E+03  0.00000000000E+00 0. -1.
         13    1    5    5    0    0 -0.90131903731E+01  0.37801922841E+02  0.15419551905E+04  0.15424448232E+04  0.00000000000E+00 0. -1.
        -14    1    5    5    0    0 -0.64926281997E+02 -0.24865910525E+02  0.13123039210E+04  0.13141443287E+04  0.00000000000E+00 0.  1.
          5    1    4    4  501    0 -0.31576880304E+02 -0.68393607630E+01  0.12464724672E+03  0.12883433060E+03  0.41800000000E+01 0. -1.
         -5    1    4    4    0  501  0.56135347780E+02  0.28979481387E+02  0.22689487763E+02  0.67255281330E+02  0.41800000000E+01 0. -1.
</event>
<event>
11    1  0.8479398E-009  0.1259734E+03  0.7561462E-02  0.1124318E+00
         22   -1    0    0    0    0  0.00000000000E+00  0.00000000000E+00  0.21139036784E+03  0.21139036784E+03  0.00000000000E+00 0.  1.
         22   -1    0    0    0    0 -0.00000000000E+00 -0.00000000000E+00 -0.20804156798E+04  0.20804156798E+04  0.00000000000E+00 0. -1.
         24    2    1    2    0    0  0.14691219676E+02  0.24730912848E+00 -0.19604352486E+04  0.19622490451E+04  0.83060568058E+02 0.  0.
         25    2    1    2    0    0 -0.23508959953E+02  0.52459384127E+01 -0.75097347299E+02  0.14787463968E+03  0.12508839443E+03 0.  0.
        -24    2    1    2    0    0  0.88177402775E+01 -0.54932475412E+01  0.16650728395E+03  0.18168236284E+03  0.71943568491E+02 0.  0.
        -13    1    3    3    0    0  0.19773458507E+02 -0.33386432626E+02 -0.53384873091E+03  0.53525705137E+03  0.00000000000E+00 0.  1.
         14    1    3    3    0    0 -0.50822388311E+01  0.33633741754E+02 -0.14265865177E+04  0.14269919938E+04  0.00000000000E+00 0. -1.
         13    1    5    5    0    0  0.15268360701E+02  0.58797373708E+01  0.18035503001E+01  0.16460466085E+02  0.00000000000E+00 0. -1.
        -14    1    5    5    0    0 -0.64506204237E+01 -0.11372984912E+02  0.16470373365E+03  0.16522189676E+03  0.00000000000E+00 0.  1.
          5    1    4    4  501    0 -0.26354038193E+02 -0.57488403337E+02 -0.28117325655E+02  0.69336197251E+02  0.41800000000E+01 0.  1.
         -5    1    4    4    0  501  0.28450782398E+01  0.62734341750E+02 -0.46980021644E+02  0.78538442425E+02  0.41800000000E+01 0.  1.
</event>
<event>
11    1  0.8479398E-009  0.1342530E+03  0.7561462E-02  0.1114151E+00
         22   -1    0    0    0    0  0.00000000000E+00  0.00000000000E+00  0.21526711447E+03  0.21526711447E+03  0.00000000000E+00 0. -1.
         22   -1    0    0    0    0 -0.00000000000E+00 -0.00000000000E+00 -0.87498476056E+03  0.87498476056E+03  0.00000000000E+00 0.  1.
         24    2    1    2    0    0  0.29712672801E+02 -0.38225697118E+02 -0.77410358084E+03  0.77976175167E+03  0.80299368926E+02 0.  0.
         25    2    1    2    0    0  0.14094434368E+02  0.61309882652E+02 -0.18825074441E+02  0.14127560970E+03  0.12508740815E+03 0.  0.
        -24    2    1    2    0    0 -0.43807107169E+02 -0.23084185534E+02  0.13321100919E+03  0.16921451365E+03  0.91850075675E+02 0.  0.
        -13    1    3    3    0    0  0.12322216527E+02 -0.59797524352E+02 -0.39991096925E+03  0.40454463817E+03  0.00000000000E+00 0.  1.
         14    1    3    3    0    0  0.17390456275E+02  0.21571827234E+02 -0.37419261158E+03  0.37521711350E+03  0.00000000000E+00 0. -1.
         13    1    5    5    0    0 -0.46427300151E+02 -0.39445710300E+02  0.36340880654E+02  0.70937422191E+02  0.00000000000E+00 0. -1.
        -14    1    5    5    0    0  0.26201929818E+01  0.16361524766E+02  0.96870128536E+02  0.98277091463E+02  0.00000000000E+00 0.  1.
          5    1    4    4  501    0 -0.26567443051E+02  0.58188048616E+02 -0.56611798511E+02  0.85522196901E+02  0.41800000000E+01 0.  1.
         -5    1    4    4    0  501  0.40661877419E+02  0.31218340353E+01  0.37786724070E+02  0.55753412801E+02  0.41800000000E+01 0.  1.
</event>
<event>
11    1  0.8479398E-009  0.1534098E+03  0.7561462E-02  0.1093445E+00
         22   -1    0    0    0    0  0.00000000000E+00  0.00000000000E+00  0.12156707911E+04  0.12156707911E+04  0.00000000000E+00 0. -1.
         22   -1    0    0    0    0 -0.00000000000E+00 -0.00000000000E+00 -0.13615657336E+03  0.13615657336E+03  0.00000000000E+00 0.  1.
         24    2    1    2    0    0  0.12839617277E+02 -0.86106874103E+02 -0.82340558649E+02  0.14419361549E+03  0.80203376546E+02 0.  0.
         25    2    1    2    0    0 -0.25852009583E+02  0.10438189706E+03  0.30159505683E+03  0.34375934067E+03  0.12508796569E+03 0.  0.
        -24    2    1    2    0    0  0.13012392306E+02 -0.18275022954E+02  0.86025971958E+03  0.86387440833E+03  0.75689559467E+02 0.  0.
        -13    1    3    3    0    0  0.11798359438E+02 -0.76430301798E+02 -0.98559459529E+02  0.12527872677E+03  0.00000000000E+00 0.  1.
         14    1    3    3    0    0  0.10412578390E+01 -0.96765723046E+01  0.16218900880E+02  0.18914888718E+02  0.00000000000E+00 0. -1.
         13    1    5    5    0    0  0.43370004028E+02 -0.89873707756E+01  0.61061068847E+03  0.61221494833E+03  0.00000000000E+00 0. -1.
        -14    1    5    5    0    0 -0.30357611722E+02 -0.92876521785E+01  0.24964903111E+03  0.25165946000E+03  0.00000000000E+00 0.  1.
          5    1    4    4  501    0 -0.39264540145E+02 -0.16815981505E+02  0.75636836078E+02  0.86964847603E+02  0.41800000000E+01 0.  1.
         -5    1    4    4    0  501  0.13412530562E+02  0.12119787856E+03  0.22595822075E+03  0.25679449307E+03  0.41800000000E+01 0.  1.
</event>
<event>
11    1  0.8479398E-009  0.2063238E+03  0.7561462E-02  0.1050140E+00
         22   -1    0    0    0    0  0.00000000000E+00  0.00000000000E+00  0.18748454937E+04  0.18748454937E+04  0.00000000000E+00 0. -1.
         22   -1    0    0    0    0 -0.00000000000E+00 -0.00000000000E+00 -0.21604098898E+03  0.21604098898E+03  0.00000000000E+00 0. -1.
        -24    2    1    2    0    0  0.90393737842E+02  0.13834686669E+03 -0.13401559625E+03  0.22452859449E+03  0.71707923830E+02 0.  0.
         25    2    1    2    0    0 -0.12182549226E+03 -0.10624786351E+03  0.26067527800E+03  0.33125381241E+03  0.12508968227E+03 0.  0.
         24    2    1    2    0    0  0.31431754420E+02 -0.32099003190E+02  0.15321448230E+04  0.15351040758E+04  0.84014663679E+02 0.  0.
        -13    1    5    5    0    0 -0.41208334715E+01 -0.32662200399E+02  0.21739905862E+03  0.21987758251E+03  0.00000000000E+00 0.  1.
         14    1    5    5    0    0  0.35552587892E+02  0.56319720955E+00  0.13147457643E+04  0.13152264933E+04  0.00000000000E+00 0. -1.
         11    1    3    3    0    0  0.35309448158E+01  0.60841363264E+01 -0.39696469774E+02  0.40314935181E+02  0.00000000000E+00 0. -1.
        -12    1    3    3    0    0  0.86862793027E+02  0.13226273037E+03 -0.94319126478E+02  0.18421365931E+03  0.00000000000E+00 0.  1.
          5    1    4    4  501    0 -0.23190694731E+01  0.25782882284E+02  0.31291607857E+02  0.40826121838E+02  0.41800000000E+01 0. -1.
         -5    1    4    4    0  501 -0.11950642279E+03 -0.13203074579E+03  0.22938367014E+03  0.29042769057E+03  0.41800000000E+01 0. -1.
</event>
<event>
11    1  0.8479398E-009  0.1268204E+03  0.7561462E-02  0.1123239E+00
         22   -1    0    0    0    0  0.00000000000E+00  0.00000000000E+00  0.35645623478E+03  0.35645623478E+03  0.00000000000E+00 0. -1.
         22   -1    0    0    0    0 -0.00000000000E+00 -0.00000000000E+00 -0.95494622301E+03  0.95494622301E+03  0.00000000000E+00 0.  1.
         24    2    1    2    0    0  0.92431794244E+01  0.59438498777E+01 -0.72530525483E+03  0.72982818502E+03  0.80378487410E+02 0.  0.
         25    2    1    2    0    0 -0.24442940867E+02  0.80721542820E+01 -0.20328862404E+03  0.24008721478E+03  0.12511190592E+03 0.  0.
        -24    2    1    2    0    0  0.15199761442E+02 -0.14016004160E+02  0.33010389064E+03  0.34148705800E+03  0.84954994227E+02 0.  0.
        -13    1    3    3    0    0 -0.32905565885E+02  0.13464468558E+02 -0.42526226094E+03  0.42674589483E+03  0.00000000000E+00 0.  1.
         14    1    3    3    0    0  0.42148745309E+02 -0.75206186798E+01 -0.30004299390E+03  0.30308229018E+03  0.00000000000E+00 0. -1.
         11    1    5    5    0    0 -0.66751279112E+01 -0.30733050044E+02  0.29595961199E+03  0.29762588870E+03  0.00000000000E+00 0. -1.
        -12    1    5    5    0    0  0.21874889354E+02  0.16717045884E+02  0.34144278651E+02  0.43861169295E+02  0.00000000000E+00 0.  1.
          5    1    4    4  501    0 -0.36244312726E+02  0.32325328675E+01 -0.27314469605E+00  0.36628492759E+02  0.41800000000E+01 0.  1.
         -5    1    4    4    0  501  0.11801371859E+02  0.48396214145E+01 -0.20301547935E+03  0.20345872202E+03  0.41800000000E+01 0.  1.
</event>
<event>
11    1  0.8479398E-009  0.1591872E+03  0.7561462E-02  0.1087844E+00
         22   -1    0    0    0    0  0.00000000000E+00  0.00000000000E+00  0.24564857510E+03  0.24564857510E+03  0.00000000000E+00 0. -1.
         22   -1    0    0    0    0 -0.00000000000E+00 -0.00000000000E+00 -0.12211998747E+04  0.12211998747E+04  0.00000000000E+00 0. -1.
        -24    2    1    2    0    0  0.96511255857E+01 -0.29267292409E+02 -0.10629594005E+04  0.10660515825E+04  0.75057116530E+02 0.  0.
         25    2    1    2    0    0 -0.63967755633E+02 -0.55844825607E+02 -0.93987552185E+02  0.17802568195E+03  0.12509582392E+03 0.  0.
         24    2    1    2    0    0  0.54316630047E+02  0.85112118016E+02  0.18139565309E+03  0.22277118537E+03  0.80797581269E+02 0.  0.
        -13    1    5    5    0    0  0.13392042040E+02  0.38249782454E+02  0.11930572415E+02  0.42246079178E+02  0.00000000000E+00 0.  1.
         14    1    5    5    0    0  0.40924588007E+02  0.46862335562E+02  0.16946508067E+03  0.18052510619E+03  0.00000000000E+00 0. -1.
         11    1    3    3    0    0 -0.14339844765E+02 -0.22333307873E+02 -0.94973860471E+03  0.95010937532E+03  0.00000000000E+00 0. -1.
        -12    1    3    3    0    0  0.23990970351E+02 -0.69339845357E+01 -0.11322079581E+03  0.11594220717E+03  0.00000000000E+00 0.  1.
          5    1    4    4  501    0  0.24720754358E+02 -0.15282581423E+02  0.13939903761E+02  0.32503327643E+02  0.41800000000E+01 0.  1.
         -5    1    4    4    0  501 -0.88688509990E+02 -0.40562244183E+02 -0.10792745595E+03  0.14552235431E+03  0.41800000000E+01 0.  1.
</event>
<event>
11    1  0.8479398E-009  0.2167812E+03  0.7561462E-02  0.1043253E+00
         22   -1    0    0    0    0  0.00000000000E+00  0.00000000000E+00  0.26204605862E+03  0.26204605862E+03  0.00000000000E+00 0.  1.
         22   -1    0    0    0    0 -0.00000000000E+00 -0.00000000000E+00 -0.44422980959E+03  0.44422980959E+03  0.00000000000E+00 0. -1.
        -24    2    1    2    0    0  0.51826172145E+01 -0.18658589840E+03 -0.26720774637E+03  0.33659903596E+03  0.84010560584E+02 0.  0.
         25    2    1    2    0    0 -0.11337250309E+03  0.12773550829E+03  0.64530120949E+02  0.22131156613E+03  0.12507992748E+03 0.  0.
         24    2    1    2    0    0  0.10818988587E+03  0.58850390106E+02  0.20493874452E+02  0.14836526611E+03  0.80148820818E+02 0.  0.
        -13    1    5    5    0    0  0.37406950055E+02  0.42672526761E+01 -0.27769925034E+02  0.46783096245E+02  0.00000000000E+00 0.  1.
         14    1    5    5    0    0  0.70782935817E+02  0.54583137430E+02  0.48263799487E+02  0.10158216987E+03  0.00000000000E+00 0. -1.
         11    1    3    3    0    0 -0.29406214298E+02 -0.12069642301E+03 -0.20454553768E+03  0.23931408013E+03  0.00000000000E+00 0. -1.
        -12    1    3    3    0    0  0.34588831513E+02 -0.65889475394E+02 -0.62662208691E+02  0.97284955831E+02  0.00000000000E+00 0.  1.
          5    1    4    4  501    0 -0.19981913380E+02  0.11383563918E+03  0.22244583698E+02  0.11777148854E+03  0.41800000000E+01 0. -1.
         -5    1    4    4    0  501 -0.93390589706E+02  0.13899869116E+02  0.42285537251E+02  0.10354007759E+03  0.41800000000E+01 0. -1.
</event>
<event>
11    1  0.8479398E-009  0.1905598E+03  0.7561462E-02  0.1061408E+00
         22   -1    0    0    0    0  0.00000000000E+00  0.00000000000E+00  0.65865707153E+03  0.65865707153E+03  0.00000000000E+00 0.  1.
         22   -1    0    0    0    0 -0.00000000000E+00 -0.00000000000E+00 -0.47591845757E+03  0.47591845757E+03  0.00000000000E+00 0.  1.
        -24    2    1    2    0    0 -0.36238654871E+02 -0.33593606505E+02 -0.41769475230E+03  0.42833127771E+03  0.80975347215E+02 0.  0.
         25    2    1    2    0    0 -0.83053497151E+02 -0.73257271460E+02  0.16205541819E+03  0.23275374828E+03  0.12509131689E+03 0.  0.
         24    2    1    2    0    0  0.11929215202E+03  0.10685087797E+03  0.43837794807E+03  0.47349050312E+03  0.79814181290E+02 0.  0.
        -13    1    5    5    0    0  0.68650690442E+02  0.33150369806E+02  0.29348760663E+03  0.30322737271E+03  0.00000000000E+00 0.  1.
         14    1    5    5    0    0  0.50641461580E+02  0.73700508159E+02  0.14489034144E+03  0.17026313041E+03  0.00000000000E+00 0. -1.
         11    1    3    3    0    0  0.98143193511E+01 -0.35040884923E+02 -0.85009681153E+02  0.92470700063E+02  0.00000000000E+00 0. -1.
        -12    1    3    3    0    0 -0.46052974222E+02  0.14472784181E+01 -0.33268507115E+03  0.33586057765E+03  0.00000000000E+00 0.  1.
          5    1    4    4  501    0 -0.38048146088E+02  0.31400599225E+02  0.72460193753E+02  0.87758823665E+02  0.41800000000E+01 0. -1.
         -5    1    4    4    0  501 -0.45005351063E+02 -0.10465787069E+03  0.89595224440E+02  0.14499492461E+03  0.41800000000E+01 0. -1.
</event>
<event>
11    1  0.8479398E-009  0.1438195E+03  0.7561462E-02  0.1103367E+00
         22   -1    0    0    0    0  0.00000000000E+00  0.00000000000E+00  0.24747338859E+04  0.24747338859E+04  0.00000000000E+00 0.  1.
         22   -1    0    0    0    0 -0.00000000000E+00 -0.00000000000E+00 -0.15755064471E+03  0.15755064471E+03  0.00000000000E+00 0. -1.
        -24    2    1    2    0    0 -0.38574840357E+02 -0.61388766366E+02 -0.99871768003E+02  0.14723092697E+03  0.80286841197E+02 0.  0.
         25    2    1    2    0    0  0.18983734996E+02 -0.95029825077E+01  0.90253150322E+02  0.15570958555E+03  0.12509658276E+03 0.  0.
         24    2    1    2    0    0  0.19591105361E+02  0.70891748874E+02  0.23268018589E+04  0.23293440181E+04  0.80169898916E+02 0.  0.
        -11    1    5    5    0    0  0.41354251973E+02  0.74005779480E+02  0.16391828658E+04  0.16413736616E+04  0.00000000000E+00 0.  1.
         12    1    5    5    0    0 -0.21763146612E+02 -0.31140306064E+01  0.68761899304E+03  0.68797035643E+03  0.00000000000E+00 0. -1.
         11    1    3    3    0    0  0.17612369326E+02 -0.62218658682E+01 -0.51583469827E+02  0.54861293527E+02  0.00000000000E+00 0. -1.
        -12    1    3    3    0    0 -0.56187209683E+02 -0.55166900498E+02 -0.48288298176E+02  0.92369633448E+02  0.00000000000E+00 0.  1.
          5    1    4    4  501    0 -0.50494422657E+02  0.10213784125E+02  0.54152731370E+02  0.74859861211E+02  0.41800000000E+01 0.  1.
         -5    1    4    4    0  501  0.69478157653E+02 -0.19716766633E+02  0.36100418951E+02  0.80849724339E+02  0.41800000000E+01 0.  1.
</event>
<event>
11    1  0.1194525E-008  0.2133672E+03  0.7561462E-02  0.1045454E+00
         22   -1    0    0    0    0  0.00000000000E+00  0.00000000000E+00  0.17198104333E+04  0.17198104333E+04  0.00000000000E+00 0.  1.
         22   -1    0    0    0    0 -0.00000000000E+00 -0.00000000000E+00 -0.41621966439E+03  0.41621966439E+03  0.00000000000E+00 0. -1.
         24    2    1    2    0    0  0.24374329849E+02  0.74843958442E+02 -0.25542723601E+03  0.27848353594E+03  0.78193866930E+02 0.  0.
         25    2    1    2    0    0  0.10563673130E+03 -0.18698228667E+03 -0.36191308550E+02  0.25115526111E+03  0.12509060653E+03 0.  0.
        -24    2    1    2    0    0 -0.13001106115E+03  0.11213832823E+03  0.15952093135E+04  0.16063913007E+04  0.79513371719E+02 0.  0.
        -11    1    3    3    0    0 -0.89167079435E+00  0.11443254652E+02  0.24424830915E+01  0.11734942585E+02  0.00000000000E+00 0.  1.
         12    1    3    3    0    0  0.25266000643E+02  0.63400703791E+02 -0.25786971910E+03  0.26674859336E+03  0.00000000000E+00 0. -1.
         11    1    5    5    0    0 -0.74427199767E+01 -0.11991413016E+02  0.15939902951E+03  0.16002261926E+03  0.00000000000E+00 0. -1.
        -12    1    5    5    0    0 -0.12256834117E+03  0.12412974124E+03  0.14358102840E+04  0.14463686814E+04  0.00000000000E+00 0.  1.
          5    1    4    4  501    0 -0.74058821244E+01 -0.10453133712E+03  0.57302495753E+01  0.10503311711E+03  0.41800000000E+01 0. -1.
         -5    1    4    4    0  501  0.11304261343E+03 -0.82450949548E+02 -0.41921558125E+02  0.14612214400E+03  0.41800000000E+01 0. -1.
</event>
<event>
11    1  0.8479398E-009  0.1388974E+03  0.7561462E-02  0.1108796E+00
         22   -1    0    0    0    0  0.00000000000E+00  0.00000000000E+00  0.39182417281E+03  0.39182417281E+03  0.00000000000E+00 0. -1.
         22   -1    0    0    0    0 -0.00000000000E+00 -0.00000000000E+00 -0.16366478690E+03  0.16366478690E+03  0.00000000000E+00 0.  1.
        -24    2    1    2    0    0 -0.75121290862E+01 -0.13253649528E+02 -0.61132416422E+02  0.94447144982E+02  0.70363339521E+02 0.  0.
         25    2    1    2    0    0  0.50323595651E+02 -0.29853273370E+02 -0.16512585624E+02  0.13907823290E+03  0.12508559938E+03 0.  0.
         24    2    1    2    0    0 -0.42811466565E+02  0.43106922898E+02  0.30580438796E+03  0.32196358183E+03  0.80331786106E+02 0.  0.
        -11    1    5    5    0    0  0.12282795023E+02  0.25734622081E+01  0.50465033330E+01  0.13526158258E+02  0.00000000000E+00 0.  1.
         12    1    5    5    0    0 -0.55094261588E+02  0.40533460690E+02  0.30075788462E+03  0.30843742357E+03  0.00000000000E+00 0. -1.
         11    1    3    3    0    0 -0.69630225977E+00 -0.41290298061E+02 -0.25253167535E+02  0.48405537094E+02  0.00000000000E+00 0. -1.
        -12    1    3    3    0    0 -0.68158268265E+01  0.28036648532E+02 -0.35879248887E+02  0.46041607889E+02  0.00000000000E+00 0.  1.
          5    1    4    4  501    0  0.83093237734E+02  0.18743812403E-01 -0.35761285499E+02  0.90558425610E+02  0.41800000000E+01 0.  1.
         -5    1    4    4    0  501 -0.32769642084E+02 -0.29872017182E+02  0.19248699875E+02  0.48519807292E+02  0.41800000000E+01 0.  1.
</event>
<event>
11    1  0.8479398E-009  0.1438434E+03  0.7561462E-02  0.1103341E+00
         22   -1    0    0    0    0  0.00000000000E+00  0.00000000000E+00  0.71277915668E+03  0.71277915668E+03  0.00000000000E+00 0.  1.
         22   -1    0    0    0    0 -0.00000000000E+00 -0.00000000000E+00 -0.50069526646E+03  0.50069526646E+03  0.00000000000E+00 0.  1.
         24    2    1    2    0    0  0.62089406313E+01  0.39626363427E+02 -0.41773465551E+03  0.42712436394E+03  0.79524714618E+02 0.  0.
         25    2    1    2    0    0  0.30013773394E+02 -0.98639100691E+02  0.15368920257E+02  0.16282687774E+03  0.12508353059E+03 0.  0.
        -24    2    1    2    0    0 -0.36222714025E+02  0.59012737264E+02  0.61444962549E+03  0.62352318146E+03  0.80238565448E+02 0.  0.
        -13    1    3    3    0    0  0.29058958333E+02  0.14429879986E+02 -0.34827915382E+03  0.34978709736E+03  0.00000000000E+00 0.  1.
         14    1    3    3    0    0 -0.22850017701E+02  0.25196483441E+02 -0.69455501695E+02  0.77337266583E+02  0.00000000000E+00 0. -1.
         13    1    5    5    0    0 -0.17228346947E+02  0.38527207786E+01  0.21996622463E+02  0.28204800934E+02  0.00000000000E+00 0. -1.
        -14    1    5    5    0    0 -0.18994367078E+02  0.55160016486E+02  0.59245300302E+03  0.59531838052E+03  0.00000000000E+00 0.  1.
          5    1    4    4  501    0  0.31791123928E+02 -0.53208986123E+02  0.68699255516E+02  0.92622523575E+02  0.41800000000E+01 0. -1.
         -5    1    4    4    0  501 -0.17773505341E+01 -0.45430114568E+02 -0.53330335259E+02  0.70204354163E+02  0.41800000000E+01 0. -1.
</event>
<event>
11    1  0.8479398E-009  0.1521905E+03  0.7561462E-02  0.1094661E+00
         22   -1    0    0    0    0  0.00000000000E+00  0.00000000000E+00  0.57748522082E+03  0.57748522082E+03  0.00000000000E+00 0. -1.
         22   -1    0    0    0    0 -0.00000000000E+00 -0.00000000000E+00 -0.43763845293E+03  0.43763845293E+03  0.00000000000E+00 0. -1.
        -24    2    1    2    0    0 -0.67992734864E+02 -0.42970033134E+02 -0.20009682810E+03  0.22994156003E+03  0.79780603334E+02 0.  0.
         25    2    1    2    0    0  0.87193934064E+02  0.46789755064E+02 -0.19066991812E+03  0.24858744821E+03  0.12509451792E+03 0.  0.
         24    2    1    2    0    0 -0.19201199200E+02 -0.38197219297E+01  0.53061351411E+03  0.53659466552E+03  0.77458746365E+02 0.  0.
        -13    1    5    5    0    0 -0.27646649874E+02  0.24016050134E+02  0.13394419156E+03  0.13886019719E+03  0.00000000000E+00 0.  1.
         14    1    5    5    0    0  0.84454506743E+01 -0.27835772064E+02  0.39666932255E+03  0.39773446833E+03  0.00000000000E+00 0. -1.
         13    1    3    3    0    0  0.15353184951E+02 -0.21078438938E+02 -0.60630474203E+02  0.66000570288E+02  0.00000000000E+00 0. -1.
        -14    1    3    3    0    0 -0.83345919815E+02 -0.21891594196E+02 -0.13946635390E+03  0.16394098974E+03  0.00000000000E+00 0.  1.
          5    1    4    4  501    0  0.52707972914E+02  0.18420566152E+02 -0.19561025757E+03  0.20346570456E+03  0.41800000000E+01 0.  1.
         -5    1    4    4    0  501  0.34485961151E+02  0.28369188912E+02  0.49403394484E+01  0.45121743649E+02  0.41800000000E+01 0.  1.
</event>
<event>
11    1  0.8479398E-009  0.2041470E+03  0.7561462E-02  0.1051629E+00
         22   -1    0    0    0    0  0.00000000000E+00  0.00000000000E+00  0.12381513270E+04  0.12381513270E+04  0.00000000000E+00 0. -1.
         22   -1    0    0    0    0 -0.00000000000E+00 -0.00000000000E+00 -0.20603490336E+04  0.20603490336E+04  0.00000000000E+00 0. -1.
        -24    2    1    2    0    0  0.27664641175E+02 -0.16600841431E+03 -0.19089122433E+04  0.19179270238E+04  0.78574741850E+02 0.  0.
         25    2    1    2    0    0 -0.77866271781E+01  0.95279271055E+02 -0.10151693579E+03  0.18730993572E+03  0.12506219538E+03 0.  0.
         24    2    1    2    0    0 -0.19878013997E+02  0.70729143254E+02  0.11882314725E+04  0.11932634011E+04  0.81152726151E+02 0.  0.
        -11    1    5    5    0    0  0.16734768651E+02  0.26314870626E+02  0.13904670164E+03  0.14250091275E+03  0.00000000000E+00 0.  1.
         12    1    5    5    0    0 -0.36612782648E+02  0.44414272628E+02  0.10491847709E+04  0.10507624883E+04  0.00000000000E+00 0. -1.
         11    1    3    3    0    0  0.43161378048E+02 -0.13513351081E+03 -0.17231835681E+04  0.17290128917E+04  0.00000000000E+00 0. -1.
        -12    1    3    3    0    0 -0.15496736873E+02 -0.30874903498E+02 -0.18572867519E+03  0.18891413210E+03  0.00000000000E+00 0.  1.
          5    1    4    4  501    0  0.44325468643E+02 -0.31265655280E+01 -0.40493996588E+02  0.60264075054E+02  0.41800000000E+01 0. -1.
         -5    1    4    4    0  501 -0.52112095821E+02  0.98405836583E+02 -0.61022939205E+02  0.12704586067E+03  0.41800000000E+01 0. -1.
</event>
<event>
11    1  0.8479398E-009  0.1788319E+03  0.7561462E-02  0.1070592E+00
         22   -1    0    0    0    0  0.00000000000E+00  0.00000000000E+00  0.35880490740E+03  0.35880490740E+03  0.00000000000E+00 0. -1.
         22   -1    0    0    0    0 -0.00000000000E+00 -0.00000000000E+00 -0.57133795327E+03  0.57133795327E+03  0.00000000000E+00 0. -1.
        -24    2    1    2    0    0  0.98714823724E+02  0.92245676573E+02 -0.46198253919E+03  0.48807617855E+03  0.80849293593E+02 0.  0.
         25    2    1    2    0    0 -0.20046163813E+02 -0.99609374004E+02 -0.71089774837E+01  0.16131279708E+03  0.12508958737E+03 0.  0.
         24    2    1    2    0    0 -0.78668659911E+02  0.73636974309E+01  0.25655847081E+03  0.28075388505E+03  0.82204093151E+02 0.  0.
        -11    1    5    5    0    0 -0.24594478540E+02  0.18718564256E+02  0.17760647000E+02  0.35647070067E+02  0.00000000000E+00 0.  1.
         12    1    5    5    0    0 -0.54074181370E+02 -0.11354866826E+02  0.23879782381E+03  0.24510681498E+03  0.00000000000E+00 0. -1.
         11    1    3    3    0    0  0.90524651857E+02  0.78033051133E+02 -0.45467156439E+03  0.47011711427E+03  0.00000000000E+00 0. -1.
        -12    1    3    3    0    0  0.81901718671E+01  0.14212625440E+02 -0.73109748021E+01  0.17959064276E+02  0.00000000000E+00 0.  1.
          5    1    4    4  501    0  0.26807742616E+02 -0.45059378127E+02 -0.53985419220E+02  0.75371748751E+02  0.41800000000E+01 0.  1.
         -5    1    4    4    0  501 -0.46853906429E+02 -0.54549995876E+02  0.46876441736E+02  0.85941048328E+02  0.41800000000E+01 0.  1.
</event>
<event>
11    1  0.9814187E-009  0.2385211E+03  0.7561462E-02  0.1030198E+00
         22   -1    0    0    0    0  0.00000000000E+00  0.00000000000E+00  0.93269970240E+03  0.93269970240E+03  0.00000000000E+00 0. -1.
         22   -1    0    0    0    0 -0.00000000000E+00 -0.00000000000E+00 -0.65436857562E+03  0.65436857562E+03  0.00000000000E+00 0. -1.
        -24    2    1    2    0    0 -0.22340096729E+02  0.63000311631E+01 -0.39807208572E+03  0.40559512075E+03  0.74210822885E+02 0.  0.
         25    2    1    2    0    0  0.56149274580E+02 -0.20601509164E+03 -0.17467092678E+03  0.30289792436E+03  0.12506902454E+03 0.  0.
         24    2    1    2    0    0 -0.33809177851E+02  0.19971506048E+03  0.85107413928E+03  0.87857523291E+03  0.80858415956E+02 0.  0.
        -11    1    5    5    0    0 -0.67587598044E+01  0.77767480457E+01  0.17391200349E+03  0.17421694407E+03  0.00000000000E+00 0.  1.
         12    1    5    5    0    0 -0.27050418047E+02  0.19193831243E+03  0.67716213579E+03  0.70435828883E+03  0.00000000000E+00 0. -1.
         11    1    3    3    0    0 -0.47582386547E+00  0.26927213349E+02 -0.33102023157E+03  0.33211397883E+03  0.00000000000E+00 0. -1.
        -12    1    3    3    0    0 -0.21864272863E+02 -0.20627182186E+02 -0.67051854150E+02  0.73481141919E+02  0.00000000000E+00 0.  1.
          5    1    4    4  501    0 -0.86222381088E+01  0.13482296725E+02 -0.30696999035E+01  0.16822924017E+02  0.41800000000E+01 0. -1.
         -5    1    4    4    0  501  0.64771512689E+02 -0.21949738837E+03 -0.17160122688E+03  0.28607500035E+03  0.41800000000E+01 0. -1.
</event>
<event>
11    1  0.8479398E-009  0.1412776E+03  0.7561462E-02  0.1106140E+00
         22   -1    0    0    0    0  0.00000000000E+00  0.00000000000E+00  0.55721214339E+03  0.55721214339E+03  0.00000000000E+00 0.  1.
         22   -1    0    0    0    0 -0.00000000000E+00 -0.00000000000E+00 -0.33684156163E+03  0.33684156163E+03  0.00000000000E+00 0.  1.
         24    2    1    2    0    0  0.12517840038E+02  0.78168953278E+02 -0.10701731662E+03  0.15544208010E+03  0.80264890416E+02 0.  0.
         25    2    1    2    0    0 -0.32209757732E+02 -0.45830088861E+02 -0.17846020563E+03  0.22501522095E+03  0.12508372846E+03 0.  0.
        -24    2    1    2    0    0  0.19691917695E+02 -0.32338864416E+02  0.50584810400E+03  0.51359640397E+03  0.80407636923E+02 0.  0.
        -11    1    3    3    0    0  0.33568136362E+01  0.21672889790E+02 -0.94294097981E+02  0.96810945991E+02  0.00000000000E+00 0.  1.
         12    1    3    3    0    0  0.91610264014E+01  0.56496063487E+02 -0.12723218638E+02  0.58631134108E+02  0.00000000000E+00 0. -1.
         13    1    5    5    0    0 -0.26813498741E+02 -0.32652319642E+02  0.25408443172E+03  0.25757336068E+03  0.00000000000E+00 0. -1.
        -14    1    5    5    0    0  0.46505416435E+02  0.31345522620E+00  0.25176367229E+03  0.25602304329E+03  0.00000000000E+00 0.  1.
          5    1    4    4  501    0 -0.60242660839E+02 -0.50586388184E+02 -0.49828634025E+02  0.93212263266E+02  0.41800000000E+01 0.  1.
         -5    1    4    4    0  501  0.28032903107E+02  0.47562993230E+01 -0.12863157161E+03  0.13180295768E+03  0.41800000000E+01 0.  1.
</event>
<event>
11    1  0.8479398E-009  0.1553960E+03  0.7561462E-02  0.1091489E+00
         22   -1    0    0    0    0  0.00000000000E+00  0.00000000000E+00  0.12097329101E+04  0.12097329101E+04  0.00000000000E+00 0. -1.
         22   -1    0    0    0    0 -0.00000000000E+00 -0.00000000000E+00 -0.20888502865E+03  0.20888502865E+03  0.00000000000E+00 0. -1.
         24    2    1    2    0    0  0.13349651749E+02 -0.26796154239E+02 -0.88228005196E+02  0.12263299635E+03  0.79739725419E+02 0.  0.
         25    2    1    2    0    0  0.59527386860E+02  0.82958053256E+02 -0.35033845975E+02  0.16522868484E+03  0.12509036551E+03 0.  0.
        -24    2    1    2    0    0 -0.72877038610E+02 -0.56161899017E+02  0.11241097326E+04  0.11307562575E+04  0.80757670687E+02 0.  0.
        -11    1    3    3    0    0 -0.19830771841E+01  0.26919333231E+02 -0.42945112333E+02  0.50723424274E+02  0.00000000000E+00 0.  1.
         12    1    3    3    0    0  0.15332728934E+02 -0.53715487470E+02 -0.45282892862E+02  0.71909572079E+02  0.00000000000E+00 0. -1.
         13    1    5    5    0    0 -0.18216306969E+02  0.16733927187E+02  0.42723366269E+03  0.42794913330E+03  0.00000000000E+00 0. -1.
        -14    1    5    5    0    0 -0.54660731640E+02 -0.72895826204E+02  0.69687606990E+03  0.70280712422E+03  0.00000000000E+00 0.  1.
          5    1    4    4  501    0 -0.37991786696E+02  0.33001910476E+02 -0.20979181546E+02  0.54681810593E+02  0.41800000000E+01 0.  1.
         -5    1    4    4    0  501  0.97519173557E+02  0.49956142781E+02 -0.14054664428E+02  0.11054687424E+03  0.41800000000E+01 0.  1.
</event>
<event>
11    1  0.8479398E-009  0.1403847E+03  0.7561462E-02  0.1107130E+00
         22   -1    0    0    0    0  0.00000000000E+00  0.00000000000E+00  0.14900665767E+04  0.14900665767E+04  0.00000000000E+00 0. -1.
         22   -1    0    0    0    0 -0.00000000000E+00 -0.00000000000E+00 -0.15429040253E+03  0.15429040253E+03  0.00000000000E+00 0. -1.
        -24    2    1    2    0    0  0.36790760065E+02  0.51841746541E+02 -0.12544054670E+03  0.16198629211E+03  0.80393416188E+02 0.  0.
         25    2    1    2    0    0 -0.68707922515E+02 -0.35194296192E+02  0.67816373533E+03  0.69391295738E+03  0.12509885448E+03 0.  0.
         24    2    1    2    0    0  0.31917162451E+02 -0.16647450348E+02  0.78305298553E+03  0.78845772973E+03  0.84839675676E+02 0.  0.
        -13    1    5    5    0    0 -0.15657193548E+02 -0.33277627363E+02  0.21028015803E+03  0.21347199595E+03  0.00000000000E+00 0.  1.
         14    1    5    5    0    0  0.47574355999E+02  0.16630177015E+02  0.57277282750E+03  0.57498573378E+03  0.00000000000E+00 0. -1.
         13    1    3    3    0    0  0.14401167672E+02  0.61707655149E+02 -0.12173637513E+03  0.13724056749E+03  0.00000000000E+00 0. -1.
        -14    1    3    3    0    0  0.22389592393E+02 -0.98659086089E+01 -0.37041715647E+01  0.24745724624E+02  0.00000000000E+00 0.  1.
          5    1    4    4  501    0 -0.44306242421E+01  0.40559123483E+02  0.11634671839E+03  0.12336411233E+03  0.41800000000E+01 0.  1.
         -5    1    4    4    0  501 -0.64277298273E+02 -0.75753419676E+02  0.56181701694E+03  0.57054884505E+03  0.41800000000E+01 0.  1.
</event>
<event>
11    1  0.8479398E-009  0.1719587E+03  0.7561462E-02  0.1076340E+00
         22   -1    0    0    0    0  0.00000000000E+00  0.00000000000E+00  0.10362762570E+04  0.10362762570E+04  0.00000000000E+00 0.  1.
         22   -1    0    0    0    0 -0.00000000000E+00 -0.00000000000E+00 -0.27119917192E+03  0.27119917192E+03  0.00000000000E+00 0.  1.
         24    2    1    2    0    0 -0.11802822033E+03 -0.12560794304E+02 -0.22921280557E+03  0.27046055360E+03  0.80758692828E+02 0.  0.
         25    2    1    2    0    0  0.10203493335E+03  0.36459595362E+02  0.35040563143E+03  0.38751987537E+03  0.12508843894E+03 0.  0.
        -24    2    1    2    0    0  0.15993286981E+02 -0.23898801058E+02  0.64388425921E+03  0.64949499995E+03  0.80186518674E+02 0.  0.
        -11    1    3    3    0    0 -0.87287946343E+02 -0.43762945004E+02 -0.13550155629E+03  0.16701812084E+03  0.00000000000E+00 0.  1.
         12    1    3    3    0    0 -0.30740273990E+02  0.31202150700E+02 -0.93711249279E+02  0.10344243276E+03  0.00000000000E+00 0. -1.
         13    1    5    5    0    0  0.12275180603E+02  0.25357185613E+02  0.11889835653E+03  0.12219036831E+03  0.00000000000E+00 0. -1.
        -14    1    5    5    0    0  0.37181063778E+01 -0.49255986671E+02  0.52498590268E+03  0.52730463164E+03  0.00000000000E+00 0.  1.
          5    1    4    4  501    0  0.56644256364E+02 -0.39848583279E+02  0.21168074075E+03  0.22276150873E+03  0.41800000000E+01 0.  1.
         -5    1    4    4    0  501  0.45390676988E+02  0.76308178641E+02  0.13872489068E+03  0.16475836665E+03  0.41800000000E+01 0.  1.
</event>
<event>
11    1  0.8479398E-009  0.2283344E+03  0.7561462E-02  0.1036119E+00
         22   -1    0    0    0    0  0.00000000000E+00  0.00000000000E+00  0.51648567953E+03  0.51648567953E+03  0.00000000000E+00 0. -1.
         22   -1    0    0    0    0 -0.00000000000E+00 -0.00000000000E+00 -0.41659105170E+03  0.41659105170E+03  0.00000000000E+00 0. -1.
         24    2    1    2    0    0 -0.61574802123E+01  0.12719696460E+02 -0.29714943110E+03  0.30790349354E+03  0.79417074269E+02 0.  0.
         25    2    1    2    0    0  0.14613760264E+03 -0.13757311510E+03  0.82488445150E+02  0.25046931626E+03  0.12509186184E+03 0.  0.
        -24    2    1    2    0    0 -0.13998012243E+03  0.12485341864E+03  0.31455561378E+03  0.37470392143E+03  0.79214795020E+02 0.  0.
        -11    1    3    3    0    0 -0.34102108582E+02  0.87906901448E+01 -0.63974458068E+02  0.73027127343E+02  0.00000000000E+00 0.  1.
         12    1    3    3    0    0  0.27944628369E+02  0.39290063150E+01 -0.23317497304E+03  0.23487636619E+03  0.00000000000E+00 0. -1.
         13    1    5    5    0    0 -0.14266662658E+03  0.99884492066E+02  0.24373111330E+03  0.29955889853E+03  0.00000000000E+00 0. -1.
        -14    1    5    5    0    0  0.26865041482E+01  0.24968926578E+02  0.70824500478E+02  0.75145022902E+02  0.00000000000E+00 0.  1.
          5    1    4    4  501    0  0.12271480838E+03 -0.53961921187E+02  0.92557373020E+02  0.16295751850E+03  0.41800000000E+01 0.  1.
         -5    1    4    4    0  501  0.23422794261E+02 -0.83611193917E+02 -0.10068927869E+02  0.87511797762E+02  0.41800000000E+01 0.  1.
</event>
<event>
11    1  0.8479398E-009  0.1387423E+03  0.7561462E-02  0.1108971E+00
         22   -1    0    0    0    0  0.00000000000E+00  0.00000000000E+00  0.10665947231E+04  0.10665947231E+04  0.00000000000E+00 0. -1.
         22   -1    0    0    0    0 -0.00000000000E+00 -0.00000000000E+00 -0.76187721649E+03  0.76187721649E+03  0.00000000000E+00 0. -1.
         24    2    1    2    0    0  0.62565582769E+01  0.92793107350E+01 -0.71477854643E+03  0.71960910496E+03  0.82484200776E+02 0.  0.
         25    2    1    2    0    0 -0.43438128863E+02 -0.55548872208E+02  0.80628075855E+02  0.16468269408E+03  0.12508778866E+03 0.  0.
        -24    2    1    2    0    0  0.37181570586E+02  0.46269561473E+02  0.93886797718E+03  0.94418014054E+03  0.80496693764E+02 0.  0.
        -13    1    3    3    0    0 -0.13525429927E+02 -0.29719847550E+02 -0.17201010625E+03  0.17508193295E+03  0.00000000000E+00 0.  1.
         14    1    3    3    0    0  0.19781988204E+02  0.38999158285E+02 -0.54276844018E+03  0.54452717201E+03  0.00000000000E+00 0. -1.
         11    1    5    5    0    0  0.53533981206E+02  0.36153340021E+02  0.41843097365E+03  0.42338803815E+03  0.00000000000E+00 0. -1.
        -12    1    5    5    0    0 -0.16352410620E+02  0.10116221452E+02  0.52043700353E+03  0.52079210239E+03  0.00000000000E+00 0.  1.
          5    1    4    4  501    0 -0.46324981788E+02 -0.83402571004E+02  0.93439937026E+02  0.13360571477E+03  0.41800000000E+01 0.  1.
         -5    1    4    4    0  501  0.28868529252E+01  0.27853698796E+02 -0.12811861170E+02  0.31076979311E+02  0.41800000000E+01 0.  1.
</event>
<event>
11    1  0.8479398E-009  0.1289355E+03  0.7561462E-02  0.1120584E+00
         22   -1    0    0    0    0  0.00000000000E+00  0.00000000000E+00  0.12444901486E+03  0.12444901486E+03  0.00000000000E+00 0.  1.
         22   -1    0    0    0    0 -0.00000000000E+00 -0.00000000000E+00 -0.15410178150E+04  0.15410178150E+04  0.00000000000E+00 0.  1.
        -24    2    1    2    0    0  0.28800026974E+02  0.58015957330E+01 -0.13193280529E+04  0.13220632952E+04  0.79760549792E+02 0.  0.
         25    2    1    2    0    0 -0.70609356188E+02  0.19721650063E+02 -0.17949470437E+03  0.23074021772E+03  0.12509226400E+03 0.  0.
         24    2    1    2    0    0  0.41809329213E+02 -0.25523245796E+02  0.82253957081E+02  0.11266331699E+03  0.59395735991E+02 0.  0.
        -11    1    5    5    0    0  0.37609108374E+02 -0.63351613026E+01  0.84679278941E+02  0.92871737269E+02  0.00000000000E+00 0.  1.
         12    1    5    5    0    0  0.42002208392E+01 -0.19188084494E+02 -0.24253218599E+01  0.19791579719E+02  0.00000000000E+00 0. -1.
         11    1    3    3    0    0 -0.20559285249E+02  0.23922244087E+02 -0.40637862648E+03  0.40760096422E+03  0.00000000000E+00 0. -1.
        -12    1    3    3    0    0  0.49359312223E+02 -0.18120648354E+02 -0.91294942638E+03  0.91446233095E+03  0.00000000000E+00 0.  1.
          5    1    4    4  501    0 -0.73509869710E+02  0.63532006157E+02 -0.14571103987E+03  0.17518332195E+03  0.41800000000E+01 0.  1.
         -5    1    4    4    0  501  0.29005135224E+01 -0.43810356094E+02 -0.33783664505E+02  0.55556895766E+02  0.41800000000E+01 0.  1.
</event>
<event>
11    1  0.8479398E-009  0.1498145E+03  0.7561462E-02  0.1097069E+00
         22   -1    0    0    0    0  0.00000000000E+00  0.00000000000E+00  0.72942844551E+03  0.72942844551E+03  0.00000000000E+00 0. -1.
         22   -1    0    0    0    0 -0.00000000000E+00 -0.00000000000E+00 -0.10845211744E+03  0.10845211744E+03  0.00000000000E+00 0.  1.
        -24    2    1    2    0    0 -0.52572362086E+02  0.55214467275E+02 -0.30364507165E+02  0.11464614614E+03  0.80057759629E+02 0.  0.
         25    2    1    2    0    0  0.10100434720E+03 -0.67450679628E+02  0.21859683415E+03  0.27961286996E+03  0.12508920340E+03 0.  0.
         24    2    1    2    0    0 -0.48431985115E+02  0.12236212352E+02  0.43274400109E+03  0.44362154686E+03  0.83888761378E+02 0.  0.
        -13    1    5    5    0    0  0.13620736979E+02  0.60207747914E+01  0.14608552026E+02  0.20861064145E+02  0.00000000000E+00 0.  1.
         14    1    5    5    0    0 -0.62052722094E+02  0.62154375609E+01  0.41813544906E+03  0.42276048271E+03  0.00000000000E+00 0. -1.
         11    1    3    3    0    0 -0.61413716050E+02  0.95289444693E+01 -0.68963956526E+01  0.62530037380E+02  0.00000000000E+00 0. -1.
        -12    1    3    3    0    0  0.88413539644E+01  0.45685522806E+02 -0.23468111512E+02  0.52116108756E+02  0.00000000000E+00 0.  1.
          5    1    4    4  501    0  0.40117361617E+02  0.22134733105E+02  0.14029549538E+02  0.48100413439E+02  0.41800000000E+01 0. -1.
         -5    1    4    4    0  501  0.60886985583E+02 -0.89585412733E+02  0.20456728462E+03  0.23151245652E+03  0.41800000000E+01 0. -1.
</event>
<event>
11    1  0.8479398E-009  0.2334304E+03  0.7561462E-02  0.1033116E+00
         22   -1    0    0    0    0  0.00000000000E+00  0.00000000000E+00  0.62542106969E+02  0.62542106969E+02  0.00000000000E+00 0.  1.
         22   -1    0    0    0    0 -0.00000000000E+00 -0.00000000000E+00 -0.23406963750E+04  0.23406963750E+04  0.00000000000E+00 0. -1.
         24    2    1    2    0    0 -0.52726600674E+02 -0.41313950198E+02 -0.12815546258E+04  0.12858416427E+04  0.80743633180E+02 0.  0.
         25    2    1    2    0    0  0.63686147382E+02  0.22631506738E+03 -0.76423382801E+03  0.80930540441E+03  0.12508980227E+03 0.  0.
        -24    2    1    2    0    0 -0.10959546708E+02 -0.18500111718E+03 -0.23236581419E+03  0.30809143483E+03  0.81122965871E+02 0.  0.
        -13    1    3    3    0    0 -0.41878308234E+02 -0.40033241216E+02 -0.39560470338E+03  0.39982437950E+03  0.00000000000E+00 0.  1.
         14    1    3    3    0    0 -0.10848292440E+02 -0.12807089824E+01 -0.88594992245E+03  0.88601726324E+03  0.00000000000E+00 0. -1.
         11    1    5    5    0    0  0.91958763671E+01 -0.20522078024E+02  0.24722792985E+00  0.22489574256E+02  0.00000000000E+00 0. -1.
        -12    1    5    5    0    0 -0.20155423075E+02 -0.16447903916E+03 -0.23261304212E+03  0.28560186058E+03  0.00000000000E+00 0.  1.
          5    1    4    4  501    0  0.70030924177E+02  0.42164916120E+02 -0.24786232469E+03  0.26102761328E+03  0.41800000000E+01 0.  1.
         -5    1    4    4    0  501 -0.63447767953E+01  0.18415015126E+03 -0.51637150332E+03  0.54827779113E+03  0.41800000000E+01 0.  1.
</event>
<event>
11    1  0.8479398E-009  0.1978575E+03  0.7561462E-02  0.1056049E+00
         22   -1    0    0    0    0  0.00000000000E+00  0.00000000000E+00  0.21403272157E+03  0.21403272157E+03  0.00000000000E+00 0. -1.
         22   -1    0    0    0    0 -0.00000000000E+00 -0.00000000000E+00 -0.19371808903E+04  0.19371808903E+04  0.00000000000E+00 0.  1.
         24    2    1    2    0    0  0.14635863487E+03  0.23838849656E+02 -0.14902060895E+04  0.15014379987E+04  0.10776239628E+03 0.  0.
         25    2    1    2    0    0 -0.17370373984E+03 -0.38977280961E+02 -0.40352403973E+03  0.45844585642E+03  0.12509490382E+03 0.  0.
        -24    2    1    2    0    0  0.27345104971E+02  0.15138431305E+02  0.17058196055E+03  0.19132975668E+03  0.80820440853E+02 0.  0.
        -13    1    3    3    0    0  0.14806838421E+03  0.42384550822E+02 -0.10932689498E+04  0.11040641708E+04  0.00000000000E+00 0.  1.
         14    1    3    3    0    0 -0.17097493340E+01 -0.18545701166E+02 -0.39693713971E+03  0.39737382797E+03  0.00000000000E+00 0. -1.
         11    1    5    5    0    0  0.30668200751E+02  0.46148907582E+02  0.10582114667E+03  0.11945030470E+03  0.00000000000E+00 0. -1.
        -12    1    5    5    0    0 -0.33230957798E+01 -0.31010476277E+02  0.64760813875E+02  0.71879451989E+02  0.00000000000E+00 0.  1.
          5    1    4    4  501    0 -0.35185031394E+02 -0.52611733183E+02 -0.58131544335E+02  0.86039117554E+02  0.41800000000E+01 0.  1.
         -5    1    4    4    0  501 -0.13851870845E+03  0.13634452222E+02 -0.34539249540E+03  0.37240673887E+03  0.41800000000E+01 0.  1.
</event>
<event>
11    1  0.8479398E-009  0.1572764E+03  0.7561462E-02  0.1089667E+00
         22   -1    0    0    0    0  0.00000000000E+00  0.00000000000E+00  0.11598553912E+04  0.11598553912E+04  0.00000000000E+00 0.  1.
         22   -1    0    0    0    0 -0.00000000000E+00 -0.00000000000E+00 -0.26479176168E+03  0.26479176168E+03  0.00000000000E+00 0. -1.
         24    2    1    2    0    0 -0.34807934547E+02  0.57060551997E+02 -0.17038826150E+03  0.19920599713E+03  0.78634411896E+02 0.  0.
         25    2    1    2    0    0 -0.53128263756E+02 -0.94929329177E+02  0.13752705742E+02  0.16633151760E+03  0.12507136716E+03 0.  0.
        -24    2    1    2    0    0  0.87936198303E+02  0.37868777180E+02  0.10516991853E+04  0.10591096382E+04  0.80468814356E+02 0.  0.
        -13    1    3    3    0    0  0.14722844730E+02  0.49676766887E+02 -0.70776314188E+02  0.87714479850E+02  0.00000000000E+00 0.  1.
         14    1    3    3    0    0 -0.49530779277E+02  0.73837851100E+01 -0.99611947307E+02  0.11149151728E+03  0.00000000000E+00 0. -1.
         13    1    5    5    0    0  0.26672827538E+01 -0.16711053370E+02  0.31905815073E+03  0.31950661534E+03  0.00000000000E+00 0. -1.
        -14    1    5    5    0    0  0.85268915549E+02  0.54579830550E+02  0.73264103455E+03  0.73960302283E+03  0.00000000000E+00 0.  1.
          5    1    4    4  501    0 -0.61265910540E+02 -0.11917667012E+03  0.27702895057E+02  0.13689964678E+03  0.41800000000E+01 0.  1.
         -5    1    4    4    0  501  0.81376467841E+01  0.24247340941E+02 -0.13950189314E+02  0.29431870817E+02  0.41800000000E+01 0.  1.
</event>
<event>
11    1  0.8479398E-009  0.1386409E+03  0.7561462E-02  0.1109086E+00
         22   -1    0    0    0    0  0.00000000000E+00  0.00000000000E+00  0.11794306468E+03  0.11794306468E+03  0.00000000000E+00 0.  1.
         22   -1    0    0    0    0 -0.00000000000E+00 -0.00000000000E+00 -0.59122299120E+03  0.59122299120E+03  0.00000000000E+00 0.  1.
        -24    2    1    2    0    0 -0.90303984355E+01  0.50799391353E+01 -0.36525831872E+03  0.37443664559E+03  0.81742328638E+02 0.  0.
         25    2    1    2    0    0 -0.48413135718E+02  0.15795662269E+02 -0.16856175641E+03  0.21599658333E+03  0.12509246032E+03 0.  0.
         24    2    1    2    0    0  0.57443534153E+02 -0.20875601404E+02  0.60540148616E+02  0.11873282695E+03  0.81834126449E+02 0.  0.
        -11    1    5    5    0    0  0.70548691991E+02  0.46090886536E+01  0.29846427132E+02  0.76740933356E+02  0.00000000000E+00 0.  1.
         12    1    5    5    0    0 -0.13105157838E+02 -0.25484690058E+02  0.30693721484E+02  0.41991893596E+02  0.00000000000E+00 0. -1.
         13    1    3    3    0    0 -0.37831806621E+02  0.12166226781E+02 -0.10128437382E+03  0.10880159487E+03  0.00000000000E+00 0. -1.
        -14    1    3    3    0    0  0.28801408185E+02 -0.70862876453E+01 -0.26397394490E+03  0.26563505072E+03  0.00000000000E+00 0.  1.
          5    1    4    4  501    0 -0.33070219589E+02 -0.41940854134E+02 -0.13949491970E+03  0.14942884491E+03  0.41800000000E+01 0.  1.
         -5    1    4    4    0  501 -0.15342916129E+02  0.57736516403E+02 -0.29066836714E+02  0.66567738419E+02  0.41800000000E+01 0.  1.
</event>
<event>
11    1  0.8479398E-009  0.2108621E+03  0.7561462E-02  0.1047098E+00
         22   -1    0    0    0    0  0.00000000000E+00  0.00000000000E+00  0.16189397544E+04  0.16189397544E+04  0.00000000000E+00 0.  1.
         22   -1    0    0    0    0 -0.00000000000E+00 -0.00000000000E+00 -0.50162051060E+02  0.50162051060E+02  0.00000000000E+00 0. -1.
         24    2    1    2    0    0  0.65732001484E+02 -0.48571456074E+02  0.16491650988E+03  0.20660478415E+03  0.93852007103E+02 0.  0.
         25    2    1    2    0    0  0.83682853397E+02 -0.88886768424E+02  0.42422848853E+03  0.45882579912E+03  0.12509047088E+03 0.  0.
        -24    2    1    2    0    0 -0.14941485488E+03  0.13745822450E+03  0.97963270490E+03  0.10036712222E+04  0.80350005274E+02 0.  0.
        -11    1    3    3    0    0  0.30687260395E+02 -0.25303937021E+02  0.15927078178E+03  0.16416205136E+03  0.00000000000E+00 0.  1.
         12    1    3    3    0    0  0.35044741089E+02 -0.23267519053E+02  0.56457281091E+01  0.42442732791E+02  0.00000000000E+00 0. -1.
         11    1    5    5    0    0 -0.41782345925E+02  0.87052477335E+02  0.52208349262E+03  0.53093791681E+03  0.00000000000E+00 0. -1.
        -12    1    5    5    0    0 -0.10763250896E+03  0.50405747163E+02  0.45754921228E+03  0.47273330535E+03  0.00000000000E+00 0.  1.
          5    1    4    4  501    0  0.62012637903E+02 -0.87344994569E+02  0.42332078164E+03  0.43668372067E+03  0.41800000000E+01 0. -1.
         -5    1    4    4    0  501  0.21670215494E+02 -0.15417738549E+01  0.90770689402E+00  0.22142078447E+02  0.41800000000E+01 0. -1.
</event>
<event>
11    1  0.8479398E-009  0.1369956E+03  0.7561462E-02  0.1110960E+00
         22   -1    0    0    0    0  0.00000000000E+00  0.00000000000E+00  0.41297419156E+03  0.41297419156E+03  0.00000000000E+00 0.  1.
         22   -1    0    0    0    0 -0.00000000000E+00 -0.00000000000E+00 -0.57180552983E+03  0.57180552983E+03  0.00000000000E+00 0. -1.
        -24    2    1    2    0    0  0.17276582365E+02 -0.29489762013E+02 -0.49621375617E+03  0.50378534687E+03  0.80021606773E+02 0.  0.
         25    2    1    2    0    0 -0.66053681158E+02  0.27285509238E+01  0.13113478783E+02  0.14209823818E+03  0.12509761062E+03 0.  0.
         24    2    1    2    0    0  0.48777098794E+02  0.26761211089E+02  0.32426893912E+03  0.33889613634E+03  0.81270404010E+02 0.  0.
        -13    1    5    5    0    0  0.43615382122E+01 -0.12853220166E+02  0.20647761441E+03  0.20692325518E+03  0.00000000000E+00 0.  1.
         14    1    5    5    0    0  0.44415560581E+02  0.39614431255E+02  0.11779132471E+03  0.13197288116E+03  0.00000000000E+00 0. -1.
         13    1    3    3    0    0  0.38899973233E+02  0.34429668043E+01 -0.35620073528E+03  0.35833507469E+03  0.00000000000E+00 0. -1.
        -14    1    3    3    0    0 -0.21623390869E+02 -0.32932728817E+02 -0.14001302089E+03  0.14545027218E+03  0.00000000000E+00 0.  1.
          5    1    4    4  501    0 -0.70359249651E+02 -0.47487729326E+02  0.27827117599E+02  0.89427788309E+02  0.41800000000E+01 0. -1.
         -5    1    4    4    0  501  0.43055684929E+01  0.50216280250E+02 -0.14713638817E+02  0.52670449869E+02  0.41800000000E+01 0. -1.
</event>
<event>
11    1  0.8479398E-009  0.1575538E+03  0.7561462E-02  0.1089401E+00
         22   -1    0    0    0    0  0.00000000000E+00  0.00000000000E+00  0.55851094115E+03  0.55851094115E+03  0.00000000000E+00 0. -1.
         22   -1    0    0    0    0 -0.00000000000E+00 -0.00000000000E+00 -0.20595529860E+03  0.20595529860E+03  0.00000000000E+00 0. -1.
        -24    2    1    2    0    0  0.94444093267E+02 -0.24543705611E+02 -0.14298352595E+03  0.19140477050E+03  0.81666500109E+02 0.  0.
         25    2    1    2    0    0 -0.51422421794E+02  0.95537078844E+02  0.23256526611E+03  0.28549203804E+03  0.12508997517E+03 0.  0.
         24    2    1    2    0    0 -0.43021671474E+02 -0.70993373232E+02  0.26297390239E+03  0.28756943121E+03  0.81547416665E+02 0.  0.
        -11    1    5    5    0    0  0.18580233510E+02 -0.45365044195E+02  0.96916859575E+02  0.10860980610E+03  0.00000000000E+00 0.  1.
         12    1    5    5    0    0 -0.61601904984E+02 -0.25628329038E+02  0.16605704282E+03  0.17895962510E+03  0.00000000000E+00 0. -1.
         11    1    3    3    0    0  0.89456478354E+02 -0.49088764775E+02 -0.11850469662E+03  0.15638264439E+03  0.00000000000E+00 0. -1.
        -12    1    3    3    0    0  0.49876149134E+01  0.24545059163E+02 -0.24478829332E+02  0.35022126111E+02  0.00000000000E+00 0.  1.
          5    1    4    4  501    0 -0.18734402558E+02 -0.14548830571E+02  0.12760859032E+03  0.12986173815E+03  0.41800000000E+01 0.  1.
         -5    1    4    4    0  501 -0.32688019235E+02  0.11008590941E+03  0.10495667579E+03  0.15563029990E+03  0.41800000000E+01 0.  1.
</event>
<event>
11    1  0.8479398E-009  0.1440788E+03  0.7561462E-02  0.1103087E+00
         22   -1    0    0    0    0  0.00000000000E+00  0.00000000000E+00  0.38238077318E+04  0.38238077318E+04  0.00000000000E+00 0. -1.
         22   -1    0    0    0    0 -0.00000000000E+00 -0.00000000000E+00 -0.67143778599E+03  0.67143778599E+03  0.00000000000E+00 0.  1.
         24    2    1    2    0    0 -0.22326384704E+02 -0.29251804053E+02 -0.64207464082E+03  0.64820564563E+03  0.80972706172E+02 0.  0.
         25    2    1    2    0    0  0.32401932356E+02  0.99050350259E+02  0.23433694964E+03  0.28534540934E+03  0.12508932632E+03 0.  0.
        -24    2    1    2    0    0 -0.10075547652E+02 -0.69798546206E+02  0.35601076370E+04  0.35616944628E+04  0.79546877883E+02 0.  0.
        -13    1    3    3    0    0 -0.28759484345E+02  0.22260327453E+02 -0.22648725215E+03  0.22938854703E+03  0.00000000000E+00 0.  1.
         14    1    3    3    0    0  0.64330996413E+01 -0.51512131506E+02 -0.41558738867E+03  0.41881709860E+03  0.00000000000E+00 0. -1.
         11    1    5    5    0    0 -0.23699608366E+02 -0.48484880653E+02  0.99526135756E+03  0.99672344456E+03  0.00000000000E+00 0. -1.
        -12    1    5    5    0    0  0.13624060714E+02 -0.21313665553E+02  0.25648462794E+04  0.25649710183E+04  0.00000000000E+00 0.  1.
          5    1    4    4  501    0  0.19009378693E+01 -0.13593023877E+02 -0.79375654475E+01  0.16396987776E+02  0.41800000000E+01 0. -1.
         -5    1    4    4    0  501  0.30500994486E+02  0.11264337414E+03  0.24227451509E+03  0.26894842156E+03  0.41800000000E+01 0. -1.
</event>
<event>
11    1  0.8479398E-009  0.3175549E+03  0.7561462E-02  0.9930236E-01
         22   -1    0    0    0    0  0.00000000000E+00  0.00000000000E+00  0.54523515443E+03  0.54523515443E+03  0.00000000000E+00 0.  1.
         22   -1    0    0    0    0 -0.00000000000E+00 -0.00000000000E+00 -0.14201999119E+04  0.14201999119E+04  0.00000000000E+00 0.  1.
        -24    2    1    2    0    0 -0.18260806252E+02  0.40593565514E+02 -0.59820552696E+03  0.60517252942E+03  0.80016518690E+02 0.  0.
         25    2    1    2    0    0 -0.14321361373E+03  0.20544512270E+03 -0.74820331820E+03  0.79885791332E+03  0.12509165723E+03 0.  0.
         24    2    1    2    0    0  0.16147441998E+03 -0.24603868822E+03  0.47144408769E+03  0.56140462359E+03  0.79414099265E+02 0.  0.
        -13    1    5    5    0    0  0.13321263951E+03 -0.16088936648E+03  0.37793213670E+03  0.43181442256E+03  0.00000000000E+00 0.  1.
         14    1    5    5    0    0  0.28261780467E+02 -0.85149321732E+02  0.93511950987E+02  0.12959020103E+03  0.00000000000E+00 0. -1.
         13    1    3    3    0    0 -0.49948655610E+02  0.28110445485E+02 -0.35605673871E+03  0.36064035621E+03  0.00000000000E+00 0. -1.
        -14    1    3    3    0    0  0.31687849358E+02  0.12483120029E+02 -0.24214878825E+03  0.24453217321E+03  0.00000000000E+00 0.  1.
          5    1    4    4  501    0 -0.89294039546E+02  0.20461883421E+03 -0.64107645702E+03  0.67885108010E+03  0.41800000000E+01 0. -1.
         -5    1    4    4    0  501 -0.53919574179E+02  0.82628849628E+00 -0.10712686118E+03  0.12000683322E+03  0.41800000000E+01 0. -1.
</event>
<event>
11    1  0.8479398E-009  0.1343294E+03  0.7561462E-02  0.1114061E+00
         22   -1    0    0    0    0  0.00000000000E+00  0.00000000000E+00  0.59031883772E+03  0.59031883772E+03  0.00000000000E+00 0. -1.
         22   -1    0    0    0    0 -0.00000000000E+00 -0.00000000000E+00 -0.33424422488E+03  0.33424422488E+03  0.00000000000E+00 0. -1.
         24    2    1    2    0    0 -0.39708477192E+02 -0.38478036168E+02 -0.25461675226E+03  0.27233692250E+03  0.79248888935E+02 0.  0.
         25    2    1    2    0    0 -0.11685557607E+02  0.19116402727E+02 -0.57275397019E+01  0.12720939162E+03  0.12508970979E+03 0.  0.
        -24    2    1    2    0    0  0.51394034799E+02  0.19361633441E+02  0.51641890480E+03  0.52501674848E+03  0.77057649112E+02 0.  0.
        -13    1    3    3    0    0  0.10444550356E+02 -0.24410143271E+02 -0.23608635516E+02  0.35529021905E+02  0.00000000000E+00 0.  1.
         14    1    3    3    0    0 -0.50153027548E+02 -0.14067892897E+02 -0.23100811674E+03  0.23680790059E+03  0.00000000000E+00 0. -1.
         13    1    5    5    0    0  0.20558043817E+02 -0.23030352183E+02  0.32775280325E+03  0.32920347860E+03  0.00000000000E+00 0. -1.
        -14    1    5    5    0    0  0.30835990982E+02  0.42391985624E+02  0.18866610155E+03  0.19581326987E+03  0.00000000000E+00 0.  1.
          5    1    4    4  501    0 -0.51766758337E+02 -0.41453121497E+01 -0.43030069309E+02  0.67572480687E+02  0.41800000000E+01 0.  1.
         -5    1    4    4    0  501  0.40081200730E+02  0.23261714877E+02  0.37302529607E+02  0.59636910936E+02  0.41800000000E+01 0.  1.
</event>
<event>
11    1  0.8479398E-009  0.3903321E+03  0.7561462E-02  0.9678722E-01
         22   -1    0    0    0    0  0.00000000000E+00  0.00000000000E+00  0.15821258153E+03  0.15821258153E+03  0.00000000000E+00 0. -1.
         22   -1    0    0    0    0 -0.00000000000E+00 -0.00000000000E+00 -0.26685538315E+04  0.26685538315E+04  0.00000000000E+00 0. -1.
        -24    2    1    2    0    0 -0.13513580844E+03 -0.47005968567E+02 -0.24206814388E+04  0.24262692257E+04  0.81317156124E+02 0.  0.
         25    2    1    2    0    0 -0.44542744315E+02 -0.49423692683E+01 -0.13681694025E+03  0.19072543273E+03  0.12509529355E+03 0.  0.
         24    2    1    2    0    0  0.17967855275E+03  0.51948337835E+02  0.47157129036E+02  0.20977175458E+03  0.82446237506E+02 0.  0.
        -11    1    5    5    0    0 -0.10208936409E+01  0.73991961875E+01 -0.12304089279E+02  0.14393781332E+02  0.00000000000E+00 0.  1.
         12    1    5    5    0    0  0.18069944639E+03  0.44549141648E+02  0.59461218315E+02  0.19537797325E+03  0.00000000000E+00 0. -1.
         11    1    3    3    0    0 -0.97921721067E+02 -0.31957867750E+02 -0.21656324147E+04  0.21680806545E+04  0.00000000000E+00 0. -1.
        -12    1    3    3    0    0 -0.37214087369E+02 -0.15048100817E+02 -0.25504902408E+03  0.25818857125E+03  0.00000000000E+00 0.  1.
          5    1    4    4  501    0 -0.35560197618E+02 -0.38375239301E+02 -0.14559617235E+03  0.15476725897E+03  0.41800000000E+01 0. -1.
         -5    1    4    4    0  501 -0.89825466966E+01  0.33432870033E+02  0.87792321088E+01  0.35958173761E+02  0.41800000000E+01 0. -1.
</event>
<event>
11    1  0.8479398E-009  0.2952968E+03  0.7561462E-02  0.1002202E+00
         22   -1    0    0    0    0  0.00000000000E+00  0.00000000000E+00  0.19434392138E+04  0.19434392138E+04  0.00000000000E+00 0. -1.
         22   -1    0    0    0    0 -0.00000000000E+00 -0.00000000000E+00 -0.52240736066E+03  0.52240736066E+03  0.00000000000E+00 0.  1.
         24    2    1    2    0    0 -0.26683468036E+03 -0.23498099615E+02 -0.45834329633E+03  0.53699780906E+03  0.80840350802E+02 0.  0.
         25    2    1    2    0    0  0.25216389502E+03  0.78481572155E+02  0.94133088349E+03  0.98564589679E+03  0.12509202419E+03 0.  0.
        -24    2    1    2    0    0  0.14670785348E+02 -0.54983472540E+02  0.93804426600E+03  0.94320286863E+03  0.80412637255E+02 0.  0.
        -11    1    3    3    0    0 -0.24574379390E+03  0.10116908950E+01 -0.38367362510E+03  0.45562757419E+03  0.00000000000E+00 0.  1.
         12    1    3    3    0    0 -0.21090886461E+02 -0.24509790510E+02 -0.74669671230E+02  0.81370234878E+02  0.00000000000E+00 0. -1.
         11    1    5    5    0    0  0.23999174259E+02 -0.26545391599E+02  0.83834095833E+03  0.83910439195E+03  0.00000000000E+00 0. -1.
        -12    1    5    5    0    0 -0.93283889118E+01 -0.28438080941E+02  0.99703307672E+02  0.10409847668E+03  0.00000000000E+00 0.  1.
          5    1    4    4  501    0  0.14984452113E+03  0.57557180897E+02  0.34904566563E+03  0.38420900391E+03  0.41800000000E+01 0. -1.
         -5    1    4    4    0  501  0.10231937389E+03  0.20924391258E+02  0.59228521786E+03  0.60143689288E+03  0.41800000000E+01 0. -1.
</event>
<event>
11    1  0.8479398E-009  0.1555362E+03  0.7561462E-02  0.1091352E+00
         22   -1    0    0    0    0  0.00000000000E+00  0.00000000000E+00  0.20273199833E+03  0.20273199833E+03  0.00000000000E+00 0.  1.
         22   -1    0    0    0    0 -0.00000000000E+00 -0.00000000000E+00 -0.24067434570E+03  0.24067434570E+03  0.00000000000E+00 0.  1.
         24    2    1    2    0    0 -0.63916679628E+02 -0.69329373879E+02 -0.11213448752E+03  0.16731234466E+03  0.80792161547E+02 0.  0.
         25    2    1    2    0    0  0.53538043071E+02  0.69931901276E+02 -0.16830347998E+02  0.15390760690E+03  0.12508995954E+03 0.  0.
        -24    2    1    2    0    0  0.10378636557E+02 -0.60252739693E+00  0.91022488145E+02  0.12218639246E+03  0.80847646958E+02 0.  0.
        -13    1    3    3    0    0 -0.68593348294E+02 -0.69724784692E+02 -0.59533808861E+02  0.11450269616E+03  0.00000000000E+00 0.  1.
         14    1    3    3    0    0  0.46766686663E+01  0.39541081262E+00 -0.52600678655E+02  0.52809648498E+02  0.00000000000E+00 0. -1.
         13    1    5    5    0    0  0.30025509091E+02  0.69530758507E+01  0.21941661079E+01  0.30898071540E+02  0.00000000000E+00 0. -1.
        -14    1    5    5    0    0 -0.19646872535E+02 -0.75556032477E+01  0.88828322037E+02  0.91288320922E+02  0.00000000000E+00 0.  1.
          5    1    4    4  501    0  0.69668526341E+02  0.91530829298E+02  0.10135043046E+02  0.11554993627E+03  0.41800000000E+01 0. -1.
         -5    1    4    4    0  501 -0.16130483270E+02 -0.21598928022E+02 -0.26965391044E+02  0.38357670633E+02  0.41800000000E+01 0. -1.
</event>
<event>
11    1  0.8479398E-009  0.2760184E+03  0.7561462E-02  0.1010885E+00
         22   -1    0    0    0    0  0.00000000000E+00  0.00000000000E+00  0.32744861525E+03  0.32744861525E+03  0.00000000000E+00 0.  1.
         22   -1    0    0    0    0 -0.00000000000E+00 -0.00000000000E+00 -0.15944492098E+04  0.15944492098E+04  0.00000000000E+00 0.  1.
         24    2    1    2    0    0  0.15447363610E+03  0.19497827456E+03 -0.14976427912E+04  0.15208593781E+04  0.90557639817E+02 0.  0.
         25    2    1    2    0    0 -0.11846167084E+03 -0.15346057537E+03  0.16417441701E+03  0.28316859158E+03  0.12509155210E+03 0.  0.
        -24    2    1    2    0    0 -0.36011965259E+02 -0.41517699188E+02  0.66467779675E+02  0.11786985532E+03  0.80341496565E+02 0.  0.
        -13    1    3    3    0    0  0.14336157021E+03  0.20324799185E+03 -0.14524333257E+04  0.14735755330E+04  0.00000000000E+00 0.  1.
         14    1    3    3    0    0  0.11112065883E+02 -0.82697172858E+01 -0.45209465558E+02  0.47283845109E+02  0.00000000000E+00 0. -1.
         11    1    5    5    0    0 -0.52651806396E+02 -0.34337842361E+02  0.16897910753E+02  0.65091009537E+02  0.00000000000E+00 0. -1.
        -12    1    5    5    0    0  0.16639841137E+02 -0.71798568267E+01  0.49569868922E+02  0.52778845782E+02  0.00000000000E+00 0.  1.
          5    1    4    4  501    0 -0.35126429870E+01 -0.50956250165E+02 -0.82822937059E+01  0.51912877792E+02  0.41800000000E+01 0.  1.
         -5    1    4    4    0  501 -0.11494902785E+03 -0.10250432521E+03  0.17245671072E+03  0.23125571379E+03  0.41800000000E+01 0.  1.
</event>
<event>
11    1  0.8479398E-009  0.1560072E+03  0.7561462E-02  0.1090894E+00
         22   -1    0    0    0    0  0.00000000000E+00  0.00000000000E+00  0.50707755663E+03  0.50707755663E+03  0.00000000000E+00 0. -1.
         22   -1    0    0    0    0 -0.00000000000E+00 -0.00000000000E+00 -0.34723439350E+03  0.34723439350E+03  0.00000000000E+00 0.  1.
        -24    2    1    2    0    0 -0.48577913024E+02 -0.80224049895E+01 -0.20430091628E+03  0.22364799387E+03  0.76520508040E+02 0.  0.
         25    2    1    2    0    0  0.41990326235E+02  0.10064644598E+03 -0.68835019112E+02  0.17966217516E+03  0.12508933904E+03 0.  0.
         24    2    1    2    0    0  0.65875867897E+01 -0.92624040993E+02  0.43297909853E+03  0.45100178110E+03  0.85493260112E+02 0.  0.
        -13    1    5    5    0    0 -0.27047034045E+02 -0.32578248408E-01  0.11358024949E+03  0.11675622547E+03  0.00000000000E+00 0.  1.
         14    1    5    5    0    0  0.33634620834E+02 -0.92591462744E+02  0.31939884904E+03  0.33424555563E+03  0.00000000000E+00 0. -1.
         11    1    3    3    0    0 -0.17213304326E+02  0.16381194794E+02 -0.16847698979E+03  0.17014446061E+03  0.00000000000E+00 0. -1.
        -12    1    3    3    0    0 -0.31364608698E+02 -0.24403599783E+02 -0.35823926494E+02  0.53503533253E+02  0.00000000000E+00 0.  1.
          5    1    4    4  501    0 -0.40846086949E+02  0.18162913951E+02 -0.37672025859E+02  0.58608431087E+02  0.41800000000E+01 0. -1.
         -5    1    4    4    0  501  0.82836413183E+02  0.82483532031E+02 -0.31162993253E+02  0.12105374407E+03  0.41800000000E+01 0. -1.
</event>
<event>
11    1  0.8479398E-009  0.1273848E+03  0.7561462E-02  0.1122525E+00
         22   -1    0    0    0    0  0.00000000000E+00  0.00000000000E+00  0.50782509325E+03  0.50782509325E+03  0.00000000000E+00 0.  1.
         22   -1    0    0    0    0 -0.00000000000E+00 -0.00000000000E+00 -0.49277763314E+03  0.49277763314E+03  0.00000000000E+00 0. -1.
        -24    2    1    2    0    0  0.19631170610E+02 -0.23772842360E+02 -0.44604717483E+03  0.45381976124E+03  0.77741640235E+02 0.  0.
         25    2    1    2    0    0  0.65935831435E+01  0.22880722653E+02  0.68953523815E+02  0.14481167171E+03  0.12509527973E+03 0.  0.
         24    2    1    2    0    0 -0.26224753753E+02  0.89211970683E+00  0.39214111112E+03  0.40197129344E+03  0.84366676681E+02 0.  0.
        -11    1    5    5    0    0 -0.15189075396E+01 -0.15399227036E+01  0.36568558128E+03  0.36569197803E+03  0.00000000000E+00 0.  1.
         12    1    5    5    0    0 -0.24705846214E+02  0.24320424104E+01  0.26455529841E+02  0.36279315410E+02  0.00000000000E+00 0. -1.
         11    1    3    3    0    0 -0.93383138946E+00 -0.24455122716E+02 -0.41958999161E+03  0.42030308841E+03  0.00000000000E+00 0. -1.
        -12    1    3    3    0    0  0.20565001999E+02  0.68228035638E+00 -0.26457183217E+02  0.33516672829E+02  0.00000000000E+00 0.  1.
          5    1    4    4  501    0 -0.46340076500E+02 -0.23788745833E+02  0.11004818404E+02  0.53403048101E+02  0.41800000000E+01 0.  1.
         -5    1    4    4    0  501  0.52933659643E+02  0.46669468486E+02  0.57948705410E+02  0.91408623613E+02  0.41800000000E+01 0.  1.
</event>
<event>
11    1  0.8479398E-009  0.1414731E+03  0.7561462E-02  0.1105924E+00
         22   -1    0    0    0    0  0.00000000000E+00  0.00000000000E+00  0.26050824268E+02  0.26050824268E+02  0.00000000000E+00 0. -1.
         22   -1    0    0    0    0 -0.00000000000E+00 -0.00000000000E+00 -0.40016493433E+04  0.40016493433E+04  0.00000000000E+00 0. -1.
         24    2    1    2    0    0  0.23861121745E+02 -0.22978785907E+01 -0.31224348046E+04  0.31235867782E+04  0.81367182462E+02 0.  0.
         25    2    1    2    0    0 -0.76066098772E+02  0.36696359644E+02 -0.72370963177E+03  0.73927973675E+03  0.12508486659E+03 0.  0.
        -24    2    1    2    0    0  0.52204977027E+02 -0.34398481054E+02 -0.12945408268E+03  0.16483365268E+03  0.80642162714E+02 0.  0.
        -13    1    3    3    0    0 -0.29458754367E+02 -0.32183849099E+01 -0.82213990852E+03  0.82267381470E+03  0.00000000000E+00 0.  1.
         14    1    3    3    0    0  0.53319876112E+02  0.92050631926E+00 -0.23002948961E+04  0.23009129635E+04  0.00000000000E+00 0. -1.
         11    1    5    5    0    0  0.67206606489E+02 -0.34676129000E+02 -0.12934287746E+03  0.14982904201E+03  0.00000000000E+00 0. -1.
        -12    1    5    5    0    0 -0.15001629463E+02  0.27764794602E+00 -0.11120522316E+00  0.15004610675E+02  0.00000000000E+00 0.  1.
          5    1    4    4  501    0 -0.72720999915E+02  0.34174500857E+02 -0.20056873377E+03  0.21610536713E+03  0.41800000000E+01 0. -1.
         -5    1    4    4    0  501 -0.33450988565E+01  0.25218587870E+01 -0.52314089800E+03  0.52317436962E+03  0.41800000000E+01 0. -1.
</event>
<event>
11    1  0.8479398E-009  0.1365844E+03  0.7561462E-02  0.1111434E+00
         22   -1    0    0    0    0  0.00000000000E+00  0.00000000000E+00  0.37266033644E+03  0.37266033644E+03  0.00000000000E+00 0. -1.
         22   -1    0    0    0    0 -0.00000000000E+00 -0.00000000000E+00 -0.27025634845E+03  0.27025634845E+03  0.00000000000E+00 0.  1.
        -24    2    1    2    0    0 -0.25792694700E+02  0.29856611903E+02 -0.20226268473E+03  0.22113124866E+03  0.80200717742E+02 0.  0.
         25    2    1    2    0    0 -0.27978972163E+02 -0.22736388904E+01  0.33393678857E+02  0.13247680072E+03  0.12508785962E+03 0.  0.
         24    2    1    2    0    0  0.53771666863E+02 -0.27582973012E+02  0.27127299386E+03  0.28930863551E+03  0.80363155889E+02 0.  0.
        -11    1    5    5    0    0 -0.72256521371E+01  0.10255751673E+01 -0.22288547596E+01  0.76308352603E+01  0.00000000000E+00 0.  1.
         12    1    5    5    0    0  0.60997319001E+02 -0.28608548179E+02  0.27350184862E+03  0.28167780025E+03  0.00000000000E+00 0. -1.
         13    1    3    3    0    0  0.23676954630E+02 -0.26678542353E+01 -0.10153406768E+03  0.10429229370E+03  0.00000000000E+00 0. -1.
        -14    1    3    3    0    0 -0.49469649330E+02  0.32524466138E+02 -0.10072861705E+03  0.11683895495E+03  0.00000000000E+00 0.  1.
          5    1    4    4  501    0  0.46082197726E+02 -0.19929380499E+02  0.32564325519E+01  0.50485898103E+02  0.41800000000E+01 0. -1.
         -5    1    4    4    0  501 -0.74061169889E+02  0.17655741609E+02  0.30137246305E+02  0.81990902617E+02  0.41800000000E+01 0. -1.
</event>
<event>
11    1  0.8479398E-009  0.1336731E+03  0.7561462E-02  0.1114837E+00
         22   -1    0    0    0    0  0.00000000000E+00  0.00000000000E+00  0.40277462681E+03  0.40277462681E+03  0.00000000000E+00 0. -1.
         22   -1    0    0    0    0 -0.00000000000E+00 -0.00000000000E+00 -0.19701761552E+03  0.19701761552E+03  0.00000000000E+00 0. -1.
        -24    2    1    2    0    0 -0.20492456243E+02  0.45879048781E+02 -0.55350371004E+02  0.10995915162E+03  0.80638226516E+02 0.  0.
         25    2    1    2    0    0  0.55934556011E+01 -0.43370812130E+02 -0.70725422699E+02  0.15020857442E+03  0.12509283082E+03 0.  0.
         24    2    1    2    0    0  0.14899000642E+02 -0.25082366507E+01  0.33183280499E+03  0.33962451628E+03  0.70735635450E+02 0.  0.
        -13    1    5    5    0    0  0.50802698885E+01 -0.32187621259E+02  0.88814069559E+02  0.94603335333E+02  0.00000000000E+00 0.  1.
         14    1    5    5    0    0  0.98187307533E+01  0.29679384608E+02  0.24301873543E+03  0.24502118095E+03  0.00000000000E+00 0. -1.
         13    1    3    3    0    0 -0.23640379672E+02  0.11050878045E+02 -0.67949813958E+02  0.72788506466E+02  0.00000000000E+00 0. -1.
        -14    1    3    3    0    0  0.31479234290E+01  0.34828170736E+02  0.12599442954E+02  0.37170645158E+02  0.00000000000E+00 0.  1.
          5    1    4    4  501    0  0.48891814535E+02 -0.38357546724E+02 -0.83891614030E+02  0.10448438268E+03  0.41800000000E+01 0. -1.
         -5    1    4    4    0  501 -0.43298358933E+02 -0.50132654060E+01  0.13166191331E+02  0.45724191743E+02  0.41800000000E+01 0. -1.
</event>
<event>
11    1  0.8479398E-009  0.1444874E+03  0.7561462E-02  0.1102648E+00
         22   -1    0    0    0    0  0.00000000000E+00  0.00000000000E+00  0.40762586646E+03  0.40762586646E+03  0.00000000000E+00 0.  1.
         22   -1    0    0    0    0 -0.00000000000E+00 -0.00000000000E+00 -0.44394897192E+03  0.44394897192E+03  0.00000000000E+00 0.  1.
         24    2    1    2    0    0 -0.42408600569E+02 -0.57676092544E+02 -0.39988714532E+03  0.41388564488E+03  0.79161714203E+02 0.  0.
         25    2    1    2    0    0  0.51294289746E+02  0.84474187765E+02  0.23023043310E+03  0.28003821790E+03  0.12509339952E+03 0.  0.
        -24    2    1    2    0    0 -0.88856891774E+01 -0.26798095221E+02  0.13333360675E+03  0.15765097560E+03  0.79239422244E+02 0.  0.
        -11    1    3    3    0    0 -0.43370544191E+02 -0.60518984915E+02 -0.40284743214E+03  0.40967011756E+03  0.00000000000E+00 0.  1.
         12    1    3    3    0    0  0.96194362199E+00  0.28428923711E+01  0.29602868207E+01  0.42155273249E+01  0.00000000000E+00 0. -1.
         13    1    5    5    0    0  0.14404624898E+02 -0.49438525037E+02  0.86190742810E+02  0.10040171872E+03  0.00000000000E+00 0. -1.
        -14    1    5    5    0    0 -0.23290314075E+02  0.22640429817E+02  0.47142863944E+02  0.57249256876E+02  0.00000000000E+00 0.  1.
          5    1    4    4  501    0 -0.35865925997E+02  0.15956740399E+02  0.10787750289E+03  0.11487388842E+03  0.41800000000E+01 0. -1.
         -5    1    4    4    0  501  0.87160215744E+02  0.68517447366E+02  0.12235293021E+03  0.16516432948E+03  0.41800000000E+01 0. -1.
</event>
<event>
11    1  0.8479398E-009  0.1713906E+03  0.7561462E-02  0.1076828E+00
         22   -1    0    0    0    0  0.00000000000E+00  0.00000000000E+00  0.10675849600E+04  0.10675849600E+04  0.00000000000E+00 0. -1.
         22   -1    0    0    0    0 -0.00000000000E+00 -0.00000000000E+00 -0.24756629192E+03  0.24756629192E+03  0.00000000000E+00 0.  1.
         24    2    1    2    0    0 -0.29659357304E+02 -0.10660455273E+03 -0.15064831586E+03  0.20263555154E+03  0.78243488794E+02 0.  0.
         25    2    1    2    0    0  0.47312482576E+02  0.14530810274E+03  0.73425049073E+02  0.21069660728E+03  0.12509559049E+03 0.  0.
        -24    2    1    2    0    0 -0.17653125271E+02 -0.38703550014E+02  0.89724193483E+03  0.90181909305E+03  0.80156031349E+02 0.  0.
        -13    1    3    3    0    0 -0.43857468381E+02 -0.22662113873E+02 -0.67566623345E+02  0.83679731884E+02  0.00000000000E+00 0.  1.
         14    1    3    3    0    0  0.14198111077E+02 -0.83942438852E+02 -0.83081692515E+02  0.11895581965E+03  0.00000000000E+00 0. -1.
         11    1    5    5    0    0  0.11719746250E+02 -0.30407642171E+02  0.77964519025E+03  0.78032595743E+03  0.00000000000E+00 0. -1.
        -12    1    5    5    0    0 -0.29372871521E+02 -0.82959078431E+01  0.11759674458E+03  0.12149313562E+03  0.00000000000E+00 0.  1.
          5    1    4    4  501    0  0.51441798950E+02  0.11863479209E+03  0.10666381839E+03  0.16767562472E+03  0.41800000000E+01 0. -1.
         -5    1    4    4    0  501 -0.41293163749E+01  0.26673310652E+02 -0.33238769316E+02  0.43020982561E+02  0.41800000000E+01 0. -1.
</event>
<event>
11    1  0.8479398E-009  0.1636675E+03  0.7561462E-02  0.1083678E+00
         22   -1    0    0    0    0  0.00000000000E+00  0.00000000000E+00  0.66886804842E+03  0.66886804842E+03  0.00000000000E+00 0.  1.
         22   -1    0    0    0    0 -0.00000000000E+00 -0.00000000000E+00 -0.15378266315E+04  0.15378266315E+04  0.00000000000E+00 0. -1.
         24    2    1    2    0    0 -0.33649703846E+02 -0.15917650415E+02 -0.13407936627E+04  0.13436659318E+04  0.79528711324E+02 0.  0.
         25    2    1    2    0    0  0.74860484834E+02  0.11199438312E+03 -0.14382607690E+03  0.23341147603E+03  0.12509253656E+03 0.  0.
        -24    2    1    2    0    0 -0.41210780988E+02 -0.96076732705E+02  0.61566115657E+03  0.62961727214E+03  0.80313029027E+02 0.  0.
        -13    1    3    3    0    0  0.11225121977E+02  0.20389699219E+02 -0.66642744293E+03  0.66683377231E+03  0.00000000000E+00 0.  1.
         14    1    3    3    0    0 -0.44874825823E+02 -0.36307349634E+02 -0.67436621981E+03  0.67683215944E+03  0.00000000000E+00 0. -1.
         11    1    5    5    0    0 -0.69484042745E+01 -0.53596347349E+02  0.12841660791E+03  0.13932578354E+03  0.00000000000E+00 0. -1.
        -12    1    5    5    0    0 -0.34262376713E+02 -0.42480385356E+02  0.48724454866E+03  0.49029148860E+03  0.00000000000E+00 0.  1.
          5    1    4    4  501    0  0.32751456947E+02 -0.17332348339E+02 -0.27285511405E+01  0.37389645925E+02  0.41800000000E+01 0.  1.
         -5    1    4    4    0  501  0.42109027887E+02  0.12932673146E+03 -0.14109752576E+03  0.19602183010E+03  0.41800000000E+01 0.  1.
</event>
<event>
11    1  0.8479398E-009  0.1326087E+03  0.7561462E-02  0.1116105E+00
         22   -1    0    0    0    0  0.00000000000E+00  0.00000000000E+00  0.87065326888E+02  0.87065326888E+02  0.00000000000E+00 0.  1.
         22   -1    0    0    0    0 -0.00000000000E+00 -0.00000000000E+00 -0.16878910066E+04  0.16878910066E+04  0.00000000000E+00 0. -1.
        -24    2    1    2    0    0 -0.40325221638E+02 -0.12791839936E+02 -0.95269026356E+03  0.95697964710E+03  0.80009699464E+02 0.  0.
         25    2    1    2    0    0  0.37962851953E+02  0.37621934248E+02 -0.70423662287E+03  0.71725356342E+03  0.12508743016E+03 0.  0.
         24    2    1    2    0    0  0.23623696854E+01 -0.24830094311E+02  0.56101206718E+02  0.10072312297E+03  0.79847903738E+02 0.  0.
        -13    1    5    5    0    0  0.31047019493E+02 -0.79236751440E+01  0.59166861134E+02  0.67286101860E+02  0.00000000000E+00 0.  1.
         14    1    5    5    0    0 -0.28684649807E+02 -0.16906419167E+02 -0.30656544159E+01  0.33437021109E+02  0.00000000000E+00 0. -1.
         11    1    3    3    0    0 -0.61558832602E+02  0.63209558512E+01 -0.66704437943E+03  0.66990868667E+03  0.00000000000E+00 0. -1.
        -12    1    3    3    0    0  0.21233610964E+02 -0.19112795788E+02 -0.28564588413E+03  0.28707096042E+03  0.00000000000E+00 0.  1.
          5    1    4    4  501    0  0.81158119944E+01  0.53212360988E+02 -0.65633251101E+03  0.65854935971E+03  0.41800000000E+01 0.  1.
         -5    1    4    4    0  501  0.29847039958E+02 -0.15590426741E+02 -0.47904111859E+02  0.58704203710E+02  0.41800000000E+01 0.  1.
</event>
<event>
11    1  0.8479398E-009  0.1312325E+03  0.7561462E-02  0.1117764E+00
         22   -1    0    0    0    0  0.00000000000E+00  0.00000000000E+00  0.33090649444E+02  0.33090649444E+02  0.00000000000E+00 0. -1.
         22   -1    0    0    0    0 -0.00000000000E+00 -0.00000000000E+00 -0.17357211021E+04  0.17357211021E+04  0.00000000000E+00 0.  1.
        -24    2    1    2    0    0 -0.21801687787E+02 -0.34630583246E+01 -0.90005176205E+03  0.90396203121E+03  0.81036245874E+02 0.  0.
         25    2    1    2    0    0  0.47607711731E+02 -0.25215000589E+02 -0.75378575896E+03  0.76599149406E+03  0.12509079937E+03 0.  0.
         24    2    1    2    0    0 -0.25806023943E+02  0.28678058914E+02 -0.48792931651E+02  0.98858226277E+02  0.76836298640E+02 0.  0.
        -11    1    5    5    0    0 -0.13442198187E+02  0.54886460272E+02 -0.27166328209E+02  0.62699486455E+02  0.00000000000E+00 0.  1.
         12    1    5    5    0    0 -0.12363825756E+02 -0.26208401358E+02 -0.21626603442E+02  0.36158739822E+02  0.00000000000E+00 0. -1.
         11    1    3    3    0    0 -0.26655882059E+01 -0.38952580352E+02 -0.29565603206E+03  0.29822290015E+03  0.00000000000E+00 0. -1.
        -12    1    3    3    0    0 -0.19136099582E+02  0.35489522027E+02 -0.60439572999E+03  0.60573913107E+03  0.00000000000E+00 0.  1.
          5    1    4    4  501    0  0.88545562525E+02 -0.17148901457E+01 -0.47388268767E+03  0.48210531170E+03  0.41800000000E+01 0.  1.
         -5    1    4    4    0  501 -0.40937850795E+02 -0.23500110444E+02 -0.27990307129E+03  0.28388618236E+03  0.41800000000E+01 0.  1.
</event>
<event>
11    1  0.8479398E-009  0.1375950E+03  0.7561462E-02  0.1110274E+00
         22   -1    0    0    0    0  0.00000000000E+00  0.00000000000E+00  0.60333648056E+02  0.60333648056E+02  0.00000000000E+00 0.  1.
         22   -1    0    0    0    0 -0.00000000000E+00 -0.00000000000E+00 -0.22596884646E+04  0.22596884646E+04  0.00000000000E+00 0. -1.
        -24    2    1    2    0    0 -0.92945253963E+01  0.30079077260E+02 -0.18533588602E+04  0.18554397230E+04  0.82014401742E+02 0.  0.
         25    2    1    2    0    0  0.53296747539E+02  0.90794026171E+01 -0.33898004773E+03  0.36534611216E+03  0.12508928835E+03 0.  0.
         24    2    1    2    0    0 -0.44002222142E+02 -0.39158479877E+02 -0.70159086562E+01  0.99236277493E+02  0.79555224195E+02 0.  0.
        -13    1    5    5    0    0 -0.64224899586E+02 -0.41235097755E+02  0.33914165855E+01  0.76398119873E+02  0.00000000000E+00 0.  1.
         14    1    5    5    0    0  0.20222677443E+02  0.20766178781E+01 -0.10407325242E+02  0.22838157620E+02  0.00000000000E+00 0. -1.
         13    1    3    3    0    0 -0.28343248826E+02 -0.18281931942E+02 -0.53960274777E+03  0.54065580010E+03  0.00000000000E+00 0. -1.
        -14    1    3    3    0    0  0.19048723430E+02  0.48361009202E+02 -0.13137561124E+04  0.13147839229E+04  0.00000000000E+00 0.  1.
          5    1    4    4  501    0 -0.38215866549E+02  0.16387421500E+01 -0.15475342859E+03  0.15946546332E+03  0.41800000000E+01 0. -1.
         -5    1    4    4    0  501  0.91512614087E+02  0.74406604671E+01 -0.18422661913E+03  0.20588064883E+03  0.41800000000E+01 0. -1.
</event>
<event>
11    1  0.8479398E-009  0.1696117E+03  0.7561462E-02  0.1078370E+00
         22   -1    0    0    0    0  0.00000000000E+00  0.00000000000E+00  0.13873727094E+04  0.13873727094E+04  0.00000000000E+00 0.  1.
         22   -1    0    0    0    0 -0.00000000000E+00 -0.00000000000E+00 -0.12189564429E+04  0.12189564429E+04  0.00000000000E+00 0.  1.
        -24    2    1    2    0    0  0.11253208955E+03  0.26367944821E+02 -0.11988888870E+04  0.12073780979E+04  0.84074778847E+02 0.  0.
         25    2    1    2    0    0 -0.31408585587E+02  0.31220140128E+02  0.36197195487E+03  0.38552841461E+03  0.12508903214E+03 0.  0.
         24    2    1    2    0    0 -0.81123503960E+02 -0.57588084949E+02  0.10053331985E+04  0.10134226398E+04  0.80207208858E+02 0.  0.
        -13    1    5    5    0    0 -0.12912183569E+02 -0.32215810023E+01  0.52908698188E+03  0.52925432210E+03  0.00000000000E+00 0.  1.
         14    1    5    5    0    0 -0.68211320391E+02 -0.54366503946E+02  0.47624621663E+03  0.48416831767E+03  0.00000000000E+00 0. -1.
         13    1    3    3    0    0 -0.96703410170E+01 -0.10838243211E+02 -0.16210276760E+03  0.16275223585E+03  0.00000000000E+00 0. -1.
        -14    1    3    3    0    0  0.12220243056E+03  0.37206188031E+02 -0.10367861194E+04  0.10446258621E+04  0.00000000000E+00 0.  1.
          5    1    4    4  501    0  0.14632568817E+02 -0.42786787435E+02  0.12040391105E+03  0.12868331456E+03  0.41800000000E+01 0.  1.
         -5    1    4    4    0  501 -0.46041154403E+02  0.74006927563E+02  0.24156804382E+03  0.25684510006E+03  0.41800000000E+01 0.  1.
</event>
<event>
11    1  0.8479398E-009  0.2209753E+03  0.7561462E-02  0.1040608E+00
         22   -1    0    0    0    0  0.00000000000E+00  0.00000000000E+00  0.43171654319E+03  0.43171654319E+03  0.00000000000E+00 0. -1.
         22   -1    0    0    0    0 -0.00000000000E+00 -0.00000000000E+00 -0.99869890181E+03  0.99869890181E+03  0.00000000000E+00 0.  1.
        -24    2    1    2    0    0  0.20983659096E+02 -0.18105488249E+03 -0.86140310956E+03  0.88443014352E+03  0.83547454719E+02 0.  0.
         25    2    1    2    0    0  0.36215987874E+02  0.18568537261E+03 -0.88825913848E+01  0.22697477023E+03  0.12509192825E+03 0.  0.
         24    2    1    2    0    0 -0.57199646969E+02 -0.46304901180E+01  0.30330334232E+03  0.31901053125E+03  0.80508139549E+02 0.  0.
        -11    1    5    5    0    0  0.47668462114E+01 -0.47459528493E+01 -0.23605137080E+01  0.71287387536E+01  0.00000000000E+00 0.  1.
         12    1    5    5    0    0 -0.61966493181E+02  0.11546273131E+00  0.30566385603E+03  0.31188179249E+03  0.00000000000E+00 0. -1.
         11    1    3    3    0    0  0.14420193727E+02  0.29963374656E+01 -0.99510076100E+02  0.10059411151E+03  0.00000000000E+00 0. -1.
        -12    1    3    3    0    0  0.65634653688E+01 -0.18405121996E+03 -0.76189303346E+03  0.78383603201E+03  0.00000000000E+00 0.  1.
          5    1    4    4  501    0  0.50419712780E+02  0.40406663182E+02 -0.42075976344E+02  0.77218560279E+02  0.41800000000E+01 0.  1.
         -5    1    4    4    0  501 -0.14203724906E+02  0.14527870943E+03  0.33193384959E+02  0.14975620995E+03  0.41800000000E+01 0.  1.
</event>
<event>
11    1  0.8479398E-009  0.3354089E+03  0.7561462E-02  0.9862275E-01
         22   -1    0    0    0    0  0.00000000000E+00  0.00000000000E+00  0.12254451124E+04  0.12254451124E+04  0.00000000000E+00 0. -1.
         22   -1    0    0    0    0 -0.00000000000E+00 -0.00000000000E+00 -0.12329209752E+04  0.12329209752E+04  0.00000000000E+00 0.  1.
         24    2    1    2    0    0  0.19540719920E+02  0.24931961113E+02 -0.79781761771E+03  0.80258350708E+03  0.81387298053E+02 0.  0.
         25    2    1    2    0    0 -0.10321655794E+03 -0.32309762253E+03 -0.33065824470E+03  0.48993123942E+03  0.12510800558E+03 0.  0.
        -24    2    1    2    0    0  0.83675838022E+02  0.29816566141E+03  0.11209999996E+04  0.11658513411E+04  0.81632977547E+02 0.  0.
        -11    1    3    3    0    0  0.12306492426E+02  0.87217247533E+01 -0.76600470792E+03  0.76615320322E+03  0.00000000000E+00 0.  1.
         12    1    3    3    0    0  0.72342274936E+01  0.16210236360E+02 -0.31812909783E+02  0.36430303857E+02  0.00000000000E+00 0. -1.
         11    1    5    5    0    0  0.99038186119E+02  0.24329802674E+03  0.94721440265E+03  0.98296369044E+03  0.00000000000E+00 0. -1.
        -12    1    5    5    0    0 -0.15362348097E+02  0.54867634671E+02  0.17378559693E+03  0.18288765069E+03  0.00000000000E+00 0.  1.
          5    1    4    4  501    0 -0.37495385297E+02 -0.69189719942E+02 -0.16241616229E+02  0.80463555489E+02  0.41800000000E+01 0. -1.
         -5    1    4    4    0  501 -0.65721172645E+02 -0.25390790258E+03 -0.31441662847E+03  0.40946768393E+03  0.41800000000E+01 0. -1.
</event>
<event>
11    1  0.8479398E-009  0.2950507E+03  0.7561462E-02  0.1002308E+00
         22   -1    0    0    0    0  0.00000000000E+00  0.00000000000E+00  0.83940386911E+03  0.83940386911E+03  0.00000000000E+00 0. -1.
         22   -1    0    0    0    0 -0.00000000000E+00 -0.00000000000E+00 -0.19510002717E+03  0.19510002717E+03  0.00000000000E+00 0.  1.
        -24    2    1    2    0    0  0.11547445458E+03 -0.24594333594E+03  0.12252168648E+01  0.28293429906E+03  0.78916679290E+02 0.  0.
         25    2    1    2    0    0 -0.72726913947E+02  0.24498652734E+03  0.39422833525E+03  0.48617993920E+03  0.12508936956E+03 0.  0.
         24    2    1    2    0    0 -0.42747540638E+02  0.95680859946E+00  0.24885028982E+03  0.26538965801E+03  0.81712521201E+02 0.  0.
        -13    1    5    5    0    0 -0.40624239082E+02  0.30588538822E+02  0.86474481369E+02  0.10031860962E+03  0.00000000000E+00 0.  1.
         14    1    5    5    0    0 -0.21233015554E+01 -0.29631730223E+02  0.16237580845E+03  0.16507104839E+03  0.00000000000E+00 0. -1.
         11    1    3    3    0    0  0.37026368824E+02 -0.94787387490E+02  0.38146991753E+02  0.10867747603E+03  0.00000000000E+00 0. -1.
        -12    1    3    3    0    0  0.78448085761E+02 -0.15115594845E+03 -0.36921774888E+02  0.17425682303E+03  0.00000000000E+00 0.  1.
          5    1    4    4  501    0 -0.55384133105E+02  0.25622058574E+03  0.35119412621E+03  0.43825925824E+03  0.41800000000E+01 0.  1.
         -5    1    4    4    0  501 -0.17342780842E+02 -0.11234058394E+02  0.43034209045E+02  0.47920680958E+02  0.41800000000E+01 0.  1.
</event>
<event>
11    1  0.8479398E-009  0.2176288E+03  0.7561462E-02  0.1042713E+00
         22   -1    0    0    0    0  0.00000000000E+00  0.00000000000E+00  0.58757268756E+03  0.58757268756E+03  0.00000000000E+00 0. -1.
         22   -1    0    0    0    0 -0.00000000000E+00 -0.00000000000E+00 -0.42198806968E+03  0.42198806968E+03  0.00000000000E+00 0. -1.
        -24    2    1    2    0    0  0.41162277849E+02  0.20143855958E+01 -0.22898281948E+03  0.24567714106E+03  0.78903327907E+02 0.  0.
         25    2    1    2    0    0 -0.20998742619E+03  0.40222072405E+02 -0.73170032309E+02  0.25829849156E+03  0.12510684572E+03 0.  0.
         24    2    1    2    0    0  0.16882514834E+03 -0.42236458001E+02  0.46773746967E+03  0.50558512462E+03  0.80945219784E+02 0.  0.
        -13    1    5    5    0    0 -0.36018364640E+01  0.76059338253E+01  0.64321275152E+01  0.10592248092E+02  0.00000000000E+00 0.  1.
         14    1    5    5    0    0  0.17242698481E+03 -0.49842391826E+02  0.46130534216E+03  0.49499287653E+03  0.00000000000E+00 0. -1.
         11    1    3    3    0    0  0.64111968438E+02 -0.30879076470E+01 -0.14727587440E+03  0.16065510527E+03  0.00000000000E+00 0. -1.
        -12    1    3    3    0    0 -0.22949690589E+02  0.51022932429E+01 -0.81706945085E+02  0.85022035789E+02  0.00000000000E+00 0.  1.
          5    1    4    4  501    0 -0.20368432982E+03  0.44286387325E+02 -0.99204765648E+02  0.23088449113E+03  0.41800000000E+01 0. -1.
         -5    1    4    4    0  501 -0.63030963737E+01 -0.40643149200E+01  0.26034733339E+02  0.27414000432E+02  0.41800000000E+01 0. -1.
</event>
<event>
11    1  0.8479398E-009  0.1447188E+03  0.7561462E-02  0.1102401E+00
         22   -1    0    0    0    0  0.00000000000E+00  0.00000000000E+00  0.72349960260E+03  0.72349960260E+03  0.00000000000E+00 0.  1.
         22   -1    0    0    0    0 -0.00000000000E+00 -0.00000000000E+00 -0.84570728461E+02  0.84570728461E+02  0.00000000000E+00 0. -1.
         24    2    1    2    0    0 -0.59450675710E+01  0.62983161880E+02  0.16307476839E+02  0.10367986713E+03  0.80506885037E+02 0.  0.
         25    2    1    2    0    0  0.87877975879E+01 -0.10004128224E+03  0.13733001564E+03  0.21116692849E+03  0.12508579038E+03 0.  0.
        -24    2    1    2    0    0 -0.28427300168E+01  0.37058120358E+02  0.48529138166E+03  0.49322353544E+03  0.79877064274E+02 0.  0.
        -11    1    3    3    0    0  0.73608669415E+01  0.23289027011E+02  0.46185880999E+02  0.52246499834E+02  0.00000000000E+00 0.  1.
         12    1    3    3    0    0 -0.13305934513E+02  0.39694134869E+02 -0.29878404160E+02  0.51433367296E+02  0.00000000000E+00 0. -1.
         11    1    5    5    0    0  0.22281693549E+02  0.11810802697E+02  0.45739955077E+02  0.52231335597E+02  0.00000000000E+00 0. -1.
        -12    1    5    5    0    0 -0.25124423566E+02  0.25247317661E+02  0.43955142659E+03  0.44099219984E+03  0.00000000000E+00 0.  1.
          5    1    4    4  501    0  0.15217060854E+02  0.13194754520E+02  0.82677956103E+02  0.85198458397E+02  0.41800000000E+01 0. -1.
         -5    1    4    4    0  501 -0.64292632661E+01 -0.11323603676E+03  0.54652059538E+02  0.12596847010E+03  0.41800000000E+01 0. -1.
</event>
<event>
11    1  0.8479398E-009  0.1351643E+03  0.7561462E-02  0.1113082E+00
         22   -1    0    0    0    0  0.00000000000E+00  0.00000000000E+00  0.36136742988E+04  0.36136742988E+04  0.00000000000E+00 0.  1.
         22   -1    0    0    0    0 -0.00000000000E+00 -0.00000000000E+00 -0.27272990743E+03  0.27272990743E+03  0.00000000000E+00 0.  1.
         24    2    1    2    0    0  0.38421557349E+02 -0.93960951504E+00 -0.22739120073E+03  0.24395315032E+03  0.79556787534E+02 0.  0.
         25    2    1    2    0    0 -0.74728194319E+02 -0.34498349046E+02  0.11753428447E+03  0.19035810097E+03  0.12508980561E+03 0.  0.
        -24    2    1    2    0    0  0.36306636970E+02  0.35437958561E+02  0.34508013076E+04  0.34520929549E+04  0.79637202233E+02 0.  0.
        -13    1    3    3    0    0 -0.11567040796E+02 -0.13946101966E+01 -0.15800560261E+03  0.15843456638E+03  0.00000000000E+00 0.  1.
         14    1    3    3    0    0  0.49988598145E+02  0.45500068160E+00 -0.69385598126E+02  0.85518583930E+02  0.00000000000E+00 0. -1.
         13    1    5    5    0    0 -0.22179325497E+02  0.67932203681E+01  0.15558679480E+04  0.15560408549E+04  0.00000000000E+00 0. -1.
        -14    1    5    5    0    0  0.58485962468E+02  0.28644738193E+02  0.18949333596E+04  0.18960521001E+04  0.00000000000E+00 0.  1.
          5    1    4    4  501    0 -0.10962708248E+02 -0.27684641647E+02  0.12227614424E+03  0.12591881593E+03  0.41800000000E+01 0.  1.
         -5    1    4    4    0  501 -0.63765486071E+02 -0.68137073988E+01 -0.47418597742E+01  0.64439285040E+02  0.41800000000E+01 0.  1.
</event>
<event>
11    1  0.8479398E-009  0.1299689E+03  0.7561462E-02  0.1119307E+00
         22   -1    0    0    0    0  0.00000000000E+00  0.00000000000E+00  0.14449509276E+04  0.14449509276E+04  0.00000000000E+00 0. -1.
         22   -1    0    0    0    0 -0.00000000000E+00 -0.00000000000E+00 -0.22667542343E+03  0.22667542343E+03  0.00000000000E+00 0. -1.
        -24    2    1    2    0    0 -0.14382286086E+02 -0.19642845950E+02 -0.20362893433E+03  0.22082587713E+03  0.81894038641E+02 0.  0.
         25    2    1    2    0    0 -0.14769143994E+02 -0.52980412065E+01  0.30376409067E+03  0.32888635985E+03  0.12508964010E+03 0.  0.
         24    2    1    2    0    0  0.29151430080E+02  0.24940887156E+02  0.11181403479E+04  0.11219141141E+04  0.83555898228E+02 0.  0.
        -11    1    5    5    0    0 -0.14765352449E+02  0.39674088360E+02  0.38714985308E+03  0.38945738876E+03  0.00000000000E+00 0.  1.
         12    1    5    5    0    0  0.43916782530E+02 -0.14733201203E+02  0.73099049478E+03  0.73245672532E+03  0.00000000000E+00 0. -1.
         11    1    3    3    0    0 -0.34726322610E+02 -0.38544068529E+02 -0.90282087154E+02  0.10412693197E+03  0.00000000000E+00 0. -1.
        -12    1    3    3    0    0  0.20344036524E+02  0.18901222579E+02 -0.11334684718E+03  0.11669894516E+03  0.00000000000E+00 0.  1.
          5    1    4    4  501    0  0.47496160156E+02  0.11796549387E+02  0.20508978612E+03  0.21088939418E+03  0.41800000000E+01 0. -1.
         -5    1    4    4    0  501 -0.62265304150E+02 -0.17094590593E+02  0.98674304545E+02  0.11799696566E+03  0.41800000000E+01 0. -1.
</event>
<event>
11    1  0.8479398E-009  0.3698082E+03  0.7561462E-02  0.9743296E-01
         22   -1    0    0    0    0  0.00000000000E+00  0.00000000000E+00  0.72896086304E+03  0.72896086304E+03  0.00000000000E+00 0.  1.
         22   -1    0    0    0    0 -0.00000000000E+00 -0.00000000000E+00 -0.12963845587E+04  0.12963845587E+04  0.00000000000E+00 0.  1.
        -24    2    1    2    0    0  0.16727812520E+02  0.35170646337E+03 -0.11422438827E+04  0.11981085161E+04  0.82253710058E+02 0.  0.
         25    2    1    2    0    0  0.77393022796E+00 -0.31398957603E+03  0.11273068490E+03  0.35629418955E+03  0.12508912567E+03 0.  0.
         24    2    1    2    0    0 -0.17501742748E+02 -0.37716887332E+02  0.46208950210E+03  0.47094271608E+03  0.80817444189E+02 0.  0.
        -13    1    5    5    0    0 -0.38453799830E+02 -0.41889695967E+02  0.41907395218E+03  0.42291419785E+03  0.00000000000E+00 0.  1.
         14    1    5    5    0    0  0.20952057082E+02  0.41728086350E+01  0.43015549921E+02  0.48028518225E+02  0.00000000000E+00 0. -1.
         13    1    3    3    0    0  0.89427102265E+01  0.90010857171E+02 -0.18845095234E+03  0.20903513559E+03  0.00000000000E+00 0. -1.
        -14    1    3    3    0    0  0.77851022931E+01  0.26169560619E+03 -0.95379293031E+03  0.98907338051E+03  0.00000000000E+00 0.  1.
          5    1    4    4  501    0 -0.26904937918E+02 -0.27189911004E+03  0.53537134463E+02  0.27845412350E+03  0.41800000000E+01 0.  1.
         -5    1    4    4    0  501  0.27678868146E+02 -0.42090465993E+02  0.59193550437E+02  0.77840066050E+02  0.41800000000E+01 0.  1.
</event>
<event>
11    1  0.8479398E-009  0.1814467E+03  0.7561462E-02  0.1068479E+00
         22   -1    0    0    0    0  0.00000000000E+00  0.00000000000E+00  0.19160239323E+03  0.19160239323E+03  0.00000000000E+00 0. -1.
         22   -1    0    0    0    0 -0.00000000000E+00 -0.00000000000E+00 -0.79567752880E+03  0.79567752880E+03  0.00000000000E+00 0. -1.
        -24    2    1    2    0    0 -0.39996763737E+01 -0.70883574695E+02 -0.59219001726E+03  0.60480248283E+03  0.10028234204E+03 0.  0.
         25    2    1    2    0    0  0.70607034707E+02 -0.59143427391E+02 -0.10859080686E+03  0.18953326021E+03  0.12509034749E+03 0.  0.
         24    2    1    2    0    0 -0.66607358333E+02  0.13002700209E+03  0.96705688552E+02  0.19294417899E+03  0.80820198916E+02 0.  0.
        -11    1    5    5    0    0 -0.10641207804E+01 -0.43366169055E+01  0.28106668435E+02  0.28459153356E+02  0.00000000000E+00 0.  1.
         12    1    5    5    0    0 -0.65543237553E+02  0.13436361899E+03  0.68599020118E+02  0.16448502564E+03  0.00000000000E+00 0. -1.
         13    1    3    3    0    0 -0.97017116165E+01 -0.88609058203E+02 -0.32615083163E+03  0.33811248627E+03  0.00000000000E+00 0. -1.
        -14    1    3    3    0    0  0.57020352428E+01  0.17725483508E+02 -0.26603918564E+03  0.26668999656E+03  0.00000000000E+00 0.  1.
          5    1    4    4  501    0  0.72820957531E+01 -0.73078863397E+01  0.28065730990E+02  0.30192578183E+02  0.41800000000E+01 0.  1.
         -5    1    4    4    0  501  0.63324938954E+02 -0.51835541051E+02 -0.13665653785E+03  0.15934068202E+03  0.41800000000E+01 0.  1.
</event>
<event>
11    1  0.8479398E-009  0.2039257E+03  0.7561462E-02  0.1051782E+00
         22   -1    0    0    0    0  0.00000000000E+00  0.00000000000E+00  0.59660117166E+03  0.59660117166E+03  0.00000000000E+00 0.  1.
         22   -1    0    0    0    0 -0.00000000000E+00 -0.00000000000E+00 -0.10538601419E+04  0.10538601419E+04  0.00000000000E+00 0.  1.
         24    2    1    2    0    0  0.14631538592E+03 -0.58499232984E+01 -0.66882298330E+03  0.68947520739E+03  0.81298615297E+02 0.  0.
         25    2    1    2    0    0 -0.22743864558E+03 -0.34248065008E+02 -0.32177434519E+03  0.41483352985E+03  0.12508741266E+03 0.  0.
        -24    2    1    2    0    0  0.81123259657E+02  0.40097988307E+02  0.53333835825E+03  0.54615257632E+03  0.75126561989E+02 0.  0.
        -13    1    3    3    0    0  0.90058899880E+02  0.22653419533E+02 -0.26597197483E+03  0.28171772089E+03  0.00000000000E+00 0.  1.
         14    1    3    3    0    0  0.56256486040E+02 -0.28503342831E+02 -0.40285100847E+03  0.40775748650E+03  0.00000000000E+00 0. -1.
         11    1    5    5    0    0  0.25961407873E+02 -0.17108948244E+02  0.78668470322E+02  0.84589828180E+02  0.00000000000E+00 0. -1.
        -12    1    5    5    0    0  0.55161851784E+02  0.57206936550E+02  0.45466988793E+03  0.46156274814E+03  0.00000000000E+00 0.  1.
          5    1    4    4  501    0 -0.16639675506E+03 -0.80714285260E+02 -0.22680434690E+03  0.29267791189E+03  0.41800000000E+01 0.  1.
         -5    1    4    4    0  501 -0.61041890520E+02  0.46466220252E+02 -0.94969998289E+02  0.12215561795E+03  0.41800000000E+01 0.  1.
</event>
<event>
11    1  0.8479398E-009  0.2806340E+03  0.7561462E-02  0.1008738E+00
         22   -1    0    0    0    0  0.00000000000E+00  0.00000000000E+00  0.53884372869E+03  0.53884372869E+03  0.00000000000E+00 0. -1.
         22   -1    0    0    0    0 -0.00000000000E+00 -0.00000000000E+00 -0.13515992575E+04  0.13515992575E+04  0.00000000000E+00 0.  1.
        -24    2    1    2    0    0  0.13283108429E+02  0.20077937789E+03 -0.10246216918E+04  0.10473421004E+04  0.81160732174E+02 0.  0.
         25    2    1    2    0    0 -0.74435624694E+02 -0.41789017980E+03 -0.96290701702E+02  0.45287118831E+03  0.12509016497E+03 0.  0.
         24    2    1    2    0    0  0.61152516265E+02  0.21711080191E+03  0.30815686467E+03  0.39022969748E+03  0.80261030436E+02 0.  0.
        -13    1    5    5    0    0 -0.15608193569E+02  0.23941021778E+02  0.19820855801E+02  0.34780088484E+02  0.00000000000E+00 0.  1.
         14    1    5    5    0    0  0.76760709834E+02  0.19316978013E+03  0.28833600887E+03  0.35544960900E+03  0.00000000000E+00 0. -1.
         11    1    3    3    0    0 -0.10650314406E+02  0.15988592470E+03 -0.63745052441E+03  0.65728236640E+03  0.00000000000E+00 0. -1.
        -12    1    3    3    0    0  0.23933422834E+02  0.40893453194E+02 -0.38717116739E+03  0.39005973402E+03  0.00000000000E+00 0.  1.
          5    1    4    4  501    0 -0.68293225591E+02 -0.18580406627E+03  0.83502031006E+01  0.19817748105E+03  0.41800000000E+01 0.  1.
         -5    1    4    4    0  501 -0.61423991026E+01 -0.23208611353E+03 -0.10464090480E+03  0.25469370726E+03  0.41800000000E+01 0.  1.
</event>
<event>
11    1  0.8479398E-009  0.4498805E+03  0.7561462E-02  0.9513063E-01
         22   -1    0    0    0    0  0.00000000000E+00  0.00000000000E+00  0.19388590270E+04  0.19388590270E+04  0.00000000000E+00 0. -1.
         22   -1    0    0    0    0 -0.00000000000E+00 -0.00000000000E+00 -0.32304092469E+03  0.32304092469E+03  0.00000000000E+00 0. -1.
        -24    2    1    2    0    0 -0.34627617446E+03  0.28813093226E+03 -0.93010145989E+01  0.45764145325E+03  0.80140924232E+02 0.  0.
         25    2    1    2    0    0  0.29521630052E+03 -0.25879445188E+03  0.39713428022E+03  0.57226795513E+03  0.12509094098E+03 0.  0.
         24    2    1    2    0    0  0.51059873942E+02 -0.29336480374E+02  0.12279848367E+04  0.12319905433E+04  0.79913702683E+02 0.  0.
        -13    1    5    5    0    0  0.33478779542E+02  0.60053884533E+00  0.16119927727E+03  0.16464020262E+03  0.00000000000E+00 0.  1.
         14    1    5    5    0    0  0.17581094401E+02 -0.29937019219E+02  0.10667855594E+04  0.10673503407E+04  0.00000000000E+00 0. -1.
         13    1    3    3    0    0 -0.32646497204E+03  0.26064649867E+03 -0.28459556583E+02  0.41871938288E+03  0.00000000000E+00 0. -1.
        -14    1    3    3    0    0 -0.19811202426E+02  0.27484433591E+02  0.19158541984E+02  0.38922070376E+02  0.00000000000E+00 0.  1.
          5    1    4    4  501    0  0.10688839620E+03 -0.11977794209E+03  0.83830095051E+02  0.18115419369E+03  0.41800000000E+01 0. -1.
         -5    1    4    4    0  501  0.18832790432E+03 -0.13901650980E+03  0.31330418517E+03  0.39111376144E+03  0.41800000000E+01 0. -1.
</event>
<event>
11    1  0.8479398E-009  0.1784981E+03  0.7561462E-02  0.1070864E+00
         22   -1    0    0    0    0  0.00000000000E+00  0.00000000000E+00  0.38331431956E+03  0.38331431956E+03  0.00000000000E+00 0.  1.
         22   -1    0    0    0    0 -0.00000000000E+00 -0.00000000000E+00 -0.62348244796E+03  0.62348244796E+03  0.00000000000E+00 0.  1.
         24    2    1    2    0    0 -0.19177990793E+00  0.33169648117E+02 -0.50166401029E+03  0.50914029259E+03  0.80354190825E+02 0.  0.
         25    2    1    2    0    0  0.12568835874E+03 -0.49114918603E+02 -0.13633424049E+02  0.18451866424E+03  0.12510566913E+03 0.  0.
        -24    2    1    2    0    0 -0.12549657883E+03  0.15945270486E+02  0.27512930594E+03  0.31313781069E+03  0.79721456012E+02 0.  0.
        -11    1    3    3    0    0 -0.21773444519E+02  0.53191813032E+02 -0.32699490417E+03  0.33200770957E+03  0.00000000000E+00 0.  1.
         12    1    3    3    0    0  0.21581664611E+02 -0.20022164914E+02 -0.17466910612E+03  0.17713258302E+03  0.00000000000E+00 0. -1.
         13    1    5    5    0    0 -0.45596939410E+01  0.24249443431E+02  0.77098410599E+02  0.80950548068E+02  0.00000000000E+00 0. -1.
        -14    1    5    5    0    0 -0.12093688489E+03 -0.83041729458E+01  0.19803089534E+03  0.23218726263E+03  0.00000000000E+00 0.  1.
          5    1    4    4  501    0  0.42349501684E+02 -0.62268889336E+02 -0.52132609553E+02  0.91685201918E+02  0.41800000000E+01 0.  1.
         -5    1    4    4    0  501  0.83338857057E+02  0.13153970733E+02  0.38499185504E+02  0.92833462319E+02  0.41800000000E+01 0.  1.
</event>
<event>
11    1  0.8479398E-009  0.3105851E+03  0.7561462E-02  0.9958083E-01
         22   -1    0    0    0    0  0.00000000000E+00  0.00000000000E+00  0.30924623180E+04  0.30924623180E+04  0.00000000000E+00 0. -1.
         22   -1    0    0    0    0 -0.00000000000E+00 -0.00000000000E+00 -0.41424823111E+03  0.41424823111E+03  0.00000000000E+00 0.  1.
         24    2    1    2    0    0 -0.21410828673E+03  0.18404560164E+03 -0.19583835756E+03  0.35259137587E+03  0.79075116906E+02 0.  0.
         25    2    1    2    0    0  0.25073426160E+03 -0.14922595831E+03  0.41701217462E+02  0.32019246704E+03  0.12509263704E+03 0.  0.
        -24    2    1    2    0    0 -0.36625974872E+02 -0.34819643337E+02  0.28323512270E+04  0.28339267062E+04  0.79832533972E+02 0.  0.
        -11    1    3    3    0    0 -0.20821146403E+03  0.17966019398E+03 -0.20339423497E+03  0.34205118604E+03  0.00000000000E+00 0.  1.
         12    1    3    3    0    0 -0.58968226975E+01  0.43854076580E+01  0.75558774011E+01  0.10540189825E+02  0.00000000000E+00 0. -1.
         13    1    5    5    0    0 -0.28873360081E+02 -0.50920486245E+02  0.26614641812E+04  0.26621078405E+04  0.00000000000E+00 0. -1.
        -14    1    5    5    0    0 -0.77526147908E+01  0.16100842909E+02  0.17088704583E+03  0.17181886570E+03  0.00000000000E+00 0.  1.
          5    1    4    4  501    0  0.17412927622E+03 -0.31587584336E+02  0.22946230791E+02  0.17850149083E+03  0.41800000000E+01 0. -1.
         -5    1    4    4    0  501  0.76604985380E+02 -0.11763837397E+03  0.18754986670E+02  0.14169097621E+03  0.41800000000E+01 0. -1.
</event>
<event>
11    1  0.8479398E-009  0.2042659E+03  0.7561462E-02  0.1051547E+00
         22   -1    0    0    0    0  0.00000000000E+00  0.00000000000E+00  0.12669532577E+04  0.12669532577E+04  0.00000000000E+00 0.  1.
         22   -1    0    0    0    0 -0.00000000000E+00 -0.00000000000E+00 -0.38362624679E+03  0.38362624679E+03  0.00000000000E+00 0.  1.
        -24    2    1    2    0    0 -0.47258648664E+02 -0.68062483185E+02 -0.24575282237E+03  0.27140707200E+03  0.80009171568E+02 0.  0.
         25    2    1    2    0    0 -0.54063165583E+02 -0.63655670620E+02 -0.70002223861E+02  0.16589950150E+03  0.12508981963E+03 0.  0.
         24    2    1    2    0    0  0.10132181425E+03  0.13171815380E+03  0.11990820572E+04  0.12132729311E+04  0.81348898397E+02 0.  0.
        -11    1    5    5    0    0  0.81830224242E+02  0.14003236271E+03  0.10001366017E+04  0.10132020876E+04  0.00000000000E+00 0.  1.
         12    1    5    5    0    0  0.19491590004E+02 -0.83142089060E+01  0.19894545546E+03  0.20007084345E+03  0.00000000000E+00 0. -1.
         11    1    3    3    0    0 -0.67340977813E+02 -0.57663223185E+02 -0.16220028232E+03  0.18484800833E+03  0.00000000000E+00 0. -1.
        -12    1    3    3    0    0  0.20082329150E+02 -0.10399259999E+02 -0.83552540054E+02  0.86559063662E+02  0.00000000000E+00 0.  1.
          5    1    4    4  501    0 -0.64858861189E+02 -0.61625400012E+02  0.52657855843E+01  0.89719355209E+02  0.41800000000E+01 0.  1.
         -5    1    4    4    0  501  0.10795695606E+02 -0.20302706079E+01 -0.75268009446E+02  0.76180146287E+02  0.41800000000E+01 0.  1.
</event>
<event>
11    1  0.9115523E-009  0.1465596E+03  0.7561462E-02  0.1100447E+00
         22   -1    0    0    0    0  0.00000000000E+00  0.00000000000E+00  0.88785575337E+03  0.88785575337E+03  0.00000000000E+00 0. -1.
         22   -1    0    0    0    0 -0.00000000000E+00 -0.00000000000E+00 -0.14702418861E+04  0.14702418861E+04  0.00000000000E+00 0.  1.
        -24    2    1    2    0    0 -0.36009198298E+02 -0.32745712408E+02 -0.66964648695E+03  0.67608585688E+03  0.79351901933E+02 0.  0.
         25    2    1    2    0    0  0.69021044799E+02  0.10140078884E+03 -0.78412745992E+03  0.80345964102E+03  0.12508196012E+03 0.  0.
         24    2    1    2    0    0 -0.33011846501E+02 -0.68655076427E+02  0.87138781411E+03  0.87855214161E+03  0.82059986691E+02 0.  0.
        -11    1    5    5    0    0  0.24917169287E+02 -0.94608461661E+01  0.30173236767E+03  0.30290723768E+03  0.00000000000E+00 0.  1.
         12    1    5    5    0    0 -0.57929015788E+02 -0.59194230261E+02  0.56965544644E+03  0.57564490393E+03  0.00000000000E+00 0. -1.
         13    1    3    3    0    0 -0.11044182090E+02  0.26374026763E+02 -0.18133555241E+03  0.18357599466E+03  0.00000000000E+00 0. -1.
        -14    1    3    3    0    0 -0.24965016208E+02 -0.59119739171E+02 -0.48831093454E+03  0.49250986222E+03  0.00000000000E+00 0.  1.
          5    1    4    4  501    0  0.92159652254E+02  0.99795581386E+02 -0.74852963267E+03  0.76076714109E+03  0.41800000000E+01 0.  1.
         -5    1    4    4    0  501 -0.23138607455E+02  0.16052074496E+01 -0.35597827246E+02  0.42692499934E+02  0.41800000000E+01 0.  1.
</event>
<event>
11    1  0.8479398E-009  0.1331676E+03  0.7561462E-02  0.1115437E+00
         22   -1    0    0    0    0  0.00000000000E+00  0.00000000000E+00  0.41214760217E+03  0.41214760217E+03  0.00000000000E+00 0. -1.
         22   -1    0    0    0    0 -0.00000000000E+00 -0.00000000000E+00 -0.14404824080E+04  0.14404824080E+04  0.00000000000E+00 0.  1.
        -24    2    1    2    0    0 -0.41525482389E+02 -0.18958195497E+02 -0.13954761188E+04  0.13986158627E+04  0.81786026852E+02 0.  0.
         25    2    1    2    0    0  0.46065479329E+02  0.13340909258E+02  0.80408745716E+02  0.15624739460E+03  0.12509066187E+03 0.  0.
         24    2    1    2    0    0 -0.45399969401E+01  0.56172862391E+01  0.28673256728E+03  0.29776675292E+03  0.79983176551E+02 0.  0.
        -11    1    5    5    0    0 -0.50373072224E+01  0.10473807818E+02  0.64768019535E+00  0.11640214942E+02  0.00000000000E+00 0.  1.
         12    1    5    5    0    0  0.49731028228E+00 -0.48565215792E+01  0.28608488708E+03  0.28612653798E+03  0.00000000000E+00 0. -1.
         11    1    3    3    0    0  0.77844559651E+01 -0.24634851486E+02 -0.15432334502E+03  0.15647098287E+03  0.00000000000E+00 0. -1.
        -12    1    3    3    0    0 -0.49309938354E+02  0.56766559897E+01 -0.12411527738E+04  0.12421448798E+04  0.00000000000E+00 0.  1.
          5    1    4    4  501    0  0.61842103850E+02  0.18322314898E+02  0.10679088827E+03  0.12482755805E+03  0.41800000000E+01 0.  1.
         -5    1    4    4    0  501 -0.15776624521E+02 -0.49814056402E+01 -0.26382142550E+02  0.31419836553E+02  0.41800000000E+01 0.  1.
</event>
<event>
11    1  0.8479398E-009  0.1355526E+03  0.7561462E-02  0.1112629E+00
         22   -1    0    0    0    0  0.00000000000E+00  0.00000000000E+00  0.19976770264E+03  0.19976770264E+03  0.00000000000E+00 0.  1.
         22   -1    0    0    0    0 -0.00000000000E+00 -0.00000000000E+00 -0.10118930387E+04  0.10118930387E+04  0.00000000000E+00 0. -1.
         24    2    1    2    0    0  0.40332663979E+02  0.20531507620E+02 -0.57462426335E+03  0.58207712237E+03  0.81070745413E+02 0.  0.
         25    2    1    2    0    0 -0.68678581607E+02 -0.32240951016E+02 -0.41051981362E+03  0.43580998712E+03  0.12509037136E+03 0.  0.
        -24    2    1    2    0    0  0.28345917628E+02  0.11709443396E+02  0.17301874095E+03  0.19377363181E+03  0.81683128954E+02 0.  0.
        -13    1    3    3    0    0 -0.12362278406E+02 -0.26364108977E+01 -0.15514204660E+02  0.20011674993E+02  0.00000000000E+00 0.  1.
         14    1    3    3    0    0  0.52694942385E+02  0.23167918518E+02 -0.55911005869E+03  0.56206544737E+03  0.00000000000E+00 0. -1.
         11    1    5    5    0    0  0.15520951583E+02  0.26236590534E+02  0.13941611860E+02  0.33520548357E+02  0.00000000000E+00 0. -1.
        -12    1    5    5    0    0  0.12824966045E+02 -0.14527147139E+02  0.15907712909E+03  0.16025308346E+03  0.00000000000E+00 0.  1.
          5    1    4    4  501    0  0.35622803689E+02 -0.89716195935E+01 -0.14306654975E+03  0.14776665441E+03  0.41800000000E+01 0. -1.
         -5    1    4    4    0  501 -0.10430138530E+03 -0.23269331423E+02 -0.26745326388E+03  0.28804333271E+03  0.41800000000E+01 0. -1.
</event>
<event>
11    1  0.8479398E-009  0.1561772E+03  0.7561462E-02  0.1090729E+00
         22   -1    0    0    0    0  0.00000000000E+00  0.00000000000E+00  0.13773842171E+04  0.13773842171E+04  0.00000000000E+00 0. -1.
         22   -1    0    0    0    0 -0.00000000000E+00 -0.00000000000E+00 -0.93601265698E+03  0.93601265698E+03  0.00000000000E+00 0.  1.
         24    2    1    2    0    0 -0.39006431651E+02  0.71033610682E+02 -0.86833914986E+03  0.87576904690E+03  0.79945411221E+02 0.  0.
         25    2    1    2    0    0 -0.50727141314E+02 -0.99646551743E+02  0.54757462187E+02  0.17648837925E+03  0.12508832961E+03 0.  0.
        -24    2    1    2    0    0  0.89733572964E+02  0.28612941061E+02  0.12549532478E+04  0.12611394479E+04  0.81818325900E+02 0.  0.
        -11    1    3    3    0    0  0.36167978142E+01  0.67305893824E+02 -0.63239552272E+03  0.63597740661E+03  0.00000000000E+00 0.  1.
         12    1    3    3    0    0 -0.42623229465E+02  0.37277168578E+01 -0.23594362714E+03  0.23979164029E+03  0.00000000000E+00 0. -1.
         11    1    5    5    0    0  0.81182428140E+02  0.39649489864E+02  0.12221980595E+04  0.12255328496E+04  0.00000000000E+00 0. -1.
        -12    1    5    5    0    0  0.85511448246E+01 -0.11036548804E+02  0.32755188241E+02  0.35606598321E+02  0.00000000000E+00 0.  1.
          5    1    4    4  501    0 -0.46186137110E+02 -0.11255110133E+03  0.19169296704E+01  0.12174586930E+03  0.41800000000E+01 0. -1.
         -5    1    4    4    0  501 -0.45410042039E+01  0.12904549589E+02  0.52840532517E+02  0.54742509953E+02  0.41800000000E+01 0. -1.
</event>
<event>
11    1  0.8479398E-009  0.1346175E+03  0.7561462E-02  0.1113722E+00
         22   -1    0    0    0    0  0.00000000000E+00  0.00000000000E+00  0.10769519572E+03  0.10769519572E+03  0.00000000000E+00 0.  1.
         22   -1    0    0    0    0 -0.00000000000E+00 -0.00000000000E+00 -0.12070090918E+04  0.12070090918E+04  0.00000000000E+00 0. -1.
        -24    2    1    2    0    0 -0.30562542572E+02 -0.12630143111E+02 -0.65138615091E+03  0.65726393421E+03  0.81230364370E+02 0.  0.
         25    2    1    2    0    0 -0.18454246169E+02  0.26229309938E+02 -0.52121499757E+03  0.53697219717E+03  0.12508209681E+03 0.  0.
         24    2    1    2    0    0  0.49016788741E+02 -0.13599166827E+02  0.73287252379E+02  0.12046815616E+03  0.80956607951E+02 0.  0.
        -11    1    5    5    0    0  0.52105278387E+02 -0.27327031670E+02  0.84159168770E+02  0.10268637876E+03  0.00000000000E+00 0.  1.
         12    1    5    5    0    0 -0.30884896455E+01  0.13727864843E+02 -0.10871916391E+02  0.17781777398E+02  0.00000000000E+00 0. -1.
         13    1    3    3    0    0  0.17979085540E+02  0.26627555989E+01 -0.41791741994E+03  0.41831245221E+03  0.00000000000E+00 0. -1.
        -14    1    3    3    0    0 -0.48541628112E+02 -0.15292898710E+02 -0.23346873097E+03  0.23895148200E+03  0.00000000000E+00 0.  1.
          5    1    4    4  501    0  0.49645715981E+01  0.74669096006E+02 -0.31804658674E+03  0.32675866417E+03  0.41800000000E+01 0. -1.
         -5    1    4    4    0  501 -0.23418817768E+02 -0.48439786068E+02 -0.20316841083E+03  0.21021353300E+03  0.41800000000E+01 0. -1.
</event>
<event>
11    1  0.8479398E-009  0.1519789E+03  0.7561462E-02  0.1094874E+00
         22   -1    0    0    0    0  0.00000000000E+00  0.00000000000E+00  0.56957984483E+03  0.56957984483E+03  0.00000000000E+00 0.  1.
         22   -1    0    0    0    0 -0.00000000000E+00 -0.00000000000E+00 -0.20585359345E+04  0.20585359345E+04  0.00000000000E+00 0.  1.
        -24    2    1    2    0    0 -0.23299607281E+02  0.28401056450E+01 -0.18896694110E+04  0.18914356607E+04  0.78277953940E+02 0.  0.
         25    2    1    2    0    0  0.72524299863E+02 -0.72997315220E+02 -0.12089694038E+03  0.20211957425E+03  0.12509144655E+03 0.  0.
         24    2    1    2    0    0 -0.49224692582E+02  0.70157209575E+02  0.52161026169E+03  0.53456054434E+03  0.79577673098E+02 0.  0.
        -13    1    5    5    0    0 -0.69334583122E+02  0.67315123009E+02  0.43297665558E+03  0.44362979440E+03  0.00000000000E+00 0.  1.
         14    1    5    5    0    0  0.20109890540E+02  0.28420865667E+01  0.88633606109E+02  0.90930749944E+02  0.00000000000E+00 0. -1.
         13    1    3    3    0    0  0.28410797041E+02  0.78856894426E+01 -0.76119200301E+03  0.76176283904E+03  0.00000000000E+00 0. -1.
        -14    1    3    3    0    0 -0.51710404322E+02 -0.50455837976E+01 -0.11284774079E+04  0.11296728217E+04  0.00000000000E+00 0.  1.
          5    1    4    4  501    0  0.19411515201E+02 -0.58863851411E+01  0.25279324314E+02  0.32679857561E+02  0.41800000000E+01 0. -1.
         -5    1    4    4    0  501  0.53112784662E+02 -0.67110930079E+02 -0.14617626469E+03  0.16943971669E+03  0.41800000000E+01 0. -1.
</event>
<event>
11    1  0.8479398E-009  0.1591205E+03  0.7561462E-02  0.1087907E+00
         22   -1    0    0    0    0  0.00000000000E+00  0.00000000000E+00  0.65650881665E+03  0.65650881665E+03  0.00000000000E+00 0. -1.
         22   -1    0    0    0    0 -0.00000000000E+00 -0.00000000000E+00 -0.34174965866E+03  0.34174965866E+03  0.00000000000E+00 0.  1.
        -24    2    1    2    0    0  0.82863626386E+01 -0.38964372720E+02 -0.22870943844E+03  0.24565034841E+03  0.80306913107E+02 0.  0.
         25    2    1    2    0    0  0.45053982390E+02  0.11930603412E+03 -0.15788042561E+02  0.17934672360E+03  0.12510872820E+03 0.  0.
         24    2    1    2    0    0 -0.53340345028E+02 -0.80341661401E+02  0.55925663900E+03  0.57326140329E+03  0.80997983186E+02 0.  0.
        -13    1    5    5    0    0  0.39564815650E+00 -0.65852796590E+02  0.22637016463E+03  0.23575453079E+03  0.00000000000E+00 0.  1.
         14    1    5    5    0    0 -0.53735993185E+02 -0.14488864811E+02  0.33288647437E+03  0.33750687250E+03  0.00000000000E+00 0. -1.
         11    1    3    3    0    0  0.44023968605E+02 -0.27955110664E+02 -0.13886325080E+03  0.14833273558E+03  0.00000000000E+00 0. -1.
        -12    1    3    3    0    0 -0.35737605966E+02 -0.11009262056E+02 -0.89846187645E+02  0.97317612823E+02  0.00000000000E+00 0.  1.
          5    1    4    4  501    0 -0.25142628148E+02  0.99076526257E+02  0.74479229470E+01  0.10257316297E+03  0.41800000000E+01 0.  1.
         -5    1    4    4    0  501  0.70196610537E+02  0.20229507864E+02 -0.23235965508E+02  0.76773560634E+02  0.41800000000E+01 0.  1.
</event>
<event>
11    1  0.8479398E-009  0.1329235E+03  0.7561462E-02  0.1115728E+00
         22   -1    0    0    0    0  0.00000000000E+00  0.00000000000E+00  0.72844283581E+03  0.72844283581E+03  0.00000000000E+00 0.  1.
         22   -1    0    0    0    0 -0.00000000000E+00 -0.00000000000E+00 -0.52606882667E+03  0.52606882667E+03  0.00000000000E+00 0. -1.
        -24    2    1    2    0    0 -0.27490245144E+02  0.35248296153E+02 -0.50029546628E+03  0.50863861496E+03  0.80121976325E+02 0.  0.
         25    2    1    2    0    0  0.30845378689E+02 -0.77513700651E+02  0.52583985031E+03  0.54691254009E+03  0.12508384051E+03 0.  0.
         24    2    1    2    0    0 -0.33551335450E+01  0.42265404498E+02  0.17682962511E+03  0.19896050743E+03  0.80739989224E+02 0.  0.
        -13    1    5    5    0    0  0.20662308209E+02  0.23241509529E+02  0.16193307544E+03  0.16489214556E+03  0.00000000000E+00 0.  1.
         14    1    5    5    0    0 -0.24017441754E+02  0.19023894970E+02  0.14896549672E+02  0.34068361868E+02  0.00000000000E+00 0. -1.
         13    1    3    3    0    0 -0.23510953888E+02  0.96128878420E+01 -0.46008628281E+03  0.46078689238E+03  0.00000000000E+00 0. -1.
        -14    1    3    3    0    0 -0.39792912558E+01  0.25635408311E+02 -0.40209183475E+02  0.47851722580E+02  0.00000000000E+00 0.  1.
          5    1    4    4  501    0 -0.25217802605E+02 -0.86134822873E+02  0.37744603493E+03  0.38799243158E+03  0.41800000000E+01 0. -1.
         -5    1    4    4    0  501  0.56063181294E+02  0.86211222214E+01  0.14839381538E+03  0.15892010851E+03  0.41800000000E+01 0. -1.
</event>
<event>
11    1  0.8479398E-009  0.1466489E+03  0.7561462E-02  0.1100353E+00
         22   -1    0    0    0    0  0.00000000000E+00  0.00000000000E+00  0.88180770954E+03  0.88180770954E+03  0.00000000000E+00 0.  1.
         22   -1    0    0    0    0 -0.00000000000E+00 -0.00000000000E+00 -0.90601557690E+02  0.90601557690E+02  0.00000000000E+00 0. -1.
         24    2    1    2    0    0 -0.11446170669E+02  0.65266177336E+02  0.57290777939E+02  0.11951306621E+03  0.81304680257E+02 0.  0.
         25    2    1    2    0    0  0.50569896186E+01 -0.88713965907E+02  0.46694645174E+02  0.16038630090E+03  0.12509050619E+03 0.  0.
        -24    2    1    2    0    0  0.63891810508E+01  0.23447788571E+02  0.68722072874E+03  0.69250990012E+03  0.81896344990E+02 0.  0.
        -11    1    3    3    0    0 -0.22035618292E+02 -0.88778939332E+01  0.33225964932E+02  0.40845443074E+02  0.00000000000E+00 0.  1.
         12    1    3    3    0    0  0.10589447622E+02  0.74144071269E+02  0.24064813006E+02  0.78667623139E+02  0.00000000000E+00 0. -1.
         13    1    5    5    0    0 -0.31129977832E+02  0.24967998471E+02  0.20621476142E+03  0.21004048252E+03  0.00000000000E+00 0. -1.
        -14    1    5    5    0    0  0.37519158883E+02 -0.15202098998E+01  0.48100596732E+03  0.48246941760E+03  0.00000000000E+00 0.  1.
          5    1    4    4  501    0  0.55119406859E+02 -0.19404046978E+02  0.46482451443E+02  0.74784736035E+02  0.41800000000E+01 0. -1.
         -5    1    4    4    0  501 -0.50062417241E+02 -0.69309918929E+02  0.21219373051E+00  0.85601564870E+02  0.41800000000E+01 0. -1.
</event>
<event>
11    1  0.8479398E-009  0.3297406E+03  0.7561462E-02  0.9883349E-01
         22   -1    0    0    0    0  0.00000000000E+00  0.00000000000E+00  0.88546926115E+03  0.88546926115E+03  0.00000000000E+00 0.  1.
         22   -1    0    0    0    0 -0.00000000000E+00 -0.00000000000E+00 -0.85212669470E+03  0.85212669470E+03  0.00000000000E+00 0. -1.
        -24    2    1    2    0    0  0.26164754411E+03  0.15277313766E+03 -0.71686821377E+03  0.78245735989E+03  0.80872833510E+02 0.  0.
         25    2    1    2    0    0 -0.30066654921E+03 -0.12936732828E+03  0.21307373963E+03  0.41010288930E+03  0.12509069453E+03 0.  0.
         24    2    1    2    0    0  0.39019005099E+02 -0.23405809377E+02  0.53713704059E+03  0.54503570666E+03  0.80482336530E+02 0.  0.
        -11    1    5    5    0    0  0.57643634162E+02 -0.15843081496E+02  0.49207995382E+03  0.49569796524E+03  0.00000000000E+00 0.  1.
         12    1    5    5    0    0 -0.18624629063E+02 -0.75627278808E+01  0.45057086773E+02  0.49337741427E+02  0.00000000000E+00 0. -1.
         13    1    3    3    0    0  0.19755764121E+03  0.10175994483E+03 -0.59923162978E+03  0.63911083084E+03  0.00000000000E+00 0. -1.
        -14    1    3    3    0    0  0.64089902897E+02  0.51013192829E+02 -0.11763658399E+03  0.14334652904E+03  0.00000000000E+00 0.  1.
          5    1    4    4  501    0 -0.40609704905E+02 -0.42616898075E+02  0.94435700179E+02  0.11135942709E+03  0.41800000000E+01 0. -1.
         -5    1    4    4    0  501 -0.26005684430E+03 -0.86750430205E+02  0.11863803945E+03  0.29874346221E+03  0.41800000000E+01 0. -1.
</event>
<event>
11    1  0.8479398E-009  0.1367464E+03  0.7561462E-02  0.1111247E+00
         22   -1    0    0    0    0  0.00000000000E+00  0.00000000000E+00  0.47757169024E+03  0.47757169024E+03  0.00000000000E+00 0.  1.
         22   -1    0    0    0    0 -0.00000000000E+00 -0.00000000000E+00 -0.23849831723E+03  0.23849831723E+03  0.00000000000E+00 0.  1.
        -24    2    1    2    0    0 -0.47282540228E+02 -0.17304118771E+02 -0.14159436160E+03  0.17030745636E+03  0.80128617336E+02 0.  0.
         25    2    1    2    0    0  0.69530513766E+02  0.41788449946E+02 -0.61243830306E+01  0.14919416405E+03  0.12506247888E+03 0.  0.
         24    2    1    2    0    0 -0.22247973537E+02 -0.24484331175E+02  0.38679211765E+03  0.39656838707E+03  0.81017828588E+02 0.  0.
        -11    1    5    5    0    0 -0.92084517452E+01 -0.53215505820E+02  0.28218280124E+03  0.28730440122E+03  0.00000000000E+00 0.  1.
         12    1    5    5    0    0 -0.13039521792E+02  0.28731174645E+02  0.10460931641E+03  0.10926398585E+03  0.00000000000E+00 0. -1.
         11    1    3    3    0    0 -0.73328615308E+01 -0.28337982103E+02 -0.78745414665E+01  0.30312051914E+02  0.00000000000E+00 0. -1.
        -12    1    3    3    0    0 -0.39949678697E+02  0.11033863332E+02 -0.13371982013E+03  0.13999540444E+03  0.00000000000E+00 0.  1.
          5    1    4    4  501    0 -0.30424408448E+02 -0.13958952633E+02  0.51088313782E+01  0.34118463419E+02  0.41800000000E+01 0.  1.
         -5    1    4    4    0  501  0.99954922214E+02  0.55747402579E+02 -0.11233214409E+02  0.11507570063E+03  0.41800000000E+01 0.  1.
</event>
<event>
11    1  0.8479398E-009  0.1985515E+03  0.7561462E-02  0.1055553E+00
         22   -1    0    0    0    0  0.00000000000E+00  0.00000000000E+00  0.19417527252E+03  0.19417527252E+03  0.00000000000E+00 0.  1.
         22   -1    0    0    0    0 -0.00000000000E+00 -0.00000000000E+00 -0.17944310832E+04  0.17944310832E+04  0.00000000000E+00 0.  1.
        -24    2    1    2    0    0 -0.14298375141E+03 -0.11490676105E+01 -0.13148918125E+04  0.13250784622E+04  0.80291835391E+02 0.  0.
         25    2    1    2    0    0  0.27404881614E+03  0.56597101661E+02 -0.37150363177E+03  0.48163121294E+03  0.12509073235E+03 0.  0.
         24    2    1    2    0    0 -0.13106506473E+03 -0.55448034050E+02  0.86139633661E+02  0.18189668053E+03  0.73578734905E+02 0.  0.
        -11    1    5    5    0    0 -0.75856032708E+02 -0.53260242366E+02  0.18424364564E+02  0.94499991136E+02  0.00000000000E+00 0.  1.
         12    1    5    5    0    0 -0.55209032018E+02 -0.21877916846E+01  0.67715269097E+02  0.87396689398E+02  0.00000000000E+00 0. -1.
         13    1    3    3    0    0  0.31509070937E+01 -0.86887652968E+01 -0.21067841768E+02  0.23006016923E+02  0.00000000000E+00 0. -1.
        -14    1    3    3    0    0 -0.14613465850E+03  0.75396976863E+01 -0.12938239708E+04  0.13020724453E+04  0.00000000000E+00 0.  1.
          5    1    4    4  501    0 -0.90391650778E+01  0.13573470058E+02 -0.40997303274E+02  0.44319260717E+02  0.41800000000E+01 0.  1.
         -5    1    4    4    0  501  0.28308798121E+03  0.43023631602E+02 -0.33050632850E+03  0.43731195223E+03  0.41800000000E+01 0.  1.
</event>
<event>
11    1  0.8479398E-009  0.1817922E+03  0.7561462E-02  0.1068202E+00
         22   -1    0    0    0    0  0.00000000000E+00  0.00000000000E+00  0.30433131145E+03  0.30433131145E+03  0.00000000000E+00 0. -1.
         22   -1    0    0    0    0 -0.00000000000E+00 -0.00000000000E+00 -0.62901037718E+03  0.62901037718E+03  0.00000000000E+00 0.  1.
         24    2    1    2    0    0 -0.10593486347E+03  0.70228043135E+02 -0.46650181907E+03  0.49028337056E+03  0.81238309337E+02 0.  0.
         25    2    1    2    0    0  0.14468515770E+03 -0.74818548768E+02 -0.66814113259E+02  0.21597107317E+03  0.12509104132E+03 0.  0.
        -24    2    1    2    0    0 -0.38750294232E+02  0.45905056327E+01  0.20863686660E+03  0.22708724490E+03  0.80725563761E+02 0.  0.
        -13    1    3    3    0    0 -0.88231271711E+02  0.11586692144E+02 -0.29742700874E+03  0.31045423861E+03  0.00000000000E+00 0.  1.
         14    1    3    3    0    0 -0.17703591756E+02  0.58641350991E+02 -0.16907481033E+03  0.17982913194E+03  0.00000000000E+00 0. -1.
         11    1    5    5    0    0 -0.55774036472E+02 -0.15831735586E+02  0.17411390439E+03  0.18351304776E+03  0.00000000000E+00 0. -1.
        -12    1    5    5    0    0  0.17023742241E+02  0.20422241219E+02  0.34522962210E+02  0.43574197136E+02  0.00000000000E+00 0.  1.
          5    1    4    4  501    0  0.93054292280E+02  0.20538895293E+02 -0.44165681262E+02  0.10511435360E+03  0.41800000000E+01 0. -1.
         -5    1    4    4    0  501  0.51630865419E+02 -0.95357444061E+02 -0.22648431997E+02  0.11085671957E+03  0.41800000000E+01 0. -1.
</event>
<event>
11    1  0.8696198E-009  0.1465219E+03  0.7561462E-02  0.1100487E+00
         22   -1    0    0    0    0  0.00000000000E+00  0.00000000000E+00  0.79461727941E+03  0.79461727941E+03  0.00000000000E+00 0.  1.
         22   -1    0    0    0    0 -0.00000000000E+00 -0.00000000000E+00 -0.64965014588E+03  0.64965014588E+03  0.00000000000E+00 0. -1.
        -24    2    1    2    0    0 -0.58819808714E+02 -0.28507789207E+02 -0.44879485314E+03  0.46088063202E+03  0.81985808705E+02 0.  0.
         25    2    1    2    0    0  0.12939334652E+03  0.53617302412E+02 -0.14440070751E+03  0.23688895507E+03  0.12508940588E+03 0.  0.
         24    2    1    2    0    0 -0.70573537811E+02 -0.25109513205E+02  0.73816269418E+03  0.74649783819E+03  0.82242005421E+02 0.  0.
        -13    1    5    5    0    0 -0.87974343452E+02 -0.13125092497E+02  0.54901511501E+03  0.55617384842E+03  0.00000000000E+00 0.  1.
         14    1    5    5    0    0  0.17400805641E+02 -0.11984420709E+02  0.18914757917E+03  0.19032398977E+03  0.00000000000E+00 0. -1.
         11    1    3    3    0    0 -0.66507032697E+02 -0.26433073484E+02 -0.44703330827E+03  0.45272582374E+03  0.00000000000E+00 0. -1.
        -12    1    3    3    0    0  0.76872239828E+01 -0.20747157227E+01 -0.17615448642E+01  0.81548082871E+01  0.00000000000E+00 0.  1.
          5    1    4    4  501    0  0.12696848995E+03 -0.23096633892E+01 -0.12291558401E+03  0.17678247984E+03  0.41800000000E+01 0. -1.
         -5    1    4    4    0  501  0.24248565753E+01  0.55926965802E+02 -0.21485123494E+02  0.60106475231E+02  0.41800000000E+01 0. -1.
</event>
<event>
11    1  0.8479398E-009  0.2302441E+03  0.7561462E-02  0.1034984E+00
         22   -1    0    0    0    0  0.00000000000E+00  0.00000000000E+00  0.45398573021E+03  0.45398573021E+03  0.00000000000E+00 0.  1.
         22   -1    0    0    0    0 -0.00000000000E+00 -0.00000000000E+00 -0.13728579628E+04  0.13728579628E+04  0.00000000000E+00 0.  1.
        -24    2    1    2    0    0  0.80144687794E+02  0.14337158225E+03 -0.55802557522E+03  0.58743487737E+03  0.81906110744E+02 0.  0.
         25    2    1    2    0    0 -0.57006226053E+02 -0.23893686005E+03 -0.76635693310E+03  0.81442654015E+03  0.12508839877E+03 0.  0.
         24    2    1    2    0    0 -0.23138461740E+02  0.95565277791E+02  0.40551027577E+03  0.42498227544E+03  0.80642668314E+02 0.  0.
        -13    1    5    5    0    0 -0.24688518786E+02  0.25294093164E+02  0.27022876519E+03  0.27253054810E+03  0.00000000000E+00 0.  1.
         14    1    5    5    0    0  0.15500570454E+01  0.70271184627E+02  0.13528151057E+03  0.15245172734E+03  0.00000000000E+00 0. -1.
         13    1    3    3    0    0  0.32523660746E+02  0.23341928312E+02 -0.54550907828E+02  0.67664138733E+02  0.00000000000E+00 0. -1.
        -14    1    3    3    0    0  0.47621027047E+02  0.12002965394E+03 -0.50347466739E+03  0.51977073864E+03  0.00000000000E+00 0.  1.
          5    1    4    4  501    0 -0.75242624427E+02 -0.61657676922E+02 -0.26534181239E+03  0.28264265682E+03  0.41800000000E+01 0.  1.
         -5    1    4    4    0  501  0.18236398374E+02 -0.17727918312E+03 -0.50101512071E+03  0.53178388333E+03  0.41800000000E+01 0.  1.
</event>
<event>
11    1  0.8479398E-009  0.1296908E+03  0.7561462E-02  0.1119649E+00
         22   -1    0    0    0    0  0.00000000000E+00  0.00000000000E+00  0.51225058629E+03  0.51225058629E+03  0.00000000000E+00 0. -1.
         22   -1    0    0    0    0 -0.00000000000E+00 -0.00000000000E+00 -0.10864710255E+04  0.10864710255E+04  0.00000000000E+00 0. -1.
        -24    2    1    2    0    0  0.19112896495E+02 -0.10944095934E+02 -0.94062956690E+03  0.94419256530E+03  0.78933783575E+02 0.  0.
         25    2    1    2    0    0 -0.64809552942E+01 -0.21376971593E+02 -0.11139677802E+03  0.16898321772E+03  0.12508840082E+03 0.  0.
         24    2    1    2    0    0 -0.12631941201E+02  0.32321067527E+02  0.47780590576E+03  0.48554582874E+03  0.79069911353E+02 0.  0.
        -11    1    5    5    0    0 -0.29480941284E+02 -0.89092072234E+01  0.32285203985E+03  0.32431765217E+03  0.00000000000E+00 0.  1.
         12    1    5    5    0    0  0.16849000083E+02  0.41230274750E+02  0.15495386591E+03  0.16122817657E+03  0.00000000000E+00 0. -1.
         13    1    3    3    0    0  0.43131623005E+02  0.13966682160E+02 -0.63337716770E+03  0.63499767061E+03  0.00000000000E+00 0. -1.
        -14    1    3    3    0    0 -0.24018726510E+02 -0.24910778095E+02 -0.30725239920E+03  0.30919489469E+03  0.00000000000E+00 0.  1.
          5    1    4    4  501    0 -0.10833403484E+01 -0.65150748552E+02 -0.21465495250E+02  0.68731605172E+02  0.41800000000E+01 0. -1.
         -5    1    4    4    0  501 -0.53976149458E+01  0.43773776959E+02 -0.89931282775E+02  0.10025161255E+03  0.41800000000E+01 0. -1.
</event>
<event>
11    1  0.8479398E-009  0.1374807E+03  0.7561462E-02  0.1110405E+00
         22   -1    0    0    0    0  0.00000000000E+00  0.00000000000E+00  0.50893547463E+03  0.50893547463E+03  0.00000000000E+00 0. -1.
         22   -1    0    0    0    0 -0.00000000000E+00 -0.00000000000E+00 -0.45375203868E+03  0.45375203868E+03  0.00000000000E+00 0.  1.
        -24    2    1    2    0    0 -0.51979432786E+02  0.13065072956E+02 -0.36009981926E+03  0.37236462830E+03  0.78172751103E+02 0.  0.
         25    2    1    2    0    0  0.97683778477E+02 -0.26167959743E+02 -0.38914670062E+01  0.16090207769E+03  0.12508977734E+03 0.  0.
         24    2    1    2    0    0 -0.45704345691E+02  0.13102886788E+02  0.41917472221E+03  0.42942080732E+03  0.80213522318E+02 0.  0.
        -13    1    5    5    0    0  0.23302600848E+02  0.32363846407E+01  0.10863697106E+03  0.11115519274E+03  0.00000000000E+00 0.  1.
         14    1    5    5    0    0 -0.69006946539E+02  0.98665021469E+01  0.31053775116E+03  0.31826561459E+03  0.00000000000E+00 0. -1.
         11    1    3    3    0    0 -0.40782598790E+02 -0.62797739462E+01 -0.68920164578E+02  0.80328357449E+02  0.00000000000E+00 0. -1.
        -12    1    3    3    0    0 -0.11196833995E+02  0.19344846902E+02 -0.29117965468E+03  0.29203627085E+03  0.00000000000E+00 0.  1.
          5    1    4    4  501    0 -0.29760404309E+02 -0.27383018480E+01 -0.78957894173E+01  0.31192881434E+02  0.41800000000E+01 0. -1.
         -5    1    4    4    0  501  0.12744418279E+03 -0.23429657895E+02  0.40043224111E+01  0.12970919625E+03  0.41800000000E+01 0. -1.
</event>
<event>
11    1  0.8479398E-009  0.1620144E+03  0.7561462E-02  0.1085198E+00
         22   -1    0    0    0    0  0.00000000000E+00  0.00000000000E+00  0.17430267312E+03  0.17430267312E+03  0.00000000000E+00 0. -1.
         22   -1    0    0    0    0 -0.00000000000E+00 -0.00000000000E+00 -0.84434881108E+03  0.84434881108E+03  0.00000000000E+00 0.  1.
         24    2    1    2    0    0  0.10213176676E+03 -0.40017314225E+02 -0.57611915465E+03  0.59166265672E+03  0.78224905169E+02 0.  0.
         25    2    1    2    0    0 -0.81111984504E+02  0.20582696029E+02 -0.22458044902E+03  0.27034387116E+03  0.12508648682E+03 0.  0.
        -24    2    1    2    0    0 -0.21019782253E+02  0.19434618196E+02  0.13065346572E+03  0.15664495631E+03  0.81533910750E+02 0.  0.
        -11    1    3    3    0    0  0.98091228202E+02 -0.54228916584E+02 -0.41506158051E+03  0.42992880813E+03  0.00000000000E+00 0.  1.
         12    1    3    3    0    0  0.40405385549E+01  0.14211602359E+02 -0.16105757414E+03  0.16173384860E+03  0.00000000000E+00 0. -1.
         13    1    5    5    0    0 -0.42967997175E+02 -0.84653535162E+01  0.10207273595E+03  0.11107094316E+03  0.00000000000E+00 0. -1.
        -14    1    5    5    0    0  0.21948214922E+02  0.27899971712E+02  0.28580729768E+02  0.45574013142E+02  0.00000000000E+00 0.  1.
          5    1    4    4  501    0 -0.37185770230E+01 -0.45527360992E+02 -0.95173088009E+02  0.10565016562E+03  0.41800000000E+01 0. -1.
         -5    1    4    4    0  501 -0.77393407481E+02  0.66110057021E+02 -0.12940736102E+03  0.16469370554E+03  0.41800000000E+01 0. -1.
</event>
<event>
11    1  0.8479398E-009  0.2868507E+03  0.7561462E-02  0.1005915E+00
         22   -1    0    0    0    0  0.00000000000E+00  0.00000000000E+00  0.30176063538E+03  0.30176063538E+03  0.00000000000E+00 0.  1.
         22   -1    0    0    0    0 -0.00000000000E+00 -0.00000000000E+00 -0.20154114351E+04  0.20154114351E+04  0.00000000000E+00 0. -1.
         24    2    1    2    0    0 -0.99193133774E+02 -0.22257976743E+02 -0.81184958305E+03  0.82208504182E+03  0.79933567270E+02 0.  0.
         25    2    1    2    0    0 -0.60251595268E+02 -0.18616267253E+03 -0.11203885388E+04  0.11442051023E+04  0.12509213790E+03 0.  0.
        -24    2    1    2    0    0  0.15944472904E+03  0.20842064927E+03  0.21858732209E+03  0.35088192636E+03  0.80473102379E+02 0.  0.
        -13    1    3    3    0    0 -0.15778316003E+02 -0.28796535489E+02 -0.42620977108E+03  0.42747276483E+03  0.00000000000E+00 0.  1.
         14    1    3    3    0    0 -0.83414817771E+02  0.65385587456E+01 -0.38563981197E+03  0.39461227699E+03  0.00000000000E+00 0. -1.
         11    1    5    5    0    0  0.12286238293E+03  0.17157083251E+03  0.21098004047E+03  0.29840290411E+03  0.00000000000E+00 0. -1.
        -12    1    5    5    0    0  0.36582346113E+02  0.36849816759E+02  0.76072816213E+01  0.52479022246E+02  0.00000000000E+00 0.  1.
          5    1    4    4  501    0 -0.80858552516E+02 -0.82116135738E+02 -0.40922784105E+03  0.42516592473E+03  0.41800000000E+01 0. -1.
         -5    1    4    4    0  501  0.20606957248E+02 -0.10404653679E+03 -0.71116069775E+03  0.71903917761E+03  0.41800000000E+01 0. -1.
</event>
<event>
11    1  0.8479398E-009  0.2953530E+03  0.7561462E-02  0.1002177E+00
         22   -1    0    0    0    0  0.00000000000E+00  0.00000000000E+00  0.73546796914E+03  0.73546796914E+03  0.00000000000E+00 0.  1.
         22   -1    0    0    0    0 -0.00000000000E+00 -0.00000000000E+00 -0.46505109101E+03  0.46505109101E+03  0.00000000000E+00 0. -1.
         24    2    1    2    0    0  0.26928782702E+03 -0.23601080841E+02 -0.35330017542E+03  0.45195067213E+03  0.79783778368E+02 0.  0.
         25    2    1    2    0    0 -0.24887578797E+03  0.57177205436E+01  0.28308674319E+03  0.39718738170E+03  0.12509141397E+03 0.  0.
        -24    2    1    2    0    0 -0.20412039053E+02  0.17883360297E+02  0.34063031036E+03  0.35138100632E+03  0.81872689904E+02 0.  0.
        -13    1    3    3    0    0  0.53486469440E+01 -0.13437169590E+02 -0.60924844992E+01  0.15693435509E+02  0.00000000000E+00 0.  1.
         14    1    3    3    0    0  0.26393918008E+03 -0.10163911252E+02 -0.34720769092E+03  0.43625723662E+03  0.00000000000E+00 0. -1.
         11    1    5    5    0    0 -0.38242371567E+02 -0.46876699283E+01  0.76159455760E+02  0.85350547356E+02  0.00000000000E+00 0. -1.
        -12    1    5    5    0    0  0.17830332514E+02  0.22571030226E+02  0.26447085460E+03  0.26603045896E+03  0.00000000000E+00 0.  1.
          5    1    4    4  501    0  0.19100334693E+01  0.83692330675E+01  0.62291179780E+02  0.63018693801E+02  0.41800000000E+01 0.  1.
         -5    1    4    4    0  501 -0.25078582144E+03 -0.26515125239E+01  0.22079556341E+03  0.33416868790E+03  0.41800000000E+01 0.  1.
</event>
<event>
11    1  0.8479398E-009  0.1845390E+03  0.7561462E-02  0.1066029E+00
         22   -1    0    0    0    0  0.00000000000E+00  0.00000000000E+00  0.16159803151E+03  0.16159803151E+03  0.00000000000E+00 0.  1.
         22   -1    0    0    0    0 -0.00000000000E+00 -0.00000000000E+00 -0.49316493513E+03  0.49316493513E+03  0.00000000000E+00 0.  1.
        -24    2    1    2    0    0  0.17895751816E+02  0.25247191926E+02 -0.29474855127E+03  0.30738730343E+03  0.81563271141E+02 0.  0.
         25    2    1    2    0    0  0.87118414496E+02  0.78644100891E+02 -0.52698359307E+02  0.17943994874E+03  0.12508823038E+03 0.  0.
         24    2    1    2    0    0 -0.10501416631E+03 -0.10389129282E+03  0.15880006954E+02  0.16793571447E+03  0.78286995882E+02 0.  0.
        -11    1    5    5    0    0 -0.95585120663E+02 -0.61615587220E+02  0.37207403933E+02  0.11965528316E+03  0.00000000000E+00 0.  1.
         12    1    5    5    0    0 -0.94290456498E+01 -0.42275705597E+02 -0.21327396980E+02  0.48280431310E+02  0.00000000000E+00 0. -1.
         11    1    3    3    0    0  0.47987197594E+02  0.33572641704E+00 -0.15251084391E+03  0.15988258616E+03  0.00000000000E+00 0. -1.
        -12    1    3    3    0    0 -0.30091445778E+02  0.24911465509E+02 -0.14223770735E+03  0.14750471727E+03  0.00000000000E+00 0.  1.
          5    1    4    4  501    0  0.11943940422E+03  0.59989669112E+02 -0.45128088388E+02  0.14113308769E+03  0.41800000000E+01 0. -1.
         -5    1    4    4    0  501 -0.32320989719E+02  0.18654431779E+02 -0.75702709181E+01  0.38306861046E+02  0.41800000000E+01 0. -1.
</event>
<event>
11    1  0.8479398E-009  0.1708489E+03  0.7561462E-02  0.1077295E+00
         22   -1    0    0    0    0  0.00000000000E+00  0.00000000000E+00  0.18927654197E+04  0.18927654197E+04  0.00000000000E+00 0.  1.
         22   -1    0    0    0    0 -0.00000000000E+00 -0.00000000000E+00 -0.16733410874E+03  0.16733410874E+03  0.00000000000E+00 0.  1.
        -24    2    1    2    0    0 -0.38990020603E+02 -0.10953246072E+03 -0.12454960996E+03  0.18901347865E+03  0.81828528707E+02 0.  0.
         25    2    1    2    0    0  0.67322913072E+02  0.10248791659E+03  0.86444932587E+03  0.88201799726E+03  0.12508782050E+03 0.  0.
         24    2    1    2    0    0 -0.28332892468E+02  0.70445441319E+01  0.98553159501E+03  0.98906805249E+03  0.78298845977E+02 0.  0.
        -13    1    5    5    0    0 -0.12117193980E+02  0.35586107333E+02  0.78227656259E+03  0.78317930118E+03  0.00000000000E+00 0.  1.
         14    1    5    5    0    0 -0.16215698488E+02 -0.28541563201E+02  0.20325503242E+03  0.20588875130E+03  0.00000000000E+00 0. -1.
         11    1    3    3    0    0  0.17316969224E+02 -0.24197802221E+02 -0.25875035145E+01  0.29868147413E+02  0.00000000000E+00 0. -1.
        -12    1    3    3    0    0 -0.56306989827E+02 -0.85334658501E+02 -0.12196210645E+03  0.15914533123E+03  0.00000000000E+00 0.  1.
          5    1    4    4  501    0 -0.45768640559E+01  0.16418942285E+02  0.99378246155E+01  0.20168344217E+02  0.41800000000E+01 0.  1.
         -5    1    4    4    0  501  0.71899777128E+02  0.86068974305E+02  0.85451150125E+03  0.86184965305E+03  0.41800000000E+01 0.  1.
</event>
<event>
11    1  0.8479398E-009  0.1363277E+03  0.7561462E-02  0.1111730E+00
         22   -1    0    0    0    0  0.00000000000E+00  0.00000000000E+00  0.84783383667E+03  0.84783383667E+03  0.00000000000E+00 0. -1.
         22   -1    0    0    0    0 -0.00000000000E+00 -0.00000000000E+00 -0.37789746789E+03  0.37789746789E+03  0.00000000000E+00 0.  1.
        -24    2    1    2    0    0 -0.10769140980E+02 -0.43984762386E+02 -0.14142626709E+03  0.16892743807E+03  0.80526123637E+02 0.  0.
         25    2    1    2    0    0  0.35207176734E+02  0.91696492668E+02 -0.19099691251E+03  0.24854847078E+03  0.12509488269E+03 0.  0.
         24    2    1    2    0    0 -0.24438035754E+02 -0.47711730282E+02  0.80235954838E+03  0.80825539572E+03  0.81377595414E+02 0.  0.
        -13    1    5    5    0    0  0.29339226042E+02 -0.74651482372E+01  0.24622925884E+03  0.24808338624E+03  0.00000000000E+00 0.  1.
         14    1    5    5    0    0 -0.53777261796E+02 -0.40246582044E+02  0.55613028955E+03  0.56017200948E+03  0.00000000000E+00 0. -1.
         13    1    3    3    0    0 -0.13298739990E+02  0.17647446858E+02 -0.11073589126E+02  0.24716659201E+02  0.00000000000E+00 0. -1.
        -14    1    3    3    0    0  0.25295990106E+01 -0.61632209244E+02 -0.13035267797E+03  0.14421077887E+03  0.00000000000E+00 0.  1.
          5    1    4    4  501    0 -0.27530546308E+02 -0.15100607660E+02 -0.62243652524E+02  0.69840561361E+02  0.41800000000E+01 0.  1.
         -5    1    4    4    0  501  0.62737723042E+02  0.10679710033E+03 -0.12875325999E+03  0.17870790942E+03  0.41800000000E+01 0.  1.
</event>
<event>
11    1  0.8479398E-009  0.1295721E+03  0.7561462E-02  0.1119796E+00
         22   -1    0    0    0    0  0.00000000000E+00  0.00000000000E+00  0.61521914780E+03  0.61521914780E+03  0.00000000000E+00 0. -1.
         22   -1    0    0    0    0 -0.00000000000E+00 -0.00000000000E+00 -0.11444586176E+03  0.11444586176E+03  0.00000000000E+00 0. -1.
         24    2    1    2    0    0 -0.21592880891E+02  0.24700184885E+02 -0.52769536459E+02  0.10162757929E+03  0.80418836446E+02 0.  0.
         25    2    1    2    0    0  0.70511808387E+01  0.96338684786E+01  0.86465954550E+02  0.15253413546E+03  0.12509104928E+03 0.  0.
        -24    2    1    2    0    0  0.14541700052E+02 -0.34334053363E+02  0.46707686795E+03  0.47550329482E+03  0.80946244835E+02 0.  0.
        -11    1    3    3    0    0  0.25593218059E+02 -0.16708299992E+01  0.61459063936E+00  0.25655061979E+02  0.00000000000E+00 0.  1.
         12    1    3    3    0    0 -0.47186098950E+02  0.26371014884E+02 -0.53384127098E+02  0.75972517308E+02  0.00000000000E+00 0. -1.
         11    1    5    5    0    0  0.18989838078E+02 -0.47622533069E+02  0.45208167855E+03  0.45497952008E+03  0.00000000000E+00 0. -1.
        -12    1    5    5    0    0 -0.44481380258E+01  0.13288479705E+02  0.14995189396E+02  0.20523774745E+02  0.00000000000E+00 0.  1.
          5    1    4    4  501    0  0.20801032026E+02  0.64831829923E+02  0.40963724847E+02  0.79569769749E+02  0.41800000000E+01 0. -1.
         -5    1    4    4    0  501 -0.13749851187E+02 -0.55197961445E+02  0.45502229702E+02  0.72964365708E+02  0.41800000000E+01 0. -1.
</event>
<event>
11    1  0.8479398E-009  0.1380650E+03  0.7561462E-02  0.1109739E+00
         22   -1    0    0    0    0  0.00000000000E+00  0.00000000000E+00  0.33155619263E+03  0.33155619263E+03  0.00000000000E+00 0.  1.
         22   -1    0    0    0    0 -0.00000000000E+00 -0.00000000000E+00 -0.83309625484E+03  0.83309625484E+03  0.00000000000E+00 0.  1.
         24    2    1    2    0    0  0.12810400937E+02 -0.57622009527E+02 -0.66231942068E+03  0.66983416638E+03  0.80786094637E+02 0.  0.
         25    2    1    2    0    0 -0.50156057528E+02  0.42147408679E+02 -0.12865925168E+03  0.19103078337E+03  0.12509005950E+03 0.  0.
        -24    2    1    2    0    0  0.37345656592E+02  0.15474600848E+02  0.28943861015E+03  0.30378749772E+03  0.82933548032E+02 0.  0.
        -11    1    3    3    0    0  0.11710244219E+02 -0.66143391517E+02 -0.30064137667E+03  0.30805407874E+03  0.00000000000E+00 0.  1.
         12    1    3    3    0    0  0.11001567177E+01  0.85213819901E+01 -0.36167804401E+03  0.36178008764E+03  0.00000000000E+00 0. -1.
         13    1    5    5    0    0 -0.20898467194E+02  0.83285578113E+01  0.28380648577E+02  0.36215632259E+02  0.00000000000E+00 0. -1.
        -14    1    5    5    0    0  0.58244123786E+02  0.71460430368E+01  0.26105796157E+03  0.26757186546E+03  0.00000000000E+00 0.  1.
          5    1    4    4  501    0 -0.53004153735E+02  0.28145330193E+02  0.13480577156E+01  0.60173828069E+02  0.41800000000E+01 0.  1.
         -5    1    4    4    0  501  0.28480962066E+01  0.14002078486E+02 -0.13000730939E+03  0.13085695530E+03  0.41800000000E+01 0.  1.
</event>
<event>
11    1  0.8479398E-009  0.1334704E+03  0.7561462E-02  0.1115077E+00
         22   -1    0    0    0    0  0.00000000000E+00  0.00000000000E+00  0.16572477295E+04  0.16572477295E+04  0.00000000000E+00 0. -1.
         22   -1    0    0    0    0 -0.00000000000E+00 -0.00000000000E+00 -0.35577697153E+03  0.35577697153E+03  0.00000000000E+00 0.  1.
         24    2    1    2    0    0  0.13816331135E+01 -0.30431664584E+02 -0.33603450928E+03  0.34612386346E+03  0.77165680925E+02 0.  0.
         25    2    1    2    0    0 -0.94635713419E+01 -0.18735743885E+02  0.29439972743E+03  0.32056046010E+03  0.12508885556E+03 0.  0.
        -24    2    1    2    0    0  0.80819382284E+01  0.49167408469E+02  0.13431055398E+04  0.13463403774E+04  0.78849027405E+02 0.  0.
        -11    1    3    3    0    0  0.21228981540E+02 -0.24230144365E+02 -0.31465606157E+03  0.31630081669E+03  0.00000000000E+00 0.  1.
         12    1    3    3    0    0 -0.19847348427E+02 -0.62015202186E+01 -0.21378447707E+02  0.29823046775E+02  0.00000000000E+00 0. -1.
         13    1    5    5    0    0  0.39237512377E+02  0.19849514166E+02  0.92677321526E+03  0.92781581044E+03  0.00000000000E+00 0. -1.
        -14    1    5    5    0    0 -0.31155574148E+02  0.29317894303E+02  0.41633232454E+03  0.41852456700E+03  0.00000000000E+00 0.  1.
          5    1    4    4  501    0 -0.26071250806E+02 -0.46762036821E+02  0.27929197043E+03  0.28440793827E+03  0.41800000000E+01 0. -1.
         -5    1    4    4    0  501  0.16607679464E+02  0.28026292936E+02  0.15107757003E+02  0.36152521829E+02  0.41800000000E+01 0. -1.
</event>
<event>
11    1  0.8479398E-009  0.1582036E+03  0.7561462E-02  0.1088779E+00
         22   -1    0    0    0    0  0.00000000000E+00  0.00000000000E+00  0.59921063643E+02  0.59921063643E+02  0.00000000000E+00 0. -1.
         22   -1    0    0    0    0 -0.00000000000E+00 -0.00000000000E+00 -0.13076016931E+04  0.13076016931E+04  0.00000000000E+00 0. -1.
        -24    2    1    2    0    0  0.93015538357E+02 -0.73533471231E+02 -0.91262169503E+03  0.92374535941E+03  0.79800181919E+02 0.  0.
         25    2    1    2    0    0 -0.43366488836E+02  0.92748374297E+01 -0.28967123110E+03  0.31862779594E+03  0.12509026842E+03 0.  0.
         24    2    1    2    0    0 -0.49649049522E+02  0.64258633802E+02 -0.45387703364E+02  0.12514960143E+03  0.83714867162E+02 0.  0.
        -11    1    5    5    0    0 -0.36314052614E+02  0.66908108380E+02 -0.65800500809E+02  0.10062361199E+03  0.00000000000E+00 0.  1.
         12    1    5    5    0    0 -0.13334996908E+02 -0.26494745781E+01  0.20412797444E+02  0.24525989431E+02  0.00000000000E+00 0. -1.
         11    1    3    3    0    0  0.15134848944E+02  0.19962112498E+01 -0.37371871948E+03  0.37403038620E+03  0.00000000000E+00 0. -1.
        -12    1    3    3    0    0  0.77880689413E+02 -0.75529682481E+02 -0.53890297555E+03  0.54971497321E+03  0.00000000000E+00 0.  1.
          5    1    4    4  501    0  0.30576436279E+02 -0.25375927446E+02 -0.16325469105E+03  0.16807267089E+03  0.41800000000E+01 0.  1.
         -5    1    4    4    0  501 -0.73942925114E+02  0.34650764876E+02 -0.12641654004E+03  0.15055512505E+03  0.41800000000E+01 0.  1.
</event>
<event>
11    1  0.8479398E-009  0.1631180E+03  0.7561462E-02  0.1084181E+00
         22   -1    0    0    0    0  0.00000000000E+00  0.00000000000E+00  0.55178618856E+03  0.55178618856E+03  0.00000000000E+00 0. -1.
         22   -1    0    0    0    0 -0.00000000000E+00 -0.00000000000E+00 -0.30756678271E+03  0.30756678271E+03  0.00000000000E+00 0.  1.
        -24    2    1    2    0    0 -0.72051989015E+02 -0.54784856897E+02 -0.15690407956E+03  0.19965925204E+03  0.83976526942E+02 0.  0.
         25    2    1    2    0    0  0.11206408261E+03  0.11965885080E+03 -0.35310681474E+02  0.20921581930E+03  0.12509122924E+03 0.  0.
         24    2    1    2    0    0 -0.40012093598E+02 -0.64873993904E+02  0.43643416688E+03  0.45047789992E+03  0.81522718183E+02 0.  0.
        -11    1    5    5    0    0  0.16231608466E+02 -0.87817863713E+01  0.23033033636E+02  0.29514496840E+02  0.00000000000E+00 0.  1.
         12    1    5    5    0    0 -0.56243702064E+02 -0.56092207533E+02  0.41340113325E+03  0.42096340308E+03  0.00000000000E+00 0. -1.
         11    1    3    3    0    0 -0.48428685786E+02 -0.26973059115E+02 -0.21554041172E+02  0.59476551816E+02  0.00000000000E+00 0. -1.
        -12    1    3    3    0    0 -0.23623303228E+02 -0.27811797782E+02 -0.13535003839E+03  0.14018270023E+03  0.00000000000E+00 0.  1.
          5    1    4    4  501    0  0.36071314214E+02  0.70486235501E+02 -0.76051770570E+02  0.10986716211E+03  0.41800000000E+01 0. -1.
         -5    1    4    4    0  501  0.75992768398E+02  0.49172615300E+02  0.40741089096E+02  0.99348657188E+02  0.41800000000E+01 0. -1.
</event>
<event>
11    1  0.8479398E-009  0.1356357E+03  0.7561462E-02  0.1112532E+00
         22   -1    0    0    0    0  0.00000000000E+00  0.00000000000E+00  0.54741112761E+03  0.54741112761E+03  0.00000000000E+00 0.  1.
         22   -1    0    0    0    0 -0.00000000000E+00 -0.00000000000E+00 -0.86761783585E+03  0.86761783585E+03  0.00000000000E+00 0.  1.
         24    2    1    2    0    0 -0.50977802028E+01 -0.15524859645E+02 -0.76994332889E+03  0.77439190593E+03  0.81259372608E+02 0.  0.
         25    2    1    2    0    0  0.85088050806E+01 -0.37551521965E+02 -0.43575920040E+02  0.13794320350E+03  0.12508776927E+03 0.  0.
        -24    2    1    2    0    0 -0.34110248777E+01  0.53076381610E+02  0.49331254069E+03  0.50269385403E+03  0.80716235668E+02 0.  0.
        -11    1    3    3    0    0  0.26759204573E+02 -0.31315335118E+02 -0.55510957497E+03  0.55663573858E+03  0.00000000000E+00 0.  1.
         12    1    3    3    0    0 -0.31856984776E+02  0.15790475472E+02 -0.21483375393E+03  0.21775616735E+03  0.00000000000E+00 0. -1.
         13    1    5    5    0    0  0.16915366186E+02  0.20117487041E+02  0.40837200929E+02  0.48564594899E+02  0.00000000000E+00 0. -1.
        -14    1    5    5    0    0 -0.20326391064E+02  0.32958894569E+02  0.45247533976E+03  0.45412925913E+03  0.00000000000E+00 0.  1.
          5    1    4    4  501    0  0.44037820768E+02  0.11590115214E+02  0.20065924139E+02  0.49937702592E+02  0.41800000000E+01 0. -1.
         -5    1    4    4    0  501 -0.35529015687E+02 -0.49141637179E+02 -0.63641844179E+02  0.88005500912E+02  0.41800000000E+01 0. -1.
</event>
<event>
11    1  0.8479398E-009  0.1472007E+03  0.7561462E-02  0.1099774E+00
         22   -1    0    0    0    0  0.00000000000E+00  0.00000000000E+00  0.30154125429E+03  0.30154125429E+03  0.00000000000E+00 0. -1.
         22   -1    0    0    0    0 -0.00000000000E+00 -0.00000000000E+00 -0.16951232267E+04  0.16951232267E+04  0.00000000000E+00 0.  1.
        -24    2    1    2    0    0 -0.12203039590E+02  0.36854750794E+01 -0.15745412637E+04  0.15766696193E+04  0.80897467350E+02 0.  0.
         25    2    1    2    0    0 -0.59264989992E+02 -0.36344565629E+02 -0.59254647237E+02  0.15489641245E+03  0.12509404015E+03 0.  0.
         24    2    1    2    0    0  0.71468029582E+02  0.32659090549E+02  0.24021393856E+03  0.26509844927E+03  0.80000975490E+02 0.  0.
        -11    1    5    5    0    0  0.20380106285E+02 -0.10811933234E+02  0.97070787192E+01  0.25029462833E+02  0.00000000000E+00 0.  1.
         12    1    5    5    0    0  0.51087923297E+02  0.43471023783E+02  0.23050685984E+03  0.24006898644E+03  0.00000000000E+00 0. -1.
         11    1    3    3    0    0  0.19220989439E+02 -0.20922765861E+02 -0.11253570089E+04  0.11257155973E+04  0.00000000000E+00 0. -1.
        -12    1    3    3    0    0 -0.31424029029E+02  0.24608240941E+02 -0.44918425484E+03  0.45095402196E+03  0.00000000000E+00 0.  1.
          5    1    4    4  501    0  0.30127950863E+02 -0.36446617360E+02 -0.42776912994E+02  0.63901377336E+02  0.41800000000E+01 0.  1.
         -5    1    4    4    0  501 -0.89392940855E+02  0.10205173171E+00 -0.16477734243E+02  0.90995035112E+02  0.41800000000E+01 0.  1.
</event>
<event>
11    1  0.8479398E-009  0.1480473E+03  0.7561462E-02  0.1098891E+00
         22   -1    0    0    0    0  0.00000000000E+00  0.00000000000E+00  0.19321723958E+03  0.19321723958E+03  0.00000000000E+00 0. -1.
         22   -1    0    0    0    0 -0.00000000000E+00 -0.00000000000E+00 -0.10905532202E+04  0.10905532202E+04  0.00000000000E+00 0. -1.
        -24    2    1    2    0    0  0.16374944039E+02 -0.78332536832E+02 -0.92411060973E+03  0.93130797320E+03  0.83366640886E+02 0.  0.
         25    2    1    2    0    0 -0.31328400332E+02  0.65895000112E+02 -0.11492342073E+03  0.18487207658E+03  0.12508665940E+03 0.  0.
         24    2    1    2    0    0  0.14953456293E+02  0.12437536720E+02  0.14169804988E+03  0.16759040996E+03  0.87349355999E+02 0.  0.
        -11    1    5    5    0    0 -0.33024264775E+02  0.23016969847E+02  0.59804907540E+02  0.72090290128E+02  0.00000000000E+00 0.  1.
         12    1    5    5    0    0  0.47977721068E+02 -0.10579433128E+02  0.81893142345E+02  0.95500119828E+02  0.00000000000E+00 0. -1.
         13    1    3    3    0    0  0.17625439815E+02 -0.35803407495E+01 -0.52178551359E+03  0.52209539087E+03  0.00000000000E+00 0. -1.
        -14    1    3    3    0    0 -0.12504957760E+01 -0.74752196083E+02 -0.40232509614E+03  0.40921258233E+03  0.00000000000E+00 0.  1.
          5    1    4    4  501    0  0.89211882823E+01 -0.23039302835E+02 -0.75432526037E+02  0.79485441810E+02  0.41800000000E+01 0. -1.
         -5    1    4    4    0  501 -0.40249588614E+02  0.88934302947E+02 -0.39490894690E+02  0.10538663477E+03  0.41800000000E+01 0. -1.
</event>
<event>
11    1  0.8479398E-009  0.1386445E+03  0.7561462E-02  0.1109082E+00
         22   -1    0    0    0    0  0.00000000000E+00  0.00000000000E+00  0.93334110389E+03  0.93334110389E+03  0.00000000000E+00 0.  1.
         22   -1    0    0    0    0 -0.00000000000E+00 -0.00000000000E+00 -0.94218662129E+02  0.94218662129E+02  0.00000000000E+00 0.  1.
         24    2    1    2    0    0  0.42541527773E+02 -0.53491742679E+02 -0.23771233904E+02  0.10784442864E+03  0.79963748708E+02 0.  0.
         25    2    1    2    0    0 -0.57826662773E+01  0.29326498790E+02  0.13609128913E+03  0.18724836366E+03  0.12509047908E+03 0.  0.
        -24    2    1    2    0    0 -0.36758861496E+02  0.24165243889E+02  0.72680238653E+03  0.73246697372E+03  0.79567490848E+02 0.  0.
        -13    1    3    3    0    0  0.10812662765E+02 -0.69021385669E+02 -0.16189940739E+02  0.71714569906E+02  0.00000000000E+00 0.  1.
         14    1    3    3    0    0  0.31728865008E+02  0.15529642990E+02 -0.75812931652E+01  0.36129858734E+02  0.00000000000E+00 0. -1.
         11    1    5    5    0    0 -0.36416568122E+02  0.92738527857E+01  0.12610921953E+03  0.13158915620E+03  0.00000000000E+00 0. -1.
        -12    1    5    5    0    0 -0.34229337365E+00  0.14891391103E+02  0.60069316701E+03  0.60087781752E+03  0.00000000000E+00 0.  1.
          5    1    4    4  501    0  0.56866276139E+01 -0.48799473631E+02  0.57783316240E+02  0.75961242723E+02  0.41800000000E+01 0. -1.
         -5    1    4    4    0  501 -0.11469293891E+02  0.78125972421E+02  0.78307972892E+02  0.11128712094E+03  0.41800000000E+01 0. -1.
</event>
<event>
11    1  0.8479398E-009  0.1280360E+03  0.7561462E-02  0.1121706E+00
         22   -1    0    0    0    0  0.00000000000E+00  0.00000000000E+00  0.11501485565E+04  0.11501485565E+04  0.00000000000E+00 0. -1.
         22   -1    0    0    0    0 -0.00000000000E+00 -0.00000000000E+00 -0.40604487923E+02  0.40604487923E+02  0.00000000000E+00 0.  1.
         24    2    1    2    0    0 -0.22382774846E+02  0.15831567545E+02  0.30408583897E+02  0.90764797473E+02  0.81005798219E+02 0.  0.
         25    2    1    2    0    0  0.31965610194E+02  0.14543794242E+01  0.75084979225E+03  0.76187107528E+03  0.12509280304E+03 0.  0.
        -24    2    1    2    0    0 -0.95828353479E+01 -0.17285946969E+02  0.32828569239E+03  0.33811717163E+03  0.78492618931E+02 0.  0.
        -13    1    3    3    0    0 -0.32087412816E+02  0.27567560853E+02 -0.13407922882E+02  0.44377301277E+02  0.00000000000E+00 0.  1.
         14    1    3    3    0    0  0.97046379705E+01 -0.11735993309E+02  0.43816506778E+02  0.46387496196E+02  0.00000000000E+00 0. -1.
         11    1    5    5    0    0 -0.13615772176E+02 -0.38827355710E+02  0.29747568793E+03  0.30030773835E+03  0.00000000000E+00 0. -1.
        -12    1    5    5    0    0  0.40329368284E+01  0.21541408741E+02  0.30810004453E+02  0.37809433273E+02  0.00000000000E+00 0.  1.
          5    1    4    4  501    0  0.11163213626E+02 -0.30956292047E+02  0.50314405025E+02  0.60265422165E+02  0.41800000000E+01 0.  1.
         -5    1    4    4    0  501  0.20802396568E+02  0.32410671471E+02  0.70053538722E+03  0.70160565311E+03  0.41800000000E+01 0.  1.
</event>
<event>
11    1  0.8479398E-009  0.1468360E+03  0.7561462E-02  0.1100156E+00
         22   -1    0    0    0    0  0.00000000000E+00  0.00000000000E+00  0.69621045322E+03  0.69621045322E+03  0.00000000000E+00 0. -1.
         22   -1    0    0    0    0 -0.00000000000E+00 -0.00000000000E+00 -0.36229509065E+03  0.36229509065E+03  0.00000000000E+00 0.  1.
        -24    2    1    2    0    0  0.27300401719E+02  0.30655916290E+02 -0.32011550437E+03  0.33211068355E+03  0.78348406837E+02 0.  0.
         25    2    1    2    0    0 -0.10225521079E+02  0.50380759542E+02  0.12184197106E+03  0.18203181758E+03  0.12508930604E+03 0.  0.
         24    2    1    2    0    0 -0.17074880640E+02 -0.81036675832E+02  0.53218889588E+03  0.54436304273E+03  0.79041805468E+02 0.  0.
        -13    1    5    5    0    0  0.33911659277E+01 -0.31889338858E+02  0.51045947615E+02  0.60283652071E+02  0.00000000000E+00 0.  1.
         14    1    5    5    0    0 -0.20466046567E+02 -0.49147336974E+02  0.48114294827E+03  0.48407939066E+03  0.00000000000E+00 0. -1.
         11    1    3    3    0    0  0.20711502609E+02 -0.83382912257E+01 -0.21866495904E+02  0.31251193321E+02  0.00000000000E+00 0. -1.
        -12    1    3    3    0    0  0.65888991100E+01  0.38994207515E+02 -0.29824900846E+03  0.30085949023E+03  0.00000000000E+00 0.  1.
          5    1    4    4  501    0  0.28389034613E+02 -0.12082462034E+02 -0.85823654325E+01  0.32296324427E+02  0.41800000000E+01 0.  1.
         -5    1    4    4    0  501 -0.38614555692E+02  0.62463221576E+02  0.13042433649E+03  0.14973549315E+03  0.41800000000E+01 0.  1.
</event>
<event>
11    1  0.8479398E-009  0.1335336E+03  0.7561462E-02  0.1115002E+00
         22   -1    0    0    0    0  0.00000000000E+00  0.00000000000E+00  0.53974367285E+03  0.53974367285E+03  0.00000000000E+00 0.  1.
         22   -1    0    0    0    0 -0.00000000000E+00 -0.00000000000E+00 -0.90299614145E+03  0.90299614145E+03  0.00000000000E+00 0. -1.
        -24    2    1    2    0    0 -0.44334375176E+02 -0.23518458913E+02 -0.72335935885E+03  0.72968146517E+03  0.81655519442E+02 0.  0.
         25    2    1    2    0    0  0.33342867502E+02 -0.26122125940E+02 -0.14681284091E+03  0.19747415676E+03  0.12509164663E+03 0.  0.
         24    2    1    2    0    0  0.10991507674E+02  0.49640584853E+02  0.50691973116E+03  0.51558419237E+03  0.79211392315E+02 0.  0.
        -11    1    5    5    0    0 -0.16055631839E+02  0.55837968396E+02  0.42806191859E+03  0.43198688427E+03  0.00000000000E+00 0.  1.
         12    1    5    5    0    0  0.27047139513E+02 -0.61973835435E+01  0.78857812567E+02  0.83597308099E+02  0.00000000000E+00 0. -1.
         11    1    3    3    0    0 -0.48653385453E+02 -0.26402224642E+02 -0.72225359749E+03  0.72437178885E+03  0.00000000000E+00 0. -1.
        -12    1    3    3    0    0  0.43190102770E+01  0.28837657285E+01 -0.11057613533E+01  0.53096763291E+01  0.00000000000E+00 0.  1.
          5    1    4    4  501    0 -0.43610486990E+02 -0.31186679398E+02 -0.48196868864E+02  0.72214223777E+02  0.41800000000E+01 0.  1.
         -5    1    4    4    0  501  0.76953354492E+02  0.50645534585E+01 -0.98615972046E+02  0.12525993299E+03  0.41800000000E+01 0.  1.
</event>
<event>
11    1  0.8479398E-009  0.1615024E+03  0.7561462E-02  0.1085673E+00
         22   -1    0    0    0    0  0.00000000000E+00  0.00000000000E+00  0.57149849302E+03  0.57149849302E+03  0.00000000000E+00 0. -1.
         22   -1    0    0    0    0 -0.00000000000E+00 -0.00000000000E+00 -0.27160413620E+03  0.27160413620E+03  0.00000000000E+00 0.  1.
         24    2    1    2    0    0  0.84320286259E+02 -0.43500236323E+02 -0.18386719683E+03  0.22188272076E+03  0.80141215779E+02 0.  0.
         25    2    1    2    0    0 -0.17234124500E+03  0.72343307917E+02  0.16289457264E+03  0.27770141887E+03  0.12509347433E+03 0.  0.
        -24    2    1    2    0    0  0.88020958741E+02 -0.28843071594E+02  0.32086698102E+03  0.34351848958E+03  0.80434577264E+02 0.  0.
        -11    1    3    3    0    0  0.94798351588E+02 -0.49334732591E+02 -0.13838432813E+03  0.17484526181E+03  0.00000000000E+00 0.  1.
         12    1    3    3    0    0 -0.10478065329E+02  0.58344962683E+01 -0.45482868699E+02  0.47037458954E+02  0.00000000000E+00 0. -1.
         11    1    5    5    0    0  0.48797757327E+02 -0.42368474907E+02  0.10196552959E+03  0.12071983272E+03  0.00000000000E+00 0. -1.
        -12    1    5    5    0    0  0.39223201413E+02  0.13525403313E+02  0.21890145143E+03  0.22279865687E+03  0.00000000000E+00 0.  1.
          5    1    4    4  501    0  0.47177287422E+01 -0.15077113071E+02 -0.64157676327E+01  0.17555932825E+02  0.41800000000E+01 0. -1.
         -5    1    4    4    0  501 -0.17705897374E+03  0.87420420988E+02  0.16931034027E+03  0.26014548605E+03  0.41800000000E+01 0. -1.
</event>
<event>
11    1  0.8479398E-009  0.1733203E+03  0.7561462E-02  0.1075178E+00
         22   -1    0    0    0    0  0.00000000000E+00  0.00000000000E+00  0.42281829441E+03  0.42281829441E+03  0.00000000000E+00 0. -1.
         22   -1    0    0    0    0 -0.00000000000E+00 -0.00000000000E+00 -0.60237206475E+03  0.60237206475E+03  0.00000000000E+00 0.  1.
        -24    2    1    2    0    0  0.11311191032E+03 -0.57721286413E+02 -0.49732376595E+03  0.52040026329E+03  0.85787264205E+02 0.  0.
         25    2    1    2    0    0 -0.79748516397E+02  0.21020042788E+02 -0.22641505622E+02  0.15152878128E+03  0.12508663283E+03 0.  0.
         24    2    1    2    0    0 -0.33363393919E+02  0.36701243625E+02  0.34041150123E+03  0.35326131460E+03  0.80333485450E+02 0.  0.
        -13    1    5    5    0    0  0.22235405866E+02  0.90685730402E+01  0.41298573133E+02  0.47772632687E+02  0.00000000000E+00 0.  1.
         14    1    5    5    0    0 -0.55598799785E+02  0.27632670584E+02  0.29911292810E+03  0.30548868191E+03  0.00000000000E+00 0. -1.
         11    1    3    3    0    0  0.66735550001E+02 -0.31603049399E+02 -0.13225593995E+03  0.15147283590E+03  0.00000000000E+00 0. -1.
        -12    1    3    3    0    0  0.46376360316E+02 -0.26118237014E+02 -0.36506782600E+03  0.36892742739E+03  0.00000000000E+00 0.  1.
          5    1    4    4  501    0 -0.14571939269E+02  0.64699064190E+02  0.85384922338E+01  0.66997675861E+02  0.41800000000E+01 0.  1.
         -5    1    4    4    0  501 -0.65176577127E+02 -0.43679021402E+02 -0.31179997855E+02  0.84531105417E+02  0.41800000000E+01 0.  1.
</event>
<event>
11    1  0.8479398E-009  0.1482228E+03  0.7561462E-02  0.1098709E+00
         22   -1    0    0    0    0  0.00000000000E+00  0.00000000000E+00  0.58387115027E+03  0.58387115027E+03  0.00000000000E+00 0. -1.
         22   -1    0    0    0    0 -0.00000000000E+00 -0.00000000000E+00 -0.96044370245E+03  0.96044370245E+03  0.00000000000E+00 0.  1.
        -24    2    1    2    0    0  0.31327430805E+02  0.68550606348E+02 -0.62704222130E+03  0.63676520283E+03  0.81285808649E+02 0.  0.
         25    2    1    2    0    0 -0.26150946508E+00 -0.10390077227E+03 -0.30429969014E+03  0.34502452391E+03  0.12509269289E+03 0.  0.
         24    2    1    2    0    0 -0.31065921340E+02  0.35350165920E+02  0.55476935927E+03  0.56252512598E+03  0.80316559180E+02 0.  0.
        -13    1    5    5    0    0  0.17353143020E+02  0.40816020849E+02  0.26019689188E+03  0.26394980901E+03  0.00000000000E+00 0.  1.
         14    1    5    5    0    0 -0.48419064360E+02 -0.54658549290E+01  0.29457246739E+03  0.29857531697E+03  0.00000000000E+00 0. -1.
         13    1    3    3    0    0  0.23008588880E+02  0.28006705205E+02 -0.76317774350E+02  0.84487711417E+02  0.00000000000E+00 0. -1.
        -14    1    3    3    0    0  0.83188419251E+01  0.40543901143E+02 -0.55072444695E+03  0.55227749141E+03  0.00000000000E+00 0.  1.
          5    1    4    4  501    0  0.75912926137E+01 -0.12445186311E+03 -0.18175248212E+03  0.22044802360E+03  0.41800000000E+01 0. -1.
         -5    1    4    4    0  501 -0.78528020787E+01  0.20551090838E+02 -0.12254720803E+03  0.12457650031E+03  0.41800000000E+01 0. -1.
</event>
<event>
11    1  0.8479398E-009  0.1809825E+03  0.7561462E-02  0.1068851E+00
         22   -1    0    0    0    0  0.00000000000E+00  0.00000000000E+00  0.24582474161E+04  0.24582474161E+04  0.00000000000E+00 0. -1.
         22   -1    0    0    0    0 -0.00000000000E+00 -0.00000000000E+00 -0.19656161610E+03  0.19656161610E+03  0.00000000000E+00 0. -1.
         24    2    1    2    0    0  0.95508172509E+02 -0.90357647861E+02 -0.15884725276E+03  0.22129382670E+03  0.80325540664E+02 0.  0.
         25    2    1    2    0    0 -0.53450805905E+02  0.83328211328E+02  0.15744821179E+04  0.15825430943E+04  0.12509247137E+03 0.  0.
        -24    2    1    2    0    0 -0.42057366604E+02  0.70294365330E+01  0.84605093493E+03  0.85097211122E+03  0.80827684142E+02 0.  0.
        -13    1    3    3    0    0  0.47591422228E+02 -0.36886065675E+02 -0.17415127184E+02  0.62680235845E+02  0.00000000000E+00 0.  1.
         14    1    3    3    0    0  0.47916750281E+02 -0.53471582186E+02 -0.14143212558E+03  0.15861359086E+03  0.00000000000E+00 0. -1.
         11    1    5    5    0    0 -0.24782395682E+02 -0.33616662898E+02  0.55735220223E+03  0.55891477391E+03  0.00000000000E+00 0. -1.
        -12    1    5    5    0    0 -0.17274970922E+02  0.40646099431E+02  0.28869873270E+03  0.29205733732E+03  0.00000000000E+00 0.  1.
          5    1    4    4  501    0 -0.71991995634E+02  0.80850047953E+02  0.74465071233E+03  0.75249035440E+03  0.41800000000E+01 0. -1.
         -5    1    4    4    0  501  0.18541189729E+02  0.24781633747E+01  0.82983140555E+03  0.83005273992E+03  0.41800000000E+01 0. -1.
</event>
<event>
11    1  0.8479398E-009  0.1648150E+03  0.7561462E-02  0.1082634E+00
         22   -1    0    0    0    0  0.00000000000E+00  0.00000000000E+00  0.21436435938E+04  0.21436435938E+04  0.00000000000E+00 0. -1.
         22   -1    0    0    0    0 -0.00000000000E+00 -0.00000000000E+00 -0.55265751210E+02  0.55265751210E+02  0.00000000000E+00 0.  1.
        -24    2    1    2    0    0 -0.35400383611E+02 -0.89596008600E+02  0.92602271578E+02  0.15535014516E+03  0.79232916033E+02 0.  0.
         25    2    1    2    0    0  0.97188840946E+01  0.15056998890E+03  0.41071332287E+03  0.45507134103E+03  0.12505484228E+03 0.  0.
         24    2    1    2    0    0  0.25681499517E+02 -0.60973980299E+02  0.15850622481E+04  0.15884878588E+04  0.80585243368E+02 0.  0.
        -13    1    5    5    0    0  0.27440800589E+02 -0.60882846040E+02  0.64954108869E+03  0.65296504070E+03  0.00000000000E+00 0.  1.
         14    1    5    5    0    0 -0.17593010722E+01 -0.91134258568E-01  0.93552115940E+03  0.93552281808E+03  0.00000000000E+00 0. -1.
         11    1    3    3    0    0  0.21609608217E+02 -0.17915568701E+02  0.42559809001E+02  0.50983135559E+02  0.00000000000E+00 0. -1.
        -12    1    3    3    0    0 -0.57009991829E+02 -0.71680439899E+02  0.50042462577E+02  0.10436700960E+03  0.00000000000E+00 0.  1.
          5    1    4    4  501    0  0.43457695862E+01 -0.20137539131E+02  0.21779937834E+02  0.30269527376E+02  0.41800000000E+01 0.  1.
         -5    1    4    4    0  501  0.53731145084E+01  0.17070752803E+03  0.38893338503E+03  0.42480181365E+03  0.41800000000E+01 0.  1.
</event>
<event>
11    1  0.8479398E-009  0.1937485E+03  0.7561462E-02  0.1059035E+00
         22   -1    0    0    0    0  0.00000000000E+00  0.00000000000E+00  0.60483433611E+03  0.60483433611E+03  0.00000000000E+00 0.  1.
         22   -1    0    0    0    0 -0.00000000000E+00 -0.00000000000E+00 -0.45802167181E+03  0.45802167181E+03  0.00000000000E+00 0. -1.
        -24    2    1    2    0    0  0.40134361186E+02 -0.47078838358E+02 -0.38380805547E+03  0.39706734456E+03  0.80787800455E+02 0.  0.
         25    2    1    2    0    0 -0.42031953909E+02  0.18190091341E+03  0.20524789462E+03  0.30437001024E+03  0.12513903244E+03 0.  0.
         24    2    1    2    0    0  0.18975927223E+01 -0.13482207505E+03  0.32537282515E+03  0.36141865311E+03  0.81088684091E+02 0.  0.
        -13    1    5    5    0    0  0.13150258122E+02 -0.50312709473E+01  0.10091863762E+03  0.10189609608E+03  0.00000000000E+00 0.  1.
         14    1    5    5    0    0 -0.11252665399E+02 -0.12979080410E+03  0.22445418753E+03  0.25952255703E+03  0.00000000000E+00 0. -1.
         11    1    3    3    0    0  0.41925962686E+02 -0.39268967282E+02 -0.38473622599E+03  0.38900103049E+03  0.00000000000E+00 0. -1.
        -12    1    3    3    0    0 -0.17916014994E+01 -0.78098710761E+01  0.92817051292E+00  0.80663140690E+01  0.00000000000E+00 0.  1.
          5    1    4    4  501    0 -0.55494804331E+01  0.94674090439E+02  0.18448841669E+03  0.20747874211E+03  0.41800000000E+01 0.  1.
         -5    1    4    4    0  501 -0.36482473476E+02  0.87226822971E+02  0.20759477927E+02  0.96891268132E+02  0.41800000000E+01 0.  1.
</event>
<event>
11    1  0.8479398E-009  0.2022563E+03  0.7561462E-02  0.1052939E+00
         22   -1    0    0    0    0  0.00000000000E+00  0.00000000000E+00  0.45976327295E+03  0.45976327295E+03  0.00000000000E+00 0. -1.
         22   -1    0    0    0    0 -0.00000000000E+00 -0.00000000000E+00 -0.61032589101E+03  0.61032589101E+03  0.00000000000E+00 0.  1.
         24    2    1    2    0    0 -0.97816480413E+02  0.38955663959E+02 -0.20641555916E+03  0.24487253189E+03  0.79180592444E+02 0.  0.
         25    2    1    2    0    0  0.17837406030E+03  0.96955046473E+02 -0.32571119690E+03  0.40367454243E+03  0.12509103084E+03 0.  0.
        -24    2    1    2    0    0 -0.80557579884E+02 -0.13591071043E+03  0.38156413799E+03  0.42154208963E+03  0.84529858898E+02 0.  0.
        -13    1    3    3    0    0 -0.10254211854E+03  0.13513738174E+02 -0.14390720502E+03  0.17721961193E+03  0.00000000000E+00 0.  1.
         14    1    3    3    0    0  0.47256381302E+01  0.25441925784E+02 -0.62508354135E+02  0.67652919967E+02  0.00000000000E+00 0. -1.
         11    1    5    5    0    0 -0.78955968890E+02 -0.10034091423E+03  0.35457584816E+03  0.37686386958E+03  0.00000000000E+00 0. -1.
        -12    1    5    5    0    0 -0.16016109931E+01 -0.35569796201E+02  0.26988289827E+02  0.44678220056E+02  0.00000000000E+00 0.  1.
          5    1    4    4  501    0  0.85247871007E+02  0.11529586540E+03 -0.19753818293E+03  0.24412935548E+03  0.41800000000E+01 0.  1.
         -5    1    4    4    0  501  0.93126189289E+02 -0.18340818924E+02 -0.12817301397E+03  0.15954518696E+03  0.41800000000E+01 0.  1.
</event>
<event>
11    1  0.8479398E-009  0.2128142E+03  0.7561462E-02  0.1045815E+00
         22   -1    0    0    0    0  0.00000000000E+00  0.00000000000E+00  0.93250020529E+02  0.93250020529E+02  0.00000000000E+00 0.  1.
         22   -1    0    0    0    0 -0.00000000000E+00 -0.00000000000E+00 -0.15590895624E+04  0.15590895624E+04  0.00000000000E+00 0.  1.
         24    2    1    2    0    0  0.24259922624E+02 -0.39588878593E+02 -0.96006655364E+03  0.96442353244E+03  0.78924896900E+02 0.  0.
         25    2    1    2    0    0 -0.10524291421E+03 -0.11836152882E+03 -0.43698504949E+03  0.48134039193E+03  0.12508843644E+03 0.  0.
        -24    2    1    2    0    0  0.80982991591E+02  0.15795040741E+03 -0.68787938713E+02  0.20657565853E+03  0.80219362105E+02 0.  0.
        -11    1    3    3    0    0  0.41383492889E+02 -0.52929934256E+02 -0.81190777221E+03  0.81468300706E+03  0.00000000000E+00 0.  1.
         12    1    3    3    0    0 -0.17123570265E+02  0.13341055663E+02 -0.14815878143E+03  0.14974052538E+03  0.00000000000E+00 0. -1.
         11    1    5    5    0    0  0.16014562932E+01  0.52272312033E+02 -0.51291018934E+02  0.73251128939E+02  0.00000000000E+00 0. -1.
        -12    1    5    5    0    0  0.79381535298E+02  0.10567809538E+03 -0.17496919778E+02  0.13332452959E+03  0.00000000000E+00 0.  1.
          5    1    4    4  501    0  0.44853103313E+01 -0.66486077755E+02 -0.79657137919E+02  0.10393867695E+03  0.41800000000E+01 0. -1.
         -5    1    4    4    0  501 -0.10972822455E+03 -0.51875451064E+02 -0.35732791157E+03  0.37740171499E+03  0.41800000000E+01 0. -1.
</event>
<event>
11    1  0.8479398E-009  0.1299987E+03  0.7561462E-02  0.1119271E+00
         22   -1    0    0    0    0  0.00000000000E+00  0.00000000000E+00  0.10386873348E+04  0.10386873348E+04  0.00000000000E+00 0. -1.
         22   -1    0    0    0    0 -0.00000000000E+00 -0.00000000000E+00 -0.14019480582E+03  0.14019480582E+03  0.00000000000E+00 0.  1.
        -24    2    1    2    0    0  0.42277060711E+02 -0.49910955646E+01 -0.31354134027E+02  0.96984156445E+02  0.81305497867E+02 0.  0.
         25    2    1    2    0    0 -0.19077393318E+02  0.20977687902E+02 -0.18579336910E+02  0.12960143718E+03  0.12508928984E+03 0.  0.
         24    2    1    2    0    0 -0.23199667393E+02 -0.15986592338E+02  0.94842599997E+03  0.95229654705E+03  0.81012594080E+02 0.  0.
        -13    1    5    5    0    0 -0.23583790984E+02 -0.19665976070E+02  0.12013980835E+03  0.12400209419E+03  0.00000000000E+00 0.  1.
         14    1    5    5    0    0  0.38412359113E+00  0.36793837327E+01  0.82828619161E+03  0.82829445286E+03  0.00000000000E+00 0. -1.
         13    1    3    3    0    0  0.15020809916E+02  0.34574496507E+02 -0.31208674479E+02  0.48938756646E+02  0.00000000000E+00 0. -1.
        -14    1    3    3    0    0  0.27256250794E+02 -0.39565592072E+02 -0.14545954786E+00  0.48045399799E+02  0.00000000000E+00 0.  1.
          5    1    4    4  501    0 -0.69312145915E+02  0.22665108206E+02  0.63900627373E+01  0.73322479521E+02  0.41800000000E+01 0. -1.
         -5    1    4    4    0  501  0.50234752598E+02 -0.16874203036E+01 -0.24969399647E+02  0.56278957654E+02  0.41800000000E+01 0. -1.
</event>
<event>
11    1  0.8479398E-009  0.2019688E+03  0.7561462E-02  0.1053140E+00
         22   -1    0    0    0    0  0.00000000000E+00  0.00000000000E+00  0.20567325044E+04  0.20567325044E+04  0.00000000000E+00 0.  1.
         22   -1    0    0    0    0 -0.00000000000E+00 -0.00000000000E+00 -0.15313428400E+03  0.15313428400E+03  0.00000000000E+00 0. -1.
        -24    2    1    2    0    0  0.29880362618E+02 -0.22282379961E+00 -0.85907315660E+02  0.12054374569E+03  0.79106523249E+02 0.  0.
         25    2    1    2    0    0  0.51489085726E+02  0.13803692820E+03  0.16292741176E+03  0.25278184335E+03  0.12509196350E+03 0.  0.
         24    2    1    2    0    0 -0.81369448343E+02 -0.13781410440E+03  0.18265781243E+04  0.18365411993E+04  0.10431787114E+03 0.  0.
        -11    1    5    5    0    0 -0.93373383538E+01 -0.11392583502E+03  0.10118141081E+04  0.10182504952E+04  0.00000000000E+00 0.  1.
         12    1    5    5    0    0 -0.72032109990E+02 -0.23888269384E+02  0.81476401621E+03  0.81829070409E+03  0.00000000000E+00 0. -1.
         13    1    3    3    0    0 -0.48862247222E+01  0.32354839204E+02 -0.54204396850E+02  0.63315301861E+02  0.00000000000E+00 0. -1.
        -14    1    3    3    0    0  0.34766587340E+02 -0.32577663003E+02 -0.31702918811E+02  0.57228443829E+02  0.00000000000E+00 0.  1.
          5    1    4    4  501    0  0.84118695172E+02  0.55951042394E+02  0.11134545915E+03  0.15040531139E+03  0.41800000000E+01 0.  1.
         -5    1    4    4    0  501 -0.32629609446E+02  0.82085885806E+02  0.51581952610E+02  0.10237653196E+03  0.41800000000E+01 0.  1.
</event>
<event>
11    1  0.8479398E-009  0.1641050E+03  0.7561462E-02  0.1083279E+00
         22   -1    0    0    0    0  0.00000000000E+00  0.00000000000E+00  0.14077317343E+04  0.14077317343E+04  0.00000000000E+00 0. -1.
         22   -1    0    0    0    0 -0.00000000000E+00 -0.00000000000E+00 -0.13765758571E+04  0.13765758571E+04  0.00000000000E+00 0.  1.
         24    2    1    2    0    0 -0.73547048632E+02 -0.70503314031E+02 -0.11297923486E+04  0.11370290541E+04  0.77617223003E+02 0.  0.
         25    2    1    2    0    0  0.70425902124E+02  0.16266445084E+03 -0.19148240419E+03  0.28936528600E+03  0.12508887390E+03 0.  0.
        -24    2    1    2    0    0  0.31211465078E+01 -0.92161136809E+02  0.13524306300E+04  0.13579132513E+04  0.79726861201E+02 0.  0.
        -11    1    3    3    0    0 -0.14406026734E+02 -0.65198495701E+02 -0.69516392207E+03  0.69836326936E+03  0.00000000000E+00 0.  1.
         12    1    3    3    0    0 -0.59141021897E+02 -0.53048183297E+01 -0.43462842655E+03  0.43866578478E+03  0.00000000000E+00 0. -1.
         13    1    5    5    0    0 -0.20697195697E+02 -0.94845279376E+02  0.11431334075E+04  0.11472480064E+04  0.00000000000E+00 0. -1.
        -14    1    5    5    0    0  0.23818342205E+02  0.26841425675E+01  0.20929722251E+03  0.21066524487E+03  0.00000000000E+00 0.  1.
          5    1    4    4  501    0  0.59511327869E+02  0.15249629430E+03 -0.90288647985E+02  0.18699259417E+03  0.41800000000E+01 0.  1.
         -5    1    4    4    0  501  0.10914574254E+02  0.10168156542E+02 -0.10119375620E+03  0.10237269183E+03  0.41800000000E+01 0.  1.
</event>
<event>
11    1  0.8479398E-009  0.1499960E+03  0.7561462E-02  0.1096883E+00
         22   -1    0    0    0    0  0.00000000000E+00  0.00000000000E+00  0.55093376008E+03  0.55093376008E+03  0.00000000000E+00 0.  1.
         22   -1    0    0    0    0 -0.00000000000E+00 -0.00000000000E+00 -0.15695829984E+04  0.15695829984E+04  0.00000000000E+00 0. -1.
        -24    2    1    2    0    0 -0.31292780247E+02 -0.81775008264E+00 -0.14696265824E+04  0.14721338775E+04  0.79974713617E+02 0.  0.
         25    2    1    2    0    0  0.93157016745E+02  0.53141384506E+02 -0.17697895244E+02  0.16572279640E+03  0.12509433734E+03 0.  0.
         24    2    1    2    0    0 -0.61864236498E+02 -0.52323634424E+02  0.46867523936E+03  0.48266008454E+03  0.82093426949E+02 0.  0.
        -13    1    5    5    0    0 -0.71280750162E+02 -0.43335133182E+02  0.24905320567E+03  0.26265258111E+03  0.00000000000E+00 0.  1.
         14    1    5    5    0    0  0.94165136643E+01 -0.89885012413E+01  0.21962203369E+03  0.22000750343E+03  0.00000000000E+00 0. -1.
         13    1    3    3    0    0 -0.65997986617E+01  0.11710218725E+02 -0.13136414408E+04  0.13137102122E+04  0.00000000000E+00 0. -1.
        -14    1    3    3    0    0 -0.24692981585E+02 -0.12527968807E+02 -0.15598514158E+03  0.15842366532E+03  0.00000000000E+00 0.  1.
          5    1    4    4  501    0  0.85466340927E+02 -0.91874674371E+01 -0.45000692624E+02  0.97115599808E+02  0.41800000000E+01 0. -1.
         -5    1    4    4    0  501  0.76906758175E+01  0.62328851943E+02  0.27302797380E+02  0.68607196589E+02  0.41800000000E+01 0. -1.
</event>
<event>
11    1  0.8479398E-009  0.2917650E+03  0.7561462E-02  0.1003738E+00
         22   -1    0    0    0    0  0.00000000000E+00  0.00000000000E+00  0.12932021145E+04  0.12932021145E+04  0.00000000000E+00 0. -1.
         22   -1    0    0    0    0 -0.00000000000E+00 -0.00000000000E+00 -0.11836760099E+04  0.11836760099E+04  0.00000000000E+00 0. -1.
        -24    2    1    2    0    0 -0.30407649777E+02 -0.26181825072E+01 -0.84876451422E+03  0.85383555773E+03  0.87763768189E+02 0.  0.
         25    2    1    2    0    0 -0.19445184485E+03 -0.13734571655E+03 -0.25975509384E+03  0.37389211252E+03  0.12508891722E+03 0.  0.
         24    2    1    2    0    0  0.22485949462E+03  0.13996389906E+03  0.12180457127E+04  0.12491504541E+04  0.81177666710E+02 0.  0.
        -13    1    5    5    0    0 -0.28563110410E+01 -0.20540888719E+01  0.72617284644E+02  0.72702460914E+02  0.00000000000E+00 0.  1.
         14    1    5    5    0    0  0.22771580566E+03  0.14201798793E+03  0.11454284280E+04  0.11764479932E+04  0.00000000000E+00 0. -1.
         13    1    3    3    0    0 -0.32148698615E+02 -0.19449372719E+02 -0.81684163120E+03  0.81770536710E+03  0.00000000000E+00 0. -1.
        -14    1    3    3    0    0  0.17410488378E+01  0.16831190212E+02 -0.31922883025E+02  0.36130190639E+02  0.00000000000E+00 0.  1.
          5    1    4    4  501    0 -0.10408125506E+03 -0.24457223207E+02 -0.47599340736E+02  0.11710778394E+03  0.41800000000E+01 0.  1.
         -5    1    4    4    0  501 -0.90370589787E+02 -0.11288849334E+03 -0.21215575310E+03  0.25678432858E+03  0.41800000000E+01 0.  1.
</event>
<event>
11    1  0.8479398E-009  0.1720461E+03  0.7561462E-02  0.1076265E+00
         22   -1    0    0    0    0  0.00000000000E+00  0.00000000000E+00  0.11442702814E+03  0.11442702814E+03  0.00000000000E+00 0. -1.
         22   -1    0    0    0    0 -0.00000000000E+00 -0.00000000000E+00 -0.29808351600E+04  0.29808351600E+04  0.00000000000E+00 0.  1.
        -24    2    1    2    0    0  0.47391088728E+02 -0.10000073676E+03 -0.23357881173E+04  0.23397802894E+04  0.80122474440E+02 0.  0.
         25    2    1    2    0    0 -0.10158399959E+03  0.19387711785E+03 -0.56295735151E+03  0.61682795451E+03  0.12509236605E+03 0.  0.
         24    2    1    2    0    0  0.54192910862E+02 -0.93876381088E+02  0.32337336893E+02  0.13865394432E+03  0.80184577095E+02 0.  0.
        -11    1    5    5    0    0 -0.34130942706E+01 -0.70639120871E+02  0.29035811962E+02  0.76450068583E+02  0.00000000000E+00 0.  1.
         12    1    5    5    0    0  0.57606005133E+02 -0.23237260217E+02  0.33015249309E+01  0.62203875736E+02  0.00000000000E+00 0. -1.
         13    1    3    3    0    0  0.15928555886E+02 -0.11421878361E+02 -0.93974885299E+02  0.95997173213E+02  0.00000000000E+00 0. -1.
        -14    1    3    3    0    0  0.31462532842E+02 -0.88578858403E+02 -0.22418132320E+04  0.22437831161E+04  0.00000000000E+00 0.  1.
          5    1    4    4  501    0  0.28530278140E+02  0.42123400778E+02 -0.13934474805E+03  0.14840077113E+03  0.41800000000E+01 0.  1.
         -5    1    4    4    0  501 -0.13011427773E+03  0.15175371707E+03 -0.42361260346E+03  0.46842718338E+03  0.41800000000E+01 0.  1.
</event>
<event>
11    1  0.8479398E-009  0.1332626E+03  0.7561462E-02  0.1115324E+00
         22   -1    0    0    0    0  0.00000000000E+00  0.00000000000E+00  0.32749236838E+03  0.32749236838E+03  0.00000000000E+00 0. -1.
         22   -1    0    0    0    0 -0.00000000000E+00 -0.00000000000E+00 -0.66580568566E+03  0.66580568566E+03  0.00000000000E+00 0.  1.
         24    2    1    2    0    0 -0.20562400522E+01  0.46019443557E+02 -0.62713586318E+03  0.63400539148E+03  0.80879096370E+02 0.  0.
         25    2    1    2    0    0  0.18209298049E+02 -0.38208746416E+02  0.17812330403E+03  0.22173685760E+03  0.12509130961E+03 0.  0.
        -24    2    1    2    0    0 -0.16153057997E+02 -0.78106971410E+01  0.11069924187E+03  0.13755580496E+03  0.79657699288E+02 0.  0.
        -13    1    3    3    0    0 -0.10568736882E+02  0.59585046184E+02 -0.59530264123E+03  0.59837054622E+03  0.00000000000E+00 0.  1.
         14    1    3    3    0    0  0.85124968299E+01 -0.13565602627E+02 -0.31833221946E+02  0.35634845255E+02  0.00000000000E+00 0. -1.
         13    1    5    5    0    0  0.31378839990E+02 -0.12722076804E+02  0.46899350974E+02  0.57844895705E+02  0.00000000000E+00 0. -1.
        -14    1    5    5    0    0 -0.47531897987E+02  0.49113796626E+01  0.63799890892E+02  0.79710909255E+02  0.00000000000E+00 0.  1.
          5    1    4    4  501    0  0.38744005707E+02  0.96284101999E+00  0.17262699147E+03  0.17697337547E+03  0.41800000000E+01 0.  1.
         -5    1    4    4    0  501 -0.20534707659E+02 -0.39171587436E+02  0.54963125674E+01  0.44763482134E+02  0.41800000000E+01 0.  1.
</event>
<event>
11    1  0.8479398E-009  0.1380191E+03  0.7561462E-02  0.1109791E+00
         22   -1    0    0    0    0  0.00000000000E+00  0.00000000000E+00  0.20552167062E+04  0.20552167062E+04  0.00000000000E+00 0.  1.
         22   -1    0    0    0    0 -0.00000000000E+00 -0.00000000000E+00 -0.41601414859E+03  0.41601414859E+03  0.00000000000E+00 0.  1.
         24    2    1    2    0    0 -0.88568709705E+01 -0.54511864513E+02 -0.29468323003E+03  0.31026027415E+03  0.79832600583E+02 0.  0.
         25    2    1    2    0    0  0.46289302549E+02  0.98580095587E+02 -0.51094778122E+02  0.17354623918E+03  0.12508751339E+03 0.  0.
        -24    2    1    2    0    0 -0.37432431578E+02 -0.44068231074E+02  0.19849805658E+04  0.19874243415E+04  0.79777632814E+02 0.  0.
        -11    1    3    3    0    0 -0.37022851324E+01 -0.16149648974E+02 -0.25237124752E+03  0.25291454021E+03  0.00000000000E+00 0.  1.
         12    1    3    3    0    0 -0.51545858381E+01 -0.38362215539E+02 -0.42311982513E+02  0.57345733933E+02  0.00000000000E+00 0. -1.
         13    1    5    5    0    0  0.17764153968E+02  0.77203695211E+01  0.23067356057E+03  0.23148533608E+03  0.00000000000E+00 0. -1.
        -14    1    5    5    0    0 -0.55196585546E+02 -0.51788600595E+02  0.17543070052E+04  0.17559390054E+04  0.00000000000E+00 0.  1.
          5    1    4    4  501    0  0.33778025747E+02  0.72809429521E+02  0.31270762431E+02  0.86240947546E+02  0.41800000000E+01 0.  1.
         -5    1    4    4    0  501  0.12511276802E+02  0.25770666066E+02 -0.82365540553E+02  0.87305291634E+02  0.41800000000E+01 0.  1.
</event>
<event>
11    1  0.8479398E-009  0.1483292E+03  0.7561462E-02  0.1098598E+00
         22   -1    0    0    0    0  0.00000000000E+00  0.00000000000E+00  0.13494434733E+03  0.13494434733E+03  0.00000000000E+00 0. -1.
         22   -1    0    0    0    0 -0.00000000000E+00 -0.00000000000E+00 -0.15483852345E+04  0.15483852345E+04  0.00000000000E+00 0. -1.
        -24    2    1    2    0    0 -0.47308650913E+02 -0.61929932260E+02 -0.13151706156E+04  0.13199391393E+04  0.80573930917E+02 0.  0.
         25    2    1    2    0    0  0.37879523636E+02  0.10132732633E+03 -0.17992252359E+03  0.24437644682E+03  0.12508256431E+03 0.  0.
         24    2    1    2    0    0  0.94291272770E+01 -0.39397394068E+02  0.81652252038E+02  0.11901399569E+03  0.76525667640E+02 0.  0.
        -13    1    5    5    0    0  0.42864914987E+02 -0.22633646929E+02  0.53546785369E+02  0.72228395618E+02  0.00000000000E+00 0.  1.
         14    1    5    5    0    0 -0.33435787710E+02 -0.16763747139E+02  0.28105466669E+02  0.46785600077E+02  0.00000000000E+00 0. -1.
         13    1    3    3    0    0 -0.60339302233E+02 -0.72222197583E+02 -0.10320646230E+04  0.10363465942E+04  0.00000000000E+00 0. -1.
        -14    1    3    3    0    0  0.13030651320E+02  0.10292265323E+02 -0.28310599262E+03  0.28359254513E+03  0.00000000000E+00 0.  1.
          5    1    4    4  501    0 -0.40921650792E+02  0.26317997721E+02 -0.93071859045E+02  0.10510500394E+03  0.41800000000E+01 0. -1.
         -5    1    4    4    0  501  0.78801174427E+02  0.75009328608E+02 -0.86850664544E+02  0.13927144288E+03  0.41800000000E+01 0. -1.
</event>
<event>
11    1  0.8479398E-009  0.1415371E+03  0.7561462E-02  0.1105854E+00
         22   -1    0    0    0    0  0.00000000000E+00  0.00000000000E+00  0.68803362184E+03  0.68803362184E+03  0.00000000000E+00 0. -1.
         22   -1    0    0    0    0 -0.00000000000E+00 -0.00000000000E+00 -0.34601661464E+03  0.34601661464E+03  0.00000000000E+00 0. -1.
         24    2    1    2    0    0 -0.29047157418E+02  0.17353141017E+02 -0.30461759726E+03  0.31685676604E+03  0.80383211977E+02 0.  0.
         25    2    1    2    0    0 -0.20858742552E+02 -0.62833886138E+02  0.13729910794E+03  0.19718387433E+03  0.12508897181E+03 0.  0.
        -24    2    1    2    0    0  0.49905899970E+02  0.45480745121E+02  0.50933549653E+03  0.52000959611E+03  0.80176274492E+02 0.  0.
        -13    1    3    3    0    0 -0.38947154497E+01  0.38829109519E+02 -0.24983675695E+03  0.25286611809E+03  0.00000000000E+00 0.  1.
         14    1    3    3    0    0 -0.25152441968E+02 -0.21475968502E+02 -0.54780840311E+02  0.63990647951E+02  0.00000000000E+00 0. -1.
         11    1    5    5    0    0 -0.57397176869E+01  0.47949188637E+02  0.26935651662E+03  0.27365124173E+03  0.00000000000E+00 0. -1.
        -12    1    5    5    0    0  0.55645617657E+02 -0.24684435164E+01  0.23997897991E+03  0.24635835438E+03  0.00000000000E+00 0.  1.
          5    1    4    4  501    0 -0.17225165533E+02  0.36345711580E+02  0.54519650760E+02  0.67879170568E+02  0.41800000000E+01 0. -1.
         -5    1    4    4    0  501 -0.36335770192E+01 -0.99179597718E+02  0.82779457176E+02  0.12930470377E+03  0.41800000000E+01 0. -1.
</event>
<event>
11    1  0.8479398E-009  0.2016710E+03  0.7561462E-02  0.1053348E+00
         22   -1    0    0    0    0  0.00000000000E+00  0.00000000000E+00  0.44312744935E+03  0.44312744935E+03  0.00000000000E+00 0. -1.
         22   -1    0    0    0    0 -0.00000000000E+00 -0.00000000000E+00 -0.10294238917E+04  0.10294238917E+04  0.00000000000E+00 0.  1.
        -24    2    1    2    0    0  0.14682023997E+03  0.59369254168E+02 -0.97656842433E+03  0.99277737959E+03  0.82705180235E+02 0.  0.
         25    2    1    2    0    0 -0.13665640269E+03 -0.66952177969E+02  0.25151194600E+03  0.31947382285E+03  0.12509075896E+03 0.  0.
         24    2    1    2    0    0 -0.10163837279E+02  0.75829238017E+01  0.13876003593E+03  0.16030013865E+03  0.79252650168E+02 0.  0.
        -11    1    5    5    0    0 -0.15384855339E+02 -0.30833291028E+02  0.33217428996E+02  0.47862126974E+02  0.00000000000E+00 0.  1.
         12    1    5    5    0    0  0.52210180598E+01  0.38416214830E+02  0.10554260693E+03  0.11243801167E+03  0.00000000000E+00 0. -1.
         13    1    3    3    0    0  0.25980154405E+02  0.51156201914E+02 -0.29399190916E+03  0.29953825811E+03  0.00000000000E+00 0. -1.
        -14    1    3    3    0    0  0.12084008556E+03  0.82130522541E+01 -0.68257651517E+03  0.69323912149E+03  0.00000000000E+00 0.  1.
          5    1    4    4  501    0 -0.12974981312E+03 -0.89099976178E+02  0.15808642017E+03  0.22312016583E+03  0.41800000000E+01 0. -1.
         -5    1    4    4    0  501 -0.69065895713E+01  0.22147798208E+02  0.93425525827E+02  0.96353657020E+02  0.41800000000E+01 0. -1.
</event>
<event>
11    1  0.8479398E-009  0.1551016E+03  0.7561462E-02  0.1091777E+00
         22   -1    0    0    0    0  0.00000000000E+00  0.00000000000E+00  0.15462271722E+04  0.15462271722E+04  0.00000000000E+00 0. -1.
         22   -1    0    0    0    0 -0.00000000000E+00 -0.00000000000E+00 -0.11979446070E+04  0.11979446070E+04  0.00000000000E+00 0. -1.
         24    2    1    2    0    0  0.51388965550E+02  0.24101038452E+02 -0.11482328205E+04  0.11524439292E+04  0.80415881893E+02 0.  0.
         25    2    1    2    0    0 -0.17164989450E+02  0.63414901986E+02  0.66089872371E+02  0.15598709467E+03  0.12509202939E+03 0.  0.
        -24    2    1    2    0    0 -0.34223976099E+02 -0.87515940438E+02  0.14304255133E+04  0.14357407553E+04  0.80025289583E+02 0.  0.
        -11    1    3    3    0    0 -0.20789460040E+02  0.13624856229E+02 -0.23832488884E+03  0.23961759325E+03  0.00000000000E+00 0.  1.
         12    1    3    3    0    0  0.72178425590E+02  0.10476182223E+02 -0.90990793169E+03  0.91282633598E+03  0.00000000000E+00 0. -1.
         11    1    5    5    0    0 -0.29831348570E+02 -0.99658641098E+02  0.13703649092E+04  0.13743077306E+04  0.00000000000E+00 0. -1.
        -12    1    5    5    0    0 -0.43926275295E+01  0.12142700660E+02  0.60060604147E+02  0.61433024721E+02  0.00000000000E+00 0.  1.
          5    1    4    4  501    0  0.32021550027E+02  0.54923505781E+02  0.81622180639E+02  0.10354527476E+03  0.41800000000E+01 0.  1.
         -5    1    4    4    0  501 -0.49186539478E+02  0.84913962051E+01 -0.15532308268E+02  0.52441819910E+02  0.41800000000E+01 0.  1.
</event>
<event>
11    1  0.8479398E-009  0.1403258E+03  0.7561462E-02  0.1107195E+00
         22   -1    0    0    0    0  0.00000000000E+00  0.00000000000E+00  0.62128464729E+03  0.62128464729E+03  0.00000000000E+00 0. -1.
         22   -1    0    0    0    0 -0.00000000000E+00 -0.00000000000E+00 -0.19430434258E+04  0.19430434258E+04  0.00000000000E+00 0. -1.
         24    2    1    2    0    0 -0.45352149563E+02  0.41728188313E+01 -0.92196896773E+03  0.92650945508E+03  0.79490647252E+02 0.  0.
         25    2    1    2    0    0 -0.94633279254E+01 -0.36700956698E+02 -0.10105652896E+04  0.10189827258E+04  0.12508827389E+03 0.  0.
        -24    2    1    2    0    0  0.54815477489E+02  0.32528137867E+02  0.61077547883E+03  0.61883589214E+03  0.76474567965E+02 0.  0.
        -11    1    3    3    0    0 -0.19444186760E+02 -0.37028840652E+02 -0.35495909773E+03  0.35741456672E+03  0.00000000000E+00 0.  1.
         12    1    3    3    0    0 -0.25907962803E+02  0.41201659484E+02 -0.56700987000E+03  0.56909488836E+03  0.00000000000E+00 0. -1.
         11    1    5    5    0    0  0.34600520349E+02  0.55043625268E+02  0.49153020048E+03  0.49581139023E+03  0.00000000000E+00 0. -1.
        -12    1    5    5    0    0  0.20214957140E+02 -0.22515487401E+02  0.11924527834E+03  0.12302450192E+03  0.00000000000E+00 0.  1.
          5    1    4    4  501    0  0.31356175495E+02  0.16698174592E+02 -0.10517530881E+03  0.11109165927E+03  0.41800000000E+01 0. -1.
         -5    1    4    4    0  501 -0.40819503420E+02 -0.53399131290E+02 -0.90538998076E+03  0.90789106656E+03  0.41800000000E+01 0. -1.
</event>
<event>
11    1  0.8479398E-009  0.1490297E+03  0.7561462E-02  0.1097874E+00
         22   -1    0    0    0    0  0.00000000000E+00  0.00000000000E+00  0.11487334746E+04  0.11487334746E+04  0.00000000000E+00 0. -1.
         22   -1    0    0    0    0 -0.00000000000E+00 -0.00000000000E+00 -0.11670951299E+03  0.11670951299E+03  0.00000000000E+00 0. -1.
         24    2    1    2    0    0 -0.18438415057E+02  0.50779345312E+02 -0.23479529392E+02  0.10173482795E+03  0.82946789308E+02 0.  0.
         25    2    1    2    0    0 -0.59045499040E+02 -0.20626494953E+02  0.45456336156E+02  0.14705601388E+03  0.12508944588E+03 0.  0.
        -24    2    1    2    0    0  0.77483914097E+02 -0.30152850359E+02  0.10100471548E+04  0.10166521458E+04  0.80457312599E+02 0.  0.
        -13    1    3    3    0    0 -0.18452194386E+02  0.64417931847E+02  0.79452824571E+01  0.67478003337E+02  0.00000000000E+00 0.  1.
         14    1    3    3    0    0  0.13779328727E-01 -0.13638586535E+02 -0.31424811849E+02  0.34256824609E+02  0.00000000000E+00 0. -1.
         13    1    5    5    0    0  0.69634378963E+02 -0.73998411252E+00  0.89299320186E+03  0.89570438922E+03  0.00000000000E+00 0. -1.
        -14    1    5    5    0    0  0.78495351343E+01 -0.29412866246E+02  0.11705395299E+03  0.12094775655E+03  0.00000000000E+00 0.  1.
          5    1    4    4  501    0  0.37074810865E+02 -0.18431765261E+02  0.25615408328E+01  0.41692990571E+02  0.41800000000E+01 0. -1.
         -5    1    4    4    0  501 -0.96120309905E+02 -0.21947296923E+01  0.42894795323E+02  0.10536302331E+03  0.41800000000E+01 0. -1.
</event>
<event>
11    1  0.8479398E-009  0.1699283E+03  0.7561462E-02  0.1078094E+00
         22   -1    0    0    0    0  0.00000000000E+00  0.00000000000E+00  0.18825639747E+04  0.18825639747E+04  0.00000000000E+00 0.  1.
         22   -1    0    0    0    0 -0.00000000000E+00 -0.00000000000E+00 -0.91159771399E+03  0.91159771399E+03  0.00000000000E+00 0. -1.
         24    2    1    2    0    0 -0.11533269163E+03  0.39348432577E+02 -0.86406533862E+03  0.87780086159E+03  0.95265493816E+02 0.  0.
         25    2    1    2    0    0 -0.14921813832E+02 -0.38948616222E+02  0.79182242593E+02  0.15380828081E+03  0.12508998549E+03 0.  0.
        -24    2    1    2    0    0  0.13025450546E+03 -0.39981635506E+00  0.17558493568E+04  0.17625525463E+04  0.81351821208E+02 0.  0.
        -11    1    3    3    0    0 -0.97413950116E+01  0.47630621391E+02 -0.28987117076E+03  0.29391983007E+03  0.00000000000E+00 0.  1.
         12    1    3    3    0    0 -0.10559129661E+03 -0.82821888137E+01 -0.57419416786E+03  0.58388103153E+03  0.00000000000E+00 0. -1.
         13    1    5    5    0    0  0.45480535864E+02 -0.39463315199E+02  0.70114974469E+03  0.70373062806E+03  0.00000000000E+00 0. -1.
        -14    1    5    5    0    0  0.84773969594E+02  0.39063498844E+02  0.10546996121E+04  0.10588219182E+04  0.00000000000E+00 0.  1.
          5    1    4    4  501    0 -0.54129355795E+02  0.40484164040E+01 -0.12388879911E+01  0.54455340212E+02  0.41800000000E+01 0.  1.
         -5    1    4    4    0  501  0.39207541963E+02 -0.42997032626E+02  0.80421130584E+02  0.99352940600E+02  0.41800000000E+01 0.  1.
</event>
<event>
11    1  0.8479398E-009  0.2080680E+03  0.7561462E-02  0.1048961E+00
         22   -1    0    0    0    0  0.00000000000E+00  0.00000000000E+00  0.23640487565E+04  0.23640487565E+04  0.00000000000E+00 0.  1.
         22   -1    0    0    0    0 -0.00000000000E+00 -0.00000000000E+00 -0.22850179796E+03  0.22850179796E+03  0.00000000000E+00 0.  1.
         24    2    1    2    0    0  0.12267184323E+03  0.11720752317E+03 -0.15322462464E+03  0.24248905692E+03  0.80852783015E+02 0.  0.
         25    2    1    2    0    0 -0.17818232606E+03 -0.59389455481E+00  0.40271138686E+03  0.45779243641E+03  0.12509260450E+03 0.  0.
        -24    2    1    2    0    0  0.55510482832E+02 -0.11661362862E+03  0.18860601963E+04  0.18922690611E+04  0.82334582240E+02 0.  0.
        -11    1    3    3    0    0  0.10765311989E+03  0.12805016447E+03 -0.12544188648E+03  0.20909735945E+03  0.00000000000E+00 0.  1.
         12    1    3    3    0    0  0.15018723339E+02 -0.10842641294E+02 -0.27782738153E+02  0.33391697475E+02  0.00000000000E+00 0. -1.
         11    1    5    5    0    0 -0.62560030766E+01 -0.75662661873E+02  0.76354616851E+03  0.76731136276E+03  0.00000000000E+00 0. -1.
        -12    1    5    5    0    0  0.61766485908E+02 -0.40950966747E+02  0.11225140278E+04  0.11249576983E+04  0.00000000000E+00 0.  1.
          5    1    4    4  501    0 -0.83127291889E+02 -0.74035540972E+01  0.32253284542E+03  0.33318143412E+03  0.41800000000E+01 0. -1.
         -5    1    4    4    0  501 -0.95055034172E+02  0.68096595424E+01  0.80178541435E+02  0.12461100229E+03  0.41800000000E+01 0. -1.
</event>
<event>
11    1  0.8479398E-009  0.1651170E+03  0.7561462E-02  0.1082361E+00
         22   -1    0    0    0    0  0.00000000000E+00  0.00000000000E+00  0.18288968098E+04  0.18288968098E+04  0.00000000000E+00 0.  1.
         22   -1    0    0    0    0 -0.00000000000E+00 -0.00000000000E+00 -0.16044368099E+03  0.16044368099E+03  0.00000000000E+00 0. -1.
        -24    2    1    2    0    0  0.44477692506E+02  0.97332737001E+02 -0.11761122987E+03  0.17593349096E+03  0.75287881005E+02 0.  0.
         25    2    1    2    0    0 -0.92733232630E+02 -0.96627487276E+02  0.71185922680E+03  0.73506944115E+03  0.12508877166E+03 0.  0.
         24    2    1    2    0    0  0.48255540123E+02 -0.70524972483E+00  0.10742051319E+04  0.10783375587E+04  0.81031664114E+02 0.  0.
        -13    1    5    5    0    0  0.31999004832E+02  0.39511761646E+02  0.60332347514E+03  0.60546208079E+03  0.00000000000E+00 0.  1.
         14    1    5    5    0    0  0.16256535291E+02 -0.40217011371E+02  0.47088165679E+03  0.47287547795E+03  0.00000000000E+00 0. -1.
         11    1    3    3    0    0 -0.96819200712E+01  0.35478738298E+02 -0.74543773057E+02  0.83121925803E+02  0.00000000000E+00 0. -1.
        -12    1    3    3    0    0  0.54159612578E+02  0.61853998703E+02 -0.43067456809E+02  0.92811565153E+02  0.00000000000E+00 0.  1.
          5    1    4    4  501    0 -0.58421502292E+02 -0.45838837205E+01  0.47492986140E+03  0.47854981932E+03  0.41800000000E+01 0.  1.
         -5    1    4    4    0  501 -0.34311730338E+02 -0.92043603556E+02  0.23692936540E+03  0.25651962183E+03  0.41800000000E+01 0.  1.
</event>
<event>
11    1  0.8479398E-009  0.1273326E+03  0.7561462E-02  0.1122591E+00
         22   -1    0    0    0    0  0.00000000000E+00  0.00000000000E+00  0.16177104458E+03  0.16177104458E+03  0.00000000000E+00 0.  1.
         22   -1    0    0    0    0 -0.00000000000E+00 -0.00000000000E+00 -0.44752084058E+03  0.44752084058E+03  0.00000000000E+00 0.  1.
        -24    2    1    2    0    0 -0.20836286318E+02  0.16962385342E+02 -0.36494918344E+03  0.37437619276E+03  0.79042734438E+02 0.  0.
         25    2    1    2    0    0 -0.74510756099E+01 -0.53602936059E+01  0.11896235328E+02  0.12598927815E+03  0.12509007362E+03 0.  0.
         24    2    1    2    0    0  0.28287361928E+02 -0.11602091736E+02  0.67303152111E+02  0.10892641425E+03  0.80002912822E+02 0.  0.
        -13    1    5    5    0    0  0.46724129768E+02 -0.33123775106E+02  0.43594569727E+02  0.71977880557E+02  0.00000000000E+00 0.  1.
         14    1    5    5    0    0 -0.18436767840E+02  0.21521683370E+02  0.23708582384E+02  0.36948533694E+02  0.00000000000E+00 0. -1.
         11    1    3    3    0    0 -0.78875901499E+01 -0.22498968790E+02 -0.38419380350E+02  0.45215776688E+02  0.00000000000E+00 0. -1.
        -12    1    3    3    0    0 -0.12948696168E+02  0.39461354132E+02 -0.32652980309E+03  0.32916041607E+03  0.00000000000E+00 0.  1.
          5    1    4    4  501    0 -0.10476341319E+02  0.34330568120E+02  0.55863631990E+02  0.66532393718E+02  0.41800000000E+01 0. -1.
         -5    1    4    4    0  501  0.30252657092E+01 -0.39690861726E+02 -0.43967396662E+02  0.59456884432E+02  0.41800000000E+01 0. -1.
</event>
<event>
11    1  0.8479398E-009  0.3217484E+03  0.7561462E-02  0.9913850E-01
         22   -1    0    0    0    0  0.00000000000E+00  0.00000000000E+00  0.15561465177E+03  0.15561465177E+03  0.00000000000E+00 0.  1.
         22   -1    0    0    0    0 -0.00000000000E+00 -0.00000000000E+00 -0.14163794132E+04  0.14163794132E+04  0.00000000000E+00 0. -1.
        -24    2    1    2    0    0 -0.18824447549E+02  0.12704559522E+02 -0.49868409257E+03  0.50539309262E+03  0.78870705769E+02 0.  0.
         25    2    1    2    0    0  0.87001503264E+02 -0.29734137696E+03 -0.67141015843E+03  0.74994686224E+03  0.12509012480E+03 0.  0.
         24    2    1    2    0    0 -0.68177055716E+02  0.28463681744E+03 -0.90670510410E+02  0.31665411009E+03  0.79890269815E+02 0.  0.
        -13    1    5    5    0    0 -0.55277434617E+02  0.12648342763E+03 -0.93501345034E+01  0.13835128209E+03  0.00000000000E+00 0.  1.
         14    1    5    5    0    0 -0.12899621099E+02  0.15815338981E+03 -0.81320375906E+02  0.17830282799E+03  0.00000000000E+00 0. -1.
         11    1    3    3    0    0  0.26092342011E+02  0.18851592569E+02 -0.29351601208E+03  0.29527587474E+03  0.00000000000E+00 0. -1.
        -12    1    3    3    0    0 -0.44916789560E+02 -0.61470330467E+01 -0.20516808049E+03  0.21011721789E+03  0.00000000000E+00 0.  1.
          5    1    4    4  501    0 -0.30676970248E+02 -0.50083461736E+02 -0.14647660120E+03  0.15786797250E+03  0.41800000000E+01 0. -1.
         -5    1    4    4    0  501  0.11767847351E+03 -0.24725791522E+03 -0.52493355723E+03  0.59207888973E+03  0.41800000000E+01 0. -1.
</event>
<event>
11    1  0.8479398E-009  0.1338428E+03  0.7561462E-02  0.1114636E+00
         22   -1    0    0    0    0  0.00000000000E+00  0.00000000000E+00  0.41793127737E+03  0.41793127737E+03  0.00000000000E+00 0.  1.
         22   -1    0    0    0    0 -0.00000000000E+00 -0.00000000000E+00 -0.30127894631E+03  0.30127894631E+03  0.00000000000E+00 0.  1.
         24    2    1    2    0    0  0.53114013873E+02  0.56098968208E+02 -0.96973130675E+02  0.14982455031E+03  0.84115486680E+02 0.  0.
         25    2    1    2    0    0 -0.25051219593E+02 -0.24801406827E+01 -0.14694505011E+03  0.19465149599E+03  0.12515047917E+03 0.  0.
        -24    2    1    2    0    0 -0.28062794280E+02 -0.53618827525E+02  0.36057051185E+03  0.37473417738E+03  0.82171227277E+02 0.  0.
        -11    1    3    3    0    0 -0.43532239101E+01  0.40630279722E+02 -0.76784698851E+02  0.86980803436E+02  0.00000000000E+00 0.  1.
         12    1    3    3    0    0  0.57467237783E+02  0.15468688486E+02 -0.20188431824E+02  0.62843746876E+02  0.00000000000E+00 0. -1.
         11    1    5    5    0    0  0.15107172011E+02  0.14716366932E+02  0.82630492921E+02  0.85279519594E+02  0.00000000000E+00 0. -1.
        -12    1    5    5    0    0 -0.43169966291E+02 -0.68335194457E+02  0.27794001893E+03  0.28945465778E+03  0.00000000000E+00 0.  1.
          5    1    4    4  501    0 -0.75776773633E+02 -0.85912867499E+01 -0.86348043932E+02  0.11527960236E+03  0.41800000000E+01 0. -1.
         -5    1    4    4    0  501  0.50725554040E+02  0.61111460672E+01 -0.60597006183E+02  0.79371893622E+02  0.41800000000E+01 0. -1.
</event>
<event>
11    1  0.8479398E-009  0.1400909E+03  0.7561462E-02  0.1107457E+00
         22   -1    0    0    0    0  0.00000000000E+00  0.00000000000E+00  0.15243233352E+04  0.15243233352E+04  0.00000000000E+00 0. -1.
         22   -1    0    0    0    0 -0.00000000000E+00 -0.00000000000E+00 -0.46889422401E+03  0.46889422401E+03  0.00000000000E+00 0. -1.
         24    2    1    2    0    0 -0.24990828668E+02 -0.12354025476E+02 -0.41819121940E+03  0.42777182710E+03  0.85601849334E+02 0.  0.
         25    2    1    2    0    0  0.85019267449E+02  0.27763805260E+02  0.90096274663E+02  0.17822344786E+03  0.12508858437E+03 0.  0.
        -24    2    1    2    0    0 -0.60028438781E+02 -0.15409779784E+02  0.13835240560E+04  0.13872222843E+04  0.80037352648E+02 0.  0.
        -13    1    3    3    0    0  0.28414482437E+02  0.10558202810E+02 -0.10747607313E+03  0.11166899639E+03  0.00000000000E+00 0.  1.
         14    1    3    3    0    0 -0.53405311105E+02 -0.22912228286E+02 -0.31071514627E+03  0.31610283071E+03  0.00000000000E+00 0. -1.
         11    1    5    5    0    0 -0.25411598061E+02 -0.11196258155E+02  0.12052331400E+04  0.12055529964E+04  0.00000000000E+00 0. -1.
        -12    1    5    5    0    0 -0.34616840721E+02 -0.42135216282E+01  0.17829091601E+03  0.18166928787E+03  0.00000000000E+00 0.  1.
          5    1    4    4  501    0 -0.33965323924E+01  0.47277087466E+02 -0.37774084471E+01  0.47732595217E+02  0.41800000000E+01 0.  1.
         -5    1    4    4    0  501  0.88415799841E+02 -0.19513282206E+02  0.93873683111E+02  0.13049085265E+03  0.41800000000E+01 0.  1.
</event>
<event>
11    1  0.8479398E-009  0.1323696E+03  0.7561462E-02  0.1116391E+00
         22   -1    0    0    0    0  0.00000000000E+00  0.00000000000E+00  0.13043773639E+04  0.13043773639E+04  0.00000000000E+00 0. -1.
         22   -1    0    0    0    0 -0.00000000000E+00 -0.00000000000E+00 -0.13658423970E+04  0.13658423970E+04  0.00000000000E+00 0. -1.
         24    2    1    2    0    0  0.38671638215E+02  0.18986751782E+02 -0.13316825809E+04  0.13347683582E+04  0.79825318637E+02 0.  0.
         25    2    1    2    0    0 -0.52463165650E+02 -0.41150862156E+02  0.13076637256E+03  0.19285553173E+03  0.12509050612E+03 0.  0.
        -24    2    1    2    0    0  0.13791527435E+02  0.22164110374E+02  0.11394511752E+04  0.11425958709E+04  0.80590878017E+02 0.  0.
        -11    1    3    3    0    0  0.20289296391E+02 -0.31126860330E+02 -0.50628058677E+03  0.50764216681E+03  0.00000000000E+00 0.  1.
         12    1    3    3    0    0  0.18382341824E+02  0.50113612111E+02 -0.82540199416E+03  0.82712619144E+03  0.00000000000E+00 0. -1.
         11    1    5    5    0    0  0.20494052849E+02  0.48100543604E+02  0.92524997023E+03  0.92672605225E+03  0.00000000000E+00 0. -1.
        -12    1    5    5    0    0 -0.67025254135E+01 -0.25936433230E+02  0.21420120494E+03  0.21586981868E+03  0.00000000000E+00 0.  1.
          5    1    4    4  501    0 -0.34697653637E+02 -0.39586438483E+02 -0.75397547172E+01  0.53341668336E+02  0.41800000000E+01 0.  1.
         -5    1    4    4    0  501 -0.17765512014E+02 -0.15644236725E+01  0.13830612727E+03  0.13951386340E+03  0.41800000000E+01 0.  1.
</event>
<event>
11    1  0.8479398E-009  0.1407782E+03  0.7561462E-02  0.1106693E+00
         22   -1    0    0    0    0  0.00000000000E+00  0.00000000000E+00  0.63370178719E+03  0.63370178719E+03  0.00000000000E+00 0. -1.
         22   -1    0    0    0    0 -0.00000000000E+00 -0.00000000000E+00 -0.80218923141E+02  0.80218923141E+02  0.00000000000E+00 0.  1.
        -24    2    1    2    0    0  0.29643116835E+02  0.54929264172E+02 -0.95668661144E+01  0.10191980290E+03  0.80001142857E+02 0.  0.
         25    2    1    2    0    0 -0.12056921281E+02 -0.84329042436E+02  0.32805875347E+03  0.36128530304E+03  0.12509103770E+03 0.  0.
         24    2    1    2    0    0 -0.17586195554E+02  0.29399778265E+02  0.23499097669E+03  0.25071560439E+03  0.80398594034E+02 0.  0.
        -11    1    5    5    0    0 -0.40139877255E+02  0.12671585816E+02  0.58870652360E+02  0.72370798962E+02  0.00000000000E+00 0.  1.
         12    1    5    5    0    0  0.22553681701E+02  0.16728192449E+02  0.17612032433E+03  0.17834480543E+03  0.00000000000E+00 0. -1.
         11    1    3    3    0    0  0.22779441659E+02 -0.42112348194E+00  0.26922970527E+02  0.35269344327E+02  0.00000000000E+00 0. -1.
        -12    1    3    3    0    0  0.68636751760E+01  0.55350387653E+02 -0.36489836641E+02  0.66650458576E+02  0.00000000000E+00 0.  1.
          5    1    4    4  501    0 -0.14483334614E+02 -0.11505779674E+03  0.28848986918E+03  0.31095327718E+03  0.41800000000E+01 0. -1.
         -5    1    4    4    0  501  0.24264133333E+01  0.30728754299E+02  0.39568884292E+02  0.50332025854E+02  0.41800000000E+01 0. -1.
</event>
<event>
11    1  0.8479398E-009  0.1587746E+03  0.7561462E-02  0.1088235E+00
         22   -1    0    0    0    0  0.00000000000E+00  0.00000000000E+00  0.56699199622E+03  0.56699199622E+03  0.00000000000E+00 0. -1.
         22   -1    0    0    0    0 -0.00000000000E+00 -0.00000000000E+00 -0.97799554236E+03  0.97799554236E+03  0.00000000000E+00 0. -1.
         24    2    1    2    0    0  0.63777820379E+02  0.27179987737E+02 -0.85166549677E+03  0.85817718677E+03  0.79546234360E+02 0.  0.
         25    2    1    2    0    0 -0.33186573448E+02  0.68743261602E+02 -0.68362635488E+02  0.16170298961E+03  0.12508965683E+03 0.  0.
        -24    2    1    2    0    0 -0.30591246931E+02 -0.95923249340E+02  0.50902458612E+03  0.52510736219E+03  0.80589195329E+02 0.  0.
        -11    1    3    3    0    0  0.11897606498E+02 -0.27436593679E+02 -0.21466297753E+03  0.21673604600E+03  0.00000000000E+00 0.  1.
         12    1    3    3    0    0  0.51880213881E+02  0.54616581416E+02 -0.63700251924E+03  0.64144114077E+03  0.00000000000E+00 0. -1.
         11    1    5    5    0    0 -0.23748604837E+02 -0.77122484792E+02  0.49275798752E+03  0.49932184827E+03  0.00000000000E+00 0. -1.
        -12    1    5    5    0    0 -0.68426420947E+01 -0.18800764547E+02  0.16266598595E+02  0.25785513923E+02  0.00000000000E+00 0.  1.
          5    1    4    4  501    0 -0.28429467139E+02  0.10480442428E+03 -0.41647018697E+02  0.11637933029E+03  0.41800000000E+01 0. -1.
         -5    1    4    4    0  501 -0.47571063083E+01 -0.36061162682E+02 -0.26715616791E+02  0.45323659329E+02  0.41800000000E+01 0. -1.
</event>
<event>
11    1  0.8479398E-009  0.1508400E+03  0.7561462E-02  0.1096024E+00
         22   -1    0    0    0    0  0.00000000000E+00  0.00000000000E+00  0.48385629437E+03  0.48385629437E+03  0.00000000000E+00 0. -1.
         22   -1    0    0    0    0 -0.00000000000E+00 -0.00000000000E+00 -0.32281181717E+04  0.32281181717E+04  0.00000000000E+00 0. -1.
         24    2    1    2    0    0 -0.50798842814E+02  0.18331011735E+02 -0.23230334221E+04  0.23250586161E+04  0.80602353880E+02 0.  0.
         25    2    1    2    0    0 -0.31943201888E+02 -0.16530795028E+00 -0.89233907195E+03  0.90163009680E+03  0.12508963450E+03 0.  0.
        -24    2    1    2    0    0  0.82742044702E+02 -0.18165703784E+02  0.47111061672E+03  0.48528575320E+03  0.79879974448E+02 0.  0.
        -11    1    3    3    0    0 -0.28724476499E+02  0.30201297542E+02 -0.46707963533E+03  0.46893560290E+03  0.00000000000E+00 0.  1.
         12    1    3    3    0    0 -0.22074366315E+02 -0.11870285807E+02 -0.18559537868E+04  0.18561230132E+04  0.00000000000E+00 0. -1.
         13    1    5    5    0    0  0.98777656464E+02 -0.17692746965E+02  0.41057204914E+03  0.42265762296E+03  0.00000000000E+00 0. -1.
        -14    1    5    5    0    0 -0.16035611762E+02 -0.47295681921E+00  0.60538567586E+02  0.62628130246E+02  0.00000000000E+00 0.  1.
          5    1    4    4  501    0  0.17934596611E+02 -0.52891093385E+02 -0.42375842852E+03  0.42744332450E+03  0.41800000000E+01 0. -1.
         -5    1    4    4    0  501 -0.49877798499E+02  0.52725785434E+02 -0.46858064343E+03  0.47418677230E+03  0.41800000000E+01 0. -1.
</event>
<event>
11    1  0.8479398E-009  0.1481731E+03  0.7561462E-02  0.1098760E+00
         22   -1    0    0    0    0  0.00000000000E+00  0.00000000000E+00  0.19263049775E+03  0.19263049775E+03  0.00000000000E+00 0. -1.
         22   -1    0    0    0    0 -0.00000000000E+00 -0.00000000000E+00 -0.28580875828E+04  0.28580875828E+04  0.00000000000E+00 0.  1.
        -24    2    1    2    0    0  0.53517490937E+02 -0.67337936499E+02 -0.24147245641E+04  0.24172443606E+04  0.69116270782E+02 0.  0.
         25    2    1    2    0    0 -0.17107950175E+02  0.23518404497E+02 -0.41886984110E+03  0.43811569330E+03  0.12509044575E+03 0.  0.
         24    2    1    2    0    0 -0.36409540763E+02  0.43819532002E+02  0.16813732014E+03  0.19535802666E+03  0.81540138039E+02 0.  0.
        -11    1    5    5    0    0 -0.27155964480E+02 -0.19857050219E+02  0.74498912942E+02  0.81742503508E+02  0.00000000000E+00 0.  1.
         12    1    5    5    0    0 -0.92535762826E+01  0.63676582221E+02  0.93638407199E+02  0.11361552315E+03  0.00000000000E+00 0. -1.
         13    1    3    3    0    0 -0.87937681067E+01 -0.37243919283E+01 -0.53794884289E+02  0.54635986570E+02  0.00000000000E+00 0. -1.
        -14    1    3    3    0    0  0.62311259044E+02 -0.63613544571E+02 -0.23609296798E+04  0.23626083741E+04  0.00000000000E+00 0.  1.
          5    1    4    4  501    0 -0.87963731585E+01  0.12469743017E+02  0.29108448835E+01  0.16087762106E+02  0.41800000000E+01 0. -1.
         -5    1    4    4    0  501 -0.83115770161E+01  0.11048661480E+02 -0.42178068599E+03  0.42202793119E+03  0.41800000000E+01 0. -1.
</event>
<event>
11    1  0.8479398E-009  0.1511613E+03  0.7561462E-02  0.1095698E+00
         22   -1    0    0    0    0  0.00000000000E+00  0.00000000000E+00  0.13350669806E+04  0.13350669806E+04  0.00000000000E+00 0. -1.
         22   -1    0    0    0    0 -0.00000000000E+00 -0.00000000000E+00 -0.10623927962E+03  0.10623927962E+03  0.00000000000E+00 0. -1.
         24    2    1    2    0    0  0.79275869730E+02  0.29058480050E+02 -0.53618135625E+02  0.12848306344E+03  0.80646973533E+02 0.  0.
         25    2    1    2    0    0 -0.66854631659E+02 -0.79567383619E+02  0.53258563456E+03  0.55686204950E+03  0.12508946291E+03 0.  0.
        -24    2    1    2    0    0 -0.12421238071E+02  0.50508903569E+02  0.74986020201E+03  0.75596114724E+03  0.80507745470E+02 0.  0.
        -13    1    3    3    0    0 -0.11711930360E+02  0.22607466014E+02 -0.13724707533E+02  0.28924633605E+02  0.00000000000E+00 0.  1.
         14    1    3    3    0    0  0.90987800089E+02  0.64510140363E+01 -0.39893428092E+02  0.99558429840E+02  0.00000000000E+00 0. -1.
         11    1    5    5    0    0 -0.38805622792E+02  0.53624273632E+02  0.43827321208E+03  0.44324355326E+03  0.00000000000E+00 0. -1.
        -12    1    5    5    0    0  0.26384384721E+02 -0.31153700634E+01  0.31158698993E+03  0.31271759398E+03  0.00000000000E+00 0.  1.
          5    1    4    4  501    0 -0.58027955211E+00  0.24126990132E+02  0.21252720308E+03  0.21393394501E+03  0.41800000000E+01 0.  1.
         -5    1    4    4    0  501 -0.66274352107E+02 -0.10369437375E+03  0.32005843148E+03  0.34292810450E+03  0.41800000000E+01 0.  1.
</event>
<event>
11    1  0.8479398E-009  0.1331173E+03  0.7561462E-02  0.1115497E+00
         22   -1    0    0    0    0  0.00000000000E+00  0.00000000000E+00  0.17284569906E+03  0.17284569906E+03  0.00000000000E+00 0.  1.
         22   -1    0    0    0    0 -0.00000000000E+00 -0.00000000000E+00 -0.84129237463E+03  0.84129237463E+03  0.00000000000E+00 0.  1.
         24    2    1    2    0    0  0.46262125099E+01  0.16440274768E+01 -0.75780089153E+03  0.76195107504E+03  0.79266290993E+02 0.  0.
         25    2    1    2    0    0  0.31551146525E+02 -0.30418478820E+02  0.15773035356E+02  0.13348283982E+03  0.12509245053E+03 0.  0.
        -24    2    1    2    0    0 -0.36177359035E+02  0.28774451343E+02  0.73581180601E+02  0.11870415883E+03  0.80868515684E+02 0.  0.
        -11    1    3    3    0    0  0.36101160532E+02 -0.17155170136E+02 -0.29418378020E+03  0.29688666219E+03  0.00000000000E+00 0.  1.
         12    1    3    3    0    0 -0.31474948022E+02  0.18799197613E+02 -0.46361711133E+03  0.46506441285E+03  0.00000000000E+00 0. -1.
         11    1    5    5    0    0 -0.22761995737E+02 -0.14477435488E+01 -0.12839567637E+02  0.26173630020E+02  0.00000000000E+00 0. -1.
        -12    1    5    5    0    0 -0.13415363298E+02  0.30222194892E+02  0.86420748239E+02  0.92530528814E+02  0.00000000000E+00 0.  1.
          5    1    4    4  501    0  0.15126191656E+02  0.48465510479E+02 -0.15228862658E+01  0.50965664546E+02  0.41800000000E+01 0. -1.
         -5    1    4    4    0  501  0.16424954869E+02 -0.78883989299E+02  0.17295921621E+02  0.82517175272E+02  0.41800000000E+01 0. -1.
</event>
<event>
11    1  0.8479398E-009  0.1318042E+03  0.7561462E-02  0.1117072E+00
         22   -1    0    0    0    0  0.00000000000E+00  0.00000000000E+00  0.25793361166E+03  0.25793361166E+03  0.00000000000E+00 0. -1.
         22   -1    0    0    0    0 -0.00000000000E+00 -0.00000000000E+00 -0.10952123173E+04  0.10952123173E+04  0.00000000000E+00 0.  1.
        -24    2    1    2    0    0 -0.37058354417E+02 -0.20416417440E+02 -0.98640426665E+03  0.99061201463E+03  0.80799966220E+02 0.  0.
         25    2    1    2    0    0  0.29320257866E+02  0.19617244910E+00 -0.56461322091E+02  0.14034089457E+03  0.12509184542E+03 0.  0.
         24    2    1    2    0    0  0.77380965513E+01  0.20220244991E+02  0.20558688309E+03  0.22219301978E+03  0.81455724746E+02 0.  0.
        -13    1    5    5    0    0  0.30673262271E+02 -0.18910504148E+02  0.63133285953E+02  0.72692970642E+02  0.00000000000E+00 0.  1.
         14    1    5    5    0    0 -0.22935165719E+02  0.39130749139E+02  0.14245359714E+03  0.14950004914E+03  0.00000000000E+00 0. -1.
         11    1    3    3    0    0 -0.59606028429E+02  0.89247129261E-01 -0.57532103834E+03  0.57840053920E+03  0.00000000000E+00 0. -1.
        -12    1    3    3    0    0  0.22547674012E+02 -0.20505664569E+02 -0.41108322830E+03  0.41221147543E+03  0.00000000000E+00 0.  1.
          5    1    4    4  501    0  0.56709855674E+02 -0.46940346430E+02 -0.30115606990E+02  0.79648138948E+02  0.41800000000E+01 0.  1.
         -5    1    4    4    0  501 -0.27389597808E+02  0.47136518879E+02 -0.26345715101E+02  0.60692755617E+02  0.41800000000E+01 0.  1.
</event>
<event>
11    1  0.8479398E-009  0.1479578E+03  0.7561462E-02  0.1098984E+00
         22   -1    0    0    0    0  0.00000000000E+00  0.00000000000E+00  0.19019516257E+04  0.19019516257E+04  0.00000000000E+00 0. -1.
         22   -1    0    0    0    0 -0.00000000000E+00 -0.00000000000E+00 -0.15881860202E+03  0.15881860202E+03  0.00000000000E+00 0.  1.
        -24    2    1    2    0    0 -0.67558748405E+02  0.42597010781E+02 -0.95593034284E+02  0.14824485380E+03  0.80372997084E+02 0.  0.
         25    2    1    2    0    0  0.86441677590E+02  0.28764789731E+01  0.12659392684E+03  0.19788046447E+03  0.12510083193E+03 0.  0.
         24    2    1    2    0    0 -0.18882929185E+02 -0.45473489754E+02  0.17121321311E+04  0.17146449094E+04  0.78653212261E+02 0.  0.
        -11    1    5    5    0    0  0.16898550339E+02 -0.20930025618E+02  0.19003904054E+03  0.19193348823E+03  0.00000000000E+00 0.  1.
         12    1    5    5    0    0 -0.35781479524E+02 -0.24543464136E+02  0.15220930906E+04  0.15227114212E+04  0.00000000000E+00 0. -1.
         11    1    3    3    0    0 -0.39933784915E+02  0.93642354501E+01  0.24602575717E+01  0.41090740448E+02  0.00000000000E+00 0. -1.
        -12    1    3    3    0    0 -0.27624963490E+02  0.33232775331E+02 -0.98053291855E+02  0.10715411335E+03  0.00000000000E+00 0.  1.
          5    1    4    4  501    0  0.39039532850E+02 -0.32355461981E+02 -0.73771471502E+01  0.51408712737E+02  0.41800000000E+01 0.  1.
         -5    1    4    4    0  501  0.47402144740E+02  0.35231940954E+02  0.13397107399E+03  0.14647175173E+03  0.41800000000E+01 0.  1.
</event>
<event>
11    1  0.8479398E-009  0.1286340E+03  0.7561462E-02  0.1120959E+00
         22   -1    0    0    0    0  0.00000000000E+00  0.00000000000E+00  0.18832701459E+03  0.18832701459E+03  0.00000000000E+00 0. -1.
         22   -1    0    0    0    0 -0.00000000000E+00 -0.00000000000E+00 -0.12397041026E+04  0.12397041026E+04  0.00000000000E+00 0.  1.
         24    2    1    2    0    0 -0.31396561084E+02  0.22618584651E+02 -0.84325351271E+03  0.84765360601E+03  0.77089588608E+02 0.  0.
         25    2    1    2    0    0  0.20552331187E+02  0.63035676683E+01 -0.37247741484E+03  0.39350955238E+03  0.12509280544E+03 0.  0.
        -24    2    1    2    0    0  0.10844229897E+02 -0.28922152320E+02  0.16435383953E+03  0.18686795878E+03  0.83386816905E+02 0.  0.
        -11    1    3    3    0    0 -0.12573928705E+02  0.29640314071E+02 -0.79124563602E+03  0.79190044098E+03  0.00000000000E+00 0.  1.
         12    1    3    3    0    0 -0.18822632378E+02 -0.70217294200E+01 -0.52007876689E+02  0.55753165035E+02  0.00000000000E+00 0. -1.
         13    1    5    5    0    0  0.42316531777E+02 -0.20281376747E+02  0.52805034836E+02  0.70642726508E+02  0.00000000000E+00 0. -1.
        -14    1    5    5    0    0 -0.31472301880E+02 -0.86407755723E+01  0.11154880470E+03  0.11622523228E+03  0.00000000000E+00 0.  1.
          5    1    4    4  501    0  0.40585142025E+02 -0.50773454510E+02 -0.21926812184E+03  0.22873801409E+03  0.41800000000E+01 0. -1.
         -5    1    4    4    0  501 -0.20032810838E+02  0.57077022178E+02 -0.15320929300E+03  0.16477153830E+03  0.41800000000E+01 0. -1.
</event>
<event>
11    1  0.8479398E-009  0.1377873E+03  0.7561462E-02  0.1110055E+00
         22   -1    0    0    0    0  0.00000000000E+00  0.00000000000E+00  0.24279139503E+03  0.24279139503E+03  0.00000000000E+00 0. -1.
         22   -1    0    0    0    0 -0.00000000000E+00 -0.00000000000E+00 -0.67761199867E+03  0.67761199867E+03  0.00000000000E+00 0.  1.
        -24    2    1    2    0    0  0.56575403419E+02  0.50330029098E+01 -0.53236583939E+03  0.54124750597E+03  0.79431532623E+02 0.  0.
         25    2    1    2    0    0 -0.66292447972E+02  0.12872425655E+01 -0.97691175466E+02  0.17200882575E+03  0.12508846757E+03 0.  0.
         24    2    1    2    0    0  0.97170445525E+01 -0.63202454753E+01  0.19523641122E+03  0.20714706199E+03  0.68251612197E+02 0.  0.
        -11    1    5    5    0    0  0.21021752881E+02  0.25276374440E+02  0.67562176771E+02  0.75136255757E+02  0.00000000000E+00 0.  1.
         12    1    5    5    0    0 -0.11304708329E+02 -0.31596619915E+02  0.12767423444E+03  0.13201080623E+03  0.00000000000E+00 0. -1.
         11    1    3    3    0    0 -0.19081623312E+02  0.71400537845E+01 -0.77783040940E+02  0.80407028139E+02  0.00000000000E+00 0. -1.
        -12    1    3    3    0    0  0.75657026731E+02 -0.21070508747E+01 -0.45458279846E+03  0.46084047783E+03  0.00000000000E+00 0.  1.
          5    1    4    4  501    0 -0.24647648223E+02 -0.43724092741E+02  0.67574174507E+01  0.50817693174E+02  0.41800000000E+01 0. -1.
         -5    1    4    4    0  501 -0.41644799749E+02  0.45011335306E+02 -0.10444859292E+03  0.12119113257E+03  0.41800000000E+01 0. -1.
</event>
<event>
11    1  0.8479398E-009  0.1338829E+03  0.7561462E-02  0.1114588E+00
         22   -1    0    0    0    0  0.00000000000E+00  0.00000000000E+00  0.25714909263E+02  0.25714909263E+02  0.00000000000E+00 0.  1.
         22   -1    0    0    0    0 -0.00000000000E+00 -0.00000000000E+00 -0.18392370226E+04  0.18392370226E+04  0.00000000000E+00 0.  1.
        -24    2    1    2    0    0  0.85809843105E+01 -0.21616355233E+02 -0.84956147289E+03  0.85366219302E+03  0.80271685276E+02 0.  0.
         25    2    1    2    0    0 -0.84613306824E+01  0.66810388240E+02 -0.86686067971E+03  0.87842484355E+03  0.12509015003E+03 0.  0.
         24    2    1    2    0    0 -0.11965362810E+00 -0.45194033008E+02 -0.97099960749E+02  0.13286489532E+03  0.78626732689E+02 0.  0.
        -11    1    5    5    0    0 -0.13695608023E+02 -0.54075760782E+02 -0.29022981626E+02  0.62881563639E+02  0.00000000000E+00 0.  1.
         12    1    5    5    0    0  0.13575954395E+02  0.88817277744E+01 -0.68076979123E+02  0.69983331676E+02  0.00000000000E+00 0. -1.
         11    1    3    3    0    0  0.10401240444E+02  0.29045727982E+02 -0.41711872992E+03  0.41825814394E+03  0.00000000000E+00 0. -1.
        -12    1    3    3    0    0 -0.18202561334E+01 -0.50662083215E+02 -0.43244274297E+03  0.43540404908E+03  0.00000000000E+00 0.  1.
          5    1    4    4  501    0 -0.49427784991E+01 -0.35182821617E+02 -0.14365910631E+03  0.14804618611E+03  0.41800000000E+01 0. -1.
         -5    1    4    4    0  501 -0.35185521833E+01  0.10199320986E+03 -0.72320157340E+03  0.73037865744E+03  0.41800000000E+01 0. -1.
</event>
<event>
11    1  0.8479398E-009  0.2321231E+03  0.7561462E-02  0.1033878E+00
         22   -1    0    0    0    0  0.00000000000E+00  0.00000000000E+00  0.12794906916E+04  0.12794906916E+04  0.00000000000E+00 0. -1.
         22   -1    0    0    0    0 -0.00000000000E+00 -0.00000000000E+00 -0.14833651452E+04  0.14833651452E+04  0.00000000000E+00 0. -1.
        -24    2    1    2    0    0  0.19088300886E+03  0.41583258193E+02 -0.14334354028E+04  0.14489455251E+04  0.80873916628E+02 0.  0.
         25    2    1    2    0    0 -0.21502446667E+03  0.27272706153E+02  0.36251970128E+03  0.44050819887E+03  0.12509043804E+03 0.  0.
         24    2    1    2    0    0  0.24141457806E+02 -0.68855964346E+02  0.86704124792E+03  0.87340211289E+03  0.75807462739E+02 0.  0.
        -13    1    5    5    0    0 -0.15073126903E+02  0.22271134146E+01  0.48310487550E+02  0.50656316448E+02  0.00000000000E+00 0.  1.
         14    1    5    5    0    0  0.39214584709E+02 -0.71083077761E+02  0.81873076037E+03  0.82274579644E+03  0.00000000000E+00 0. -1.
         13    1    3    3    0    0  0.14513001677E+03 -0.50562697935E+01 -0.92503606854E+03  0.93636532172E+03  0.00000000000E+00 0. -1.
        -14    1    3    3    0    0  0.45752992090E+02  0.46639527986E+02 -0.50839933425E+03  0.51258020340E+03  0.00000000000E+00 0.  1.
          5    1    4    4  501    0  0.21073774846E+01  0.14410498031E+02 -0.27119614557E+01  0.15392551065E+02  0.41800000000E+01 0.  1.
         -5    1    4    4    0  501 -0.21713184415E+03  0.12862208122E+02  0.36523166274E+03  0.42511564780E+03  0.41800000000E+01 0.  1.
</event>
<event>
11    1  0.8479398E-009  0.1293236E+03  0.7561462E-02  0.1120103E+00
         22   -1    0    0    0    0  0.00000000000E+00  0.00000000000E+00  0.21116237568E+03  0.21116237568E+03  0.00000000000E+00 0. -1.
         22   -1    0    0    0    0 -0.00000000000E+00 -0.00000000000E+00 -0.10527278703E+04  0.10527278703E+04  0.00000000000E+00 0.  1.
         24    2    1    2    0    0  0.28155109972E+02  0.18759300106E+02 -0.85522176828E+03  0.85962306245E+03  0.80018216724E+02 0.  0.
         25    2    1    2    0    0 -0.25905050760E+02 -0.13688408055E+01 -0.16439600361E+03  0.20820070909E+03  0.12509414008E+03 0.  0.
        -24    2    1    2    0    0 -0.22500592122E+01 -0.17390459300E+02  0.17805227729E+03  0.19606647442E+03  0.80199489413E+02 0.  0.
        -13    1    3    3    0    0  0.31719382139E+02  0.44468307885E+02 -0.40679103873E+03  0.41044183364E+03  0.00000000000E+00 0.  1.
         14    1    3    3    0    0 -0.35642721666E+01 -0.25709007779E+02 -0.44843072954E+03  0.44918122881E+03  0.00000000000E+00 0. -1.
         13    1    5    5    0    0 -0.12567492862E+02 -0.18758535159E+02  0.18310861005E+03  0.18449549478E+03  0.00000000000E+00 0. -1.
        -14    1    5    5    0    0  0.10317433649E+02  0.13680758587E+01 -0.50563327685E+01  0.11570979636E+02  0.00000000000E+00 0.  1.
          5    1    4    4  501    0 -0.35243144272E+02  0.22224255649E+02 -0.69803238138E-01  0.41874503339E+02  0.41800000000E+01 0.  1.
         -5    1    4    4    0  501  0.93380935124E+01 -0.23593096455E+02 -0.16432620037E+03  0.16632620575E+03  0.41800000000E+01 0.  1.
</event>
<event>
11    1  0.8479398E-009  0.1600496E+03  0.7561462E-02  0.1087031E+00
         22   -1    0    0    0    0  0.00000000000E+00  0.00000000000E+00  0.18559987236E+04  0.18559987236E+04  0.00000000000E+00 0. -1.
         22   -1    0    0    0    0 -0.00000000000E+00 -0.00000000000E+00 -0.35588648843E+03  0.35588648843E+03  0.00000000000E+00 0. -1.
        -24    2    1    2    0    0  0.20341669583E+02  0.94386410559E+02 -0.30054529251E+03  0.32575880501E+03  0.80428528354E+02 0.  0.
         25    2    1    2    0    0 -0.36031205027E+02 -0.17087439292E+03  0.24608566827E+03  0.32665143976E+03  0.12508677420E+03 0.  0.
         24    2    1    2    0    0  0.15689535444E+02  0.76487982363E+02  0.15545718594E+04  0.15594749672E+04  0.95770217029E+02 0.  0.
        -11    1    5    5    0    0  0.43445132635E+02  0.11257776193E+02  0.35752453841E+03  0.36033042148E+03  0.00000000000E+00 0.  1.
         12    1    5    5    0    0 -0.27755597191E+02  0.65230206169E+02  0.11970473210E+04  0.11991445458E+04  0.00000000000E+00 0. -1.
         11    1    3    3    0    0  0.11109071837E+02  0.41475757296E+02 -0.24408270390E+03  0.24783062011E+03  0.00000000000E+00 0. -1.
        -12    1    3    3    0    0  0.92325977467E+01  0.52910653263E+02 -0.56462588613E+02  0.77928184906E+02  0.00000000000E+00 0.  1.
          5    1    4    4  501    0  0.12388737207E+02 -0.16402675275E+03  0.17438965249E+03  0.23976546817E+03  0.41800000000E+01 0. -1.
         -5    1    4    4    0  501 -0.48419942235E+02 -0.68476401676E+01  0.71696015781E+02  0.86885971599E+02  0.41800000000E+01 0. -1.
</event>
<event>
11    1  0.8479398E-009  0.1849561E+03  0.7561462E-02  0.1065703E+00
         22   -1    0    0    0    0  0.00000000000E+00  0.00000000000E+00  0.40942199210E+03  0.40942199210E+03  0.00000000000E+00 0.  1.
         22   -1    0    0    0    0 -0.00000000000E+00 -0.00000000000E+00 -0.11298842310E+04  0.11298842310E+04  0.00000000000E+00 0.  1.
         24    2    1    2    0    0 -0.11306251030E+03 -0.69157849809E+02 -0.90021647375E+03  0.91397067597E+03  0.85946247706E+02 0.  0.
         25    2    1    2    0    0  0.13389890178E+03  0.91961813782E+02 -0.16927715899E+03  0.26587260465E+03  0.12509034437E+03 0.  0.
        -24    2    1    2    0    0 -0.20836391482E+02 -0.22803963973E+02  0.34903139389E+03  0.35946294243E+03  0.80227907129E+02 0.  0.
        -11    1    3    3    0    0 -0.37358965211E+02 -0.37566340202E+02 -0.61254807762E+03  0.61483499380E+03  0.00000000000E+00 0.  1.
         12    1    3    3    0    0 -0.75703545088E+02 -0.31591509607E+02 -0.28766839613E+03  0.29913568218E+03  0.00000000000E+00 0. -1.
         11    1    5    5    0    0  0.39102750726E+01 -0.34841882353E+02  0.62902215818E+02  0.72013441606E+02  0.00000000000E+00 0. -1.
        -12    1    5    5    0    0 -0.24746666554E+02  0.12037918380E+02  0.28612917807E+03  0.28744950083E+03  0.00000000000E+00 0.  1.
          5    1    4    4  501    0  0.47204374091E+02  0.86108457827E+02 -0.14568147811E+03  0.17573697649E+03  0.41800000000E+01 0. -1.
         -5    1    4    4    0  501  0.86694527690E+02  0.58533559553E+01 -0.23595680881E+02  0.90135628159E+02  0.41800000000E+01 0. -1.
</event>
<event>
11    1  0.8479398E-009  0.1365714E+03  0.7561462E-02  0.1111449E+00
         22   -1    0    0    0    0  0.00000000000E+00  0.00000000000E+00  0.26136256941E+03  0.26136256941E+03  0.00000000000E+00 0.  1.
         22   -1    0    0    0    0 -0.00000000000E+00 -0.00000000000E+00 -0.83837102548E+03  0.83837102548E+03  0.00000000000E+00 0. -1.
         24    2    1    2    0    0  0.53572984918E+02 -0.16330986112E+02 -0.76765002964E+03  0.77377485757E+03  0.79398969573E+02 0.  0.
         25    2    1    2    0    0 -0.26247921518E+02  0.56055257033E+01  0.12933504274E+02  0.12859671075E+03  0.12509781445E+03 0.  0.
        -24    2    1    2    0    0 -0.27325063400E+02  0.10725460409E+02  0.17770806930E+03  0.19736202658E+03  0.80684056960E+02 0.  0.
        -13    1    3    3    0    0 -0.48361200605E+01  0.22961310313E+02 -0.29233556114E+03  0.29327579194E+03  0.00000000000E+00 0.  1.
         14    1    3    3    0    0  0.58409104979E+02 -0.39292296425E+02 -0.47531446850E+03  0.48049906563E+03  0.00000000000E+00 0. -1.
         11    1    5    5    0    0 -0.27407970627E+02  0.44130671737E+02  0.11835326471E+03  0.12925249827E+03  0.00000000000E+00 0. -1.
        -12    1    5    5    0    0  0.82907226591E-01 -0.33405211328E+02  0.59354804591E+02  0.68109528302E+02  0.00000000000E+00 0.  1.
          5    1    4    4  501    0 -0.56159463615E+02  0.14950767934E+02 -0.37343598186E+02  0.69205690090E+02  0.41800000000E+01 0. -1.
         -5    1    4    4    0  501  0.29911542097E+02 -0.93452422308E+01  0.50277102460E+02  0.59391020657E+02  0.41800000000E+01 0. -1.
</event>
<event>
11    1  0.8479398E-009  0.1733209E+03  0.7561462E-02  0.1075177E+00
         22   -1    0    0    0    0  0.00000000000E+00  0.00000000000E+00  0.70110228782E+02  0.70110228782E+02  0.00000000000E+00 0.  1.
         22   -1    0    0    0    0 -0.00000000000E+00 -0.00000000000E+00 -0.17130472168E+04  0.17130472168E+04  0.00000000000E+00 0.  1.
         24    2    1    2    0    0  0.28334385975E+02  0.19665087364E+02 -0.10267952699E+04  0.10303972014E+04  0.78868962743E+02 0.  0.
         25    2    1    2    0    0 -0.87479847684E+01  0.10197540864E+03 -0.57924123364E+03  0.60136863028E+03  0.12509321141E+03 0.  0.
        -24    2    1    2    0    0 -0.19586401207E+02 -0.12164049600E+03 -0.36900484478E+02  0.15139161389E+03  0.79860738927E+02 0.  0.
        -11    1    3    3    0    0  0.47816597890E+02 -0.72711985722E+01 -0.76023858519E+03  0.76177555997E+03  0.00000000000E+00 0.  1.
         12    1    3    3    0    0 -0.19482211915E+02  0.26936285937E+02 -0.26655668468E+03  0.26862164140E+03  0.00000000000E+00 0. -1.
         13    1    5    5    0    0 -0.34445615628E+02 -0.12701112355E+02 -0.12366340822E+02  0.38739451162E+02  0.00000000000E+00 0. -1.
        -14    1    5    5    0    0  0.14859214421E+02 -0.10893938365E+03 -0.24534143657E+02  0.11265216273E+03  0.00000000000E+00 0.  1.
          5    1    4    4  501    0  0.48623106938E+02  0.56197404590E+02 -0.17004405794E+03  0.18562006586E+03  0.41800000000E+01 0.  1.
         -5    1    4    4    0  501 -0.57371091706E+02  0.45778004048E+02 -0.40919717570E+03  0.41574856442E+03  0.41800000000E+01 0.  1.
</event>
<event>
11    1  0.8479398E-009  0.1470487E+03  0.7561462E-02  0.1099933E+00
         22   -1    0    0    0    0  0.00000000000E+00  0.00000000000E+00  0.21910720484E+03  0.21910720484E+03  0.00000000000E+00 0.  1.
         22   -1    0    0    0    0 -0.00000000000E+00 -0.00000000000E+00 -0.52144693182E+03  0.52144693182E+03  0.00000000000E+00 0.  1.
         24    2    1    2    0    0 -0.34819720749E+02 -0.59152578650E+02 -0.42302093307E+03  0.43554982519E+03  0.77752812759E+02 0.  0.
         25    2    1    2    0    0 -0.31722678264E+02 -0.10289764148E+02 -0.23707625049E+01  0.12948648818E+03  0.12509565357E+03 0.  0.
        -24    2    1    2    0    0  0.66542399014E+02  0.69442342798E+02  0.12305196859E+03  0.17551782330E+03  0.80091132352E+02 0.  0.
        -13    1    3    3    0    0 -0.44493629103E+02 -0.22432477070E+02 -0.34713802337E+03  0.35069603124E+03  0.00000000000E+00 0.  1.
         14    1    3    3    0    0  0.96739083535E+01 -0.36720101579E+02 -0.75882909699E+02  0.84853793947E+02  0.00000000000E+00 0. -1.
         13    1    5    5    0    0  0.29546334479E+02  0.59079722017E+02  0.25736203603E+02  0.70892535648E+02  0.00000000000E+00 0. -1.
        -14    1    5    5    0    0  0.36996064535E+02  0.10362620780E+02  0.97315764989E+02  0.10462528765E+03  0.00000000000E+00 0.  1.
          5    1    4    4  501    0 -0.14135100772E+02  0.42548738337E+02  0.39331855831E+02  0.59788489619E+02  0.41800000000E+01 0.  1.
         -5    1    4    4    0  501 -0.17587577492E+02 -0.52838502484E+02 -0.41702618336E+02  0.69697998557E+02  0.41800000000E+01 0.  1.
</event>
<event>
11    1  0.8479398E-009  0.1274817E+03  0.7561462E-02  0.1122402E+00
         22   -1    0    0    0    0  0.00000000000E+00  0.00000000000E+00  0.19617625998E+03  0.19617625998E+03  0.00000000000E+00 0.  1.
         22   -1    0    0    0    0 -0.00000000000E+00 -0.00000000000E+00 -0.19307149187E+04  0.19307149187E+04  0.00000000000E+00 0. -1.
        -24    2    1    2    0    0  0.17532801913E+02 -0.13482236833E+02 -0.15438367754E+04  0.15461976513E+04  0.82498593819E+02 0.  0.
         25    2    1    2    0    0 -0.36252955313E+02  0.34476361014E+02 -0.36423800759E+03  0.38835464343E+03  0.12508839537E+03 0.  0.
         24    2    1    2    0    0  0.18720153400E+02 -0.20994124181E+02  0.17353612430E+03  0.19233888392E+03  0.78027318515E+02 0.  0.
        -13    1    5    5    0    0 -0.15530749751E+02  0.21776754658E+02  0.74481709513E+02  0.79138841811E+02  0.00000000000E+00 0.  1.
         14    1    5    5    0    0  0.34250903151E+02 -0.42770878839E+02  0.99054414791E+02  0.11320004211E+03  0.00000000000E+00 0. -1.
         11    1    3    3    0    0  0.19393655629E+02 -0.26062709503E+02 -0.15046143252E+04  0.15049649983E+04  0.00000000000E+00 0. -1.
        -12    1    3    3    0    0 -0.18608537164E+01  0.12580472671E+02 -0.39222450212E+02  0.41232652956E+02  0.00000000000E+00 0.  1.
          5    1    4    4  501    0 -0.64991939548E+02  0.40268266548E+02 -0.12013439836E+03  0.14246133358E+03  0.41800000000E+01 0. -1.
         -5    1    4    4    0  501  0.28738984235E+02 -0.57919055341E+01 -0.24410360923E+03  0.24589330984E+03  0.41800000000E+01 0. -1.
</event>
<event>
11    1  0.8479398E-009  0.1548117E+03  0.7561462E-02  0.1092061E+00
         22   -1    0    0    0    0  0.00000000000E+00  0.00000000000E+00  0.37814214582E+03  0.37814214582E+03  0.00000000000E+00 0. -1.
         22   -1    0    0    0    0 -0.00000000000E+00 -0.00000000000E+00 -0.51983116495E+03  0.51983116495E+03  0.00000000000E+00 0. -1.
        -24    2    1    2    0    0  0.85394013351E+01 -0.79201240263E+02 -0.30825530815E+03  0.32843460516E+03  0.80636201745E+02 0.  0.
         25    2    1    2    0    0  0.54672642973E+01  0.14802181189E+03 -0.14399323706E+03  0.24149964755E+03  0.12509068581E+03 0.  0.
         24    2    1    2    0    0 -0.14006665632E+02 -0.68820571628E+02  0.31055952608E+03  0.32803905805E+03  0.78930010827E+02 0.  0.
        -11    1    5    5    0    0  0.16107145750E+02 -0.60467570165E+02  0.12415635963E+03  0.13903441596E+03  0.00000000000E+00 0.  1.
         12    1    5    5    0    0 -0.30113811383E+02 -0.83530014636E+01  0.18640316645E+03  0.18900464209E+03  0.00000000000E+00 0. -1.
         11    1    3    3    0    0  0.38014139847E+02 -0.47723634769E+02 -0.11244059897E+03  0.12792774696E+03  0.00000000000E+00 0. -1.
        -12    1    3    3    0    0 -0.29474738512E+02 -0.31477605494E+02 -0.19581470917E+03  0.20050685820E+03  0.00000000000E+00 0.  1.
          5    1    4    4  501    0  0.37980079389E+02  0.94418610634E+01 -0.71708364846E+02  0.81799738139E+02  0.41800000000E+01 0.  1.
         -5    1    4    4    0  501 -0.32512815092E+02  0.13857995083E+03 -0.72284872211E+02  0.15969990941E+03  0.41800000000E+01 0.  1.
</event>
<event>
11    1  0.8479398E-009  0.1441490E+03  0.7561462E-02  0.1103012E+00
         22   -1    0    0    0    0  0.00000000000E+00  0.00000000000E+00  0.71528774379E+03  0.71528774379E+03  0.00000000000E+00 0. -1.
         22   -1    0    0    0    0 -0.00000000000E+00 -0.00000000000E+00 -0.40470561728E+03  0.40470561728E+03  0.00000000000E+00 0.  1.
        -24    2    1    2    0    0 -0.35282567298E+02 -0.50646365826E+02 -0.36610232046E+03  0.37980175993E+03  0.80053443856E+02 0.  0.
         25    2    1    2    0    0 -0.42090313360E+02  0.26508084724E+02  0.15274000375E+03  0.20356783468E+03  0.12504431828E+03 0.  0.
         24    2    1    2    0    0  0.77372880658E+02  0.24138281102E+02  0.52394444321E+03  0.53662376647E+03  0.82934117759E+02 0.  0.
        -13    1    5    5    0    0  0.22602479590E+02 -0.30275572117E+02  0.20631275862E+03  0.20974374059E+03  0.00000000000E+00 0.  1.
         14    1    5    5    0    0  0.54770401068E+02  0.54413853220E+02  0.31763168460E+03  0.32688002587E+03  0.00000000000E+00 0. -1.
         13    1    3    3    0    0 -0.13417760807E+02 -0.21925951535E+02 -0.22067683364E+02  0.33878699869E+02  0.00000000000E+00 0. -1.
        -14    1    3    3    0    0 -0.21864806491E+02 -0.28720414291E+02 -0.34403463709E+03  0.34592306006E+03  0.00000000000E+00 0.  1.
          5    1    4    4  501    0 -0.50214276599E+02  0.70686903632E+02  0.80442027045E+02  0.11834907703E+03  0.41800000000E+01 0.  1.
         -5    1    4    4    0  501  0.81239632388E+01 -0.44178818908E+02  0.72297976705E+02  0.85218757645E+02  0.41800000000E+01 0.  1.
</event>
<event>
11    1  0.8479398E-009  0.2197737E+03  0.7561462E-02  0.1041359E+00
         22   -1    0    0    0    0  0.00000000000E+00  0.00000000000E+00  0.32533168427E+03  0.32533168427E+03  0.00000000000E+00 0. -1.
         22   -1    0    0    0    0 -0.00000000000E+00 -0.00000000000E+00 -0.80035861770E+03  0.80035861770E+03  0.00000000000E+00 0. -1.
         24    2    1    2    0    0  0.37785056271E+02 -0.32530322139E+02 -0.62483255598E+03  0.63204705274E+03  0.81128426192E+02 0.  0.
         25    2    1    2    0    0 -0.58363047118E+02  0.20239561249E+03 -0.10976699747E+02  0.24523303555E+03  0.12509406287E+03 0.  0.
        -24    2    1    2    0    0  0.20577990847E+02 -0.16986529035E+03  0.16078232229E+03  0.24841021367E+03  0.81111087543E+02 0.  0.
        -13    1    3    3    0    0  0.32133960591E+02  0.22358380305E+02 -0.21761347494E+03  0.22110656496E+03  0.00000000000E+00 0.  1.
         14    1    3    3    0    0  0.56510956806E+01 -0.54888702444E+02 -0.40721908103E+03  0.41094048778E+03  0.00000000000E+00 0. -1.
         13    1    5    5    0    0 -0.21772024044E+02 -0.62083324197E+02  0.93981611375E+02  0.11472098087E+03  0.00000000000E+00 0. -1.
        -14    1    5    5    0    0  0.42350014891E+02 -0.10778196616E+03  0.66800710913E+02  0.13368923281E+03  0.00000000000E+00 0.  1.
          5    1    4    4  501    0  0.26584100700E+02  0.19101074224E+01 -0.45446640855E+01  0.27358532345E+02  0.41800000000E+01 0. -1.
         -5    1    4    4    0  501 -0.84947147819E+02  0.20048550507E+03 -0.64320356618E+01  0.21787450321E+03  0.41800000000E+01 0. -1.
</event>
<event>
11    1  0.8479398E-009  0.1496237E+03  0.7561462E-02  0.1097264E+00
         22   -1    0    0    0    0  0.00000000000E+00  0.00000000000E+00  0.62719319668E+03  0.62719319668E+03  0.00000000000E+00 0.  1.
         22   -1    0    0    0    0 -0.00000000000E+00 -0.00000000000E+00 -0.15404687479E+04  0.15404687479E+04  0.00000000000E+00 0. -1.
         24    2    1    2    0    0 -0.52843222118E+02 -0.61565742640E+01 -0.14775924036E+04  0.14807060312E+04  0.79879471528E+02 0.  0.
         25    2    1    2    0    0  0.28476339448E+02 -0.74414043799E+02  0.45452642517E+02  0.15511885332E+03  0.12509022392E+03 0.  0.
        -24    2    1    2    0    0  0.24366882669E+02  0.80570618063E+02  0.51886420992E+03  0.53183706006E+03  0.80902537964E+02 0.  0.
        -11    1    3    3    0    0 -0.21431141553E+02  0.70605327709E+01 -0.93140440336E+02  0.95834683582E+02  0.00000000000E+00 0.  1.
         12    1    3    3    0    0 -0.31412080564E+02 -0.13217107035E+02 -0.13844519633E+04  0.13848713476E+04  0.00000000000E+00 0. -1.
         13    1    5    5    0    0 -0.13104404137E+02 -0.77310573181E+01  0.29853655402E+02  0.33507243932E+02  0.00000000000E+00 0. -1.
        -14    1    5    5    0    0  0.37471286807E+02  0.88301675381E+02  0.48901055452E+03  0.49832981613E+03  0.00000000000E+00 0.  1.
          5    1    4    4  501    0  0.41194353334E+02 -0.64881520634E+02  0.83567674792E+02  0.11361168574E+03  0.41800000000E+01 0. -1.
         -5    1    4    4    0  501 -0.12718013886E+02 -0.95325231656E+01 -0.38115032275E+02  0.41507167579E+02  0.41800000000E+01 0. -1.
</event>
<event>
11    1  0.8479398E-009  0.1284540E+03  0.7561462E-02  0.1121183E+00
         22   -1    0    0    0    0  0.00000000000E+00  0.00000000000E+00  0.99901671164E+02  0.99901671164E+02  0.00000000000E+00 0. -1.
         22   -1    0    0    0    0 -0.00000000000E+00 -0.00000000000E+00 -0.96646257561E+03  0.96646257561E+03  0.00000000000E+00 0.  1.
        -24    2    1    2    0    0  0.82565534295E+01 -0.26113555875E+02 -0.56182504029E+03  0.56841553817E+03  0.81845950825E+02 0.  0.
         25    2    1    2    0    0  0.19668142603E+02  0.14395311917E+02 -0.36601124813E+03  0.38756219992E+03  0.12508462820E+03 0.  0.
         24    2    1    2    0    0 -0.27924696032E+02  0.11718243958E+02  0.61275383965E+02  0.11038650869E+03  0.86679886536E+02 0.  0.
        -13    1    5    5    0    0 -0.13999181480E+02 -0.28896804689E+01 -0.21149369465E+02  0.25526910587E+02  0.00000000000E+00 0.  1.
         14    1    5    5    0    0 -0.13925514552E+02  0.14607924427E+02  0.82424753430E+02  0.84859598099E+02  0.00000000000E+00 0. -1.
         11    1    3    3    0    0 -0.47427137609E+01  0.48255471443E+01 -0.13037042828E+01  0.68904922841E+01  0.00000000000E+00 0. -1.
        -12    1    3    3    0    0  0.12999267190E+02 -0.30939103020E+02 -0.56052133600E+03  0.56152504589E+03  0.00000000000E+00 0.  1.
          5    1    4    4  501    0  0.38448811137E+01 -0.17379578749E+02 -0.34622793394E+03  0.34671037987E+03  0.41800000000E+01 0.  1.
         -5    1    4    4    0  501  0.15823261489E+02  0.31774890666E+02 -0.19783314184E+02  0.40851820047E+02  0.41800000000E+01 0.  1.
</event>
<event>
11    1  0.8479398E-009  0.1570676E+03  0.7561462E-02  0.1089868E+00
         22   -1    0    0    0    0  0.00000000000E+00  0.00000000000E+00  0.13495575926E+04  0.13495575926E+04  0.00000000000E+00 0.  1.
         22   -1    0    0    0    0 -0.00000000000E+00 -0.00000000000E+00 -0.12290903230E+04  0.12290903230E+04  0.00000000000E+00 0. -1.
         24    2    1    2    0    0  0.54037592102E+02  0.80033505190E+02 -0.11607374956E+04  0.11679344237E+04  0.86219840879E+02 0.  0.
         25    2    1    2    0    0 -0.28246188518E+02 -0.54911448279E+02  0.13436354080E+02  0.14014505066E+03  0.12508791027E+03 0.  0.
        -24    2    1    2    0    0 -0.25791403584E+02 -0.25122056911E+02  0.12677684112E+04  0.12705684412E+04  0.76230605225E+02 0.  0.
        -11    1    3    3    0    0 -0.43347885811E+01  0.66446105891E+02 -0.48599515412E+03  0.49053559015E+03  0.00000000000E+00 0.  1.
         12    1    3    3    0    0  0.58372380683E+02  0.13587399299E+02 -0.67474234152E+03  0.67739883354E+03  0.00000000000E+00 0. -1.
         13    1    5    5    0    0 -0.16294224403E+02  0.75338473153E+01  0.68354467691E+02  0.70672440581E+02  0.00000000000E+00 0. -1.
        -14    1    5    5    0    0 -0.94971791810E+01 -0.32655904226E+02  0.11994139435E+04  0.11998960006E+04  0.00000000000E+00 0.  1.
          5    1    4    4  501    0  0.23858041277E+02 -0.54437879464E+02 -0.34812584907E+02  0.69007806240E+02  0.41800000000E+01 0.  1.
         -5    1    4    4    0  501 -0.52104229795E+02 -0.47356881461E+00  0.48248938987E+02  0.71137244418E+02  0.41800000000E+01 0.  1.
</event>
<event>
11    1  0.8479398E-009  0.1355092E+03  0.7561462E-02  0.1112679E+00
         22   -1    0    0    0    0  0.00000000000E+00  0.00000000000E+00  0.67224474561E+03  0.67224474561E+03  0.00000000000E+00 0.  1.
         22   -1    0    0    0    0 -0.00000000000E+00 -0.00000000000E+00 -0.11911100215E+04  0.11911100215E+04  0.00000000000E+00 0.  1.
         24    2    1    2    0    0 -0.29724106762E+01 -0.23071186085E+02 -0.89462713550E+03  0.89945598997E+03  0.90123534467E+02 0.  0.
         25    2    1    2    0    0 -0.43708574476E+02  0.45971648302E+02 -0.27367145674E+03  0.30752206705E+03  0.12509965451E+03 0.  0.
        -24    2    1    2    0    0  0.46680985153E+02 -0.22900462217E+02  0.64943331635E+03  0.65637671010E+03  0.79769716251E+02 0.  0.
        -13    1    3    3    0    0  0.22586162696E+02 -0.20739871048E+02 -0.81935943243E+03  0.81993301952E+03  0.00000000000E+00 0.  1.
         14    1    3    3    0    0 -0.25558573373E+02 -0.23313150377E+01 -0.75267703072E+02  0.79522970445E+02  0.00000000000E+00 0. -1.
         13    1    5    5    0    0 -0.77825881316E+01 -0.33042455190E+02  0.14551081070E+03  0.14941809981E+03  0.00000000000E+00 0. -1.
        -14    1    5    5    0    0  0.54463573284E+02  0.10141992973E+02  0.50392250565E+03  0.50695861028E+03  0.00000000000E+00 0.  1.
          5    1    4    4  501    0  0.19211974902E+02  0.11549749106E+02 -0.21087219237E+03  0.21210151013E+03  0.41800000000E+01 0. -1.
         -5    1    4    4    0  501 -0.62920549379E+02  0.34421899196E+02 -0.62799264376E+02  0.95420556929E+02  0.41800000000E+01 0. -1.
</event>
<event>
11    1  0.8479398E-009  0.1463413E+03  0.7561462E-02  0.1100677E+00
         22   -1    0    0    0    0  0.00000000000E+00  0.00000000000E+00  0.73463688327E+03  0.73463688327E+03  0.00000000000E+00 0. -1.
         22   -1    0    0    0    0 -0.00000000000E+00 -0.00000000000E+00 -0.10840194468E+03  0.10840194468E+03  0.00000000000E+00 0.  1.
        -24    2    1    2    0    0 -0.35444365210E+02 -0.11936416163E+02 -0.59019259425E+02  0.10521338633E+03  0.78662587187E+02 0.  0.
         25    2    1    2    0    0 -0.48138157999E+02 -0.80956504606E+01  0.21519339853E+03  0.25364920601E+03  0.12508756582E+03 0.  0.
         24    2    1    2    0    0  0.83582523209E+02  0.20032066623E+02  0.47006079948E+03  0.48417623562E+03  0.77988140436E+02 0.  0.
        -13    1    5    5    0    0 -0.56045713987E+01 -0.12525543216E+02  0.20296417596E+02  0.24499898381E+02  0.00000000000E+00 0.  1.
         14    1    5    5    0    0  0.89187094608E+02  0.32557609840E+02  0.44976438189E+03  0.45967633724E+03  0.00000000000E+00 0. -1.
         13    1    3    3    0    0  0.13275558228E+02 -0.18057882730E+02  0.64999959916E+01  0.23336184839E+02  0.00000000000E+00 0. -1.
        -14    1    3    3    0    0 -0.48719923439E+02  0.61214665672E+01 -0.65519255417E+02  0.81877201486E+02  0.00000000000E+00 0.  1.
          5    1    4    4  501    0  0.26950210486E+02 -0.36759003514E+02  0.12315521611E+03  0.13138575965E+03  0.41800000000E+01 0. -1.
         -5    1    4    4    0  501 -0.75088368484E+02  0.28663353053E+02  0.92038182424E+02  0.12226344635E+03  0.41800000000E+01 0. -1.
</event>
<event>
11    1  0.8479398E-009  0.3656169E+03  0.7561462E-02  0.9757035E-01
         22   -1    0    0    0    0  0.00000000000E+00  0.00000000000E+00  0.97050218600E+03  0.97050218600E+03  0.00000000000E+00 0.  1.
         22   -1    0    0    0    0 -0.00000000000E+00 -0.00000000000E+00 -0.49548845897E+03  0.49548845897E+03  0.00000000000E+00 0. -1.
        -24    2    1    2    0    0  0.17609367170E+02 -0.73480578116E+02 -0.27888826423E+03  0.29934230836E+03  0.78215525797E+02 0.  0.
         25    2    1    2    0    0  0.25372726923E+03  0.27393002564E+03  0.70074951347E+02  0.39996572243E+03  0.12508754620E+03 0.  0.
         24    2    1    2    0    0 -0.27133663640E+03 -0.20044944753E+03  0.68382703991E+03  0.76668261419E+03  0.79870264240E+02 0.  0.
        -11    1    5    5    0    0 -0.24188157782E+03 -0.16181467842E+03  0.63121563160E+03  0.69507111968E+03  0.00000000000E+00 0.  1.
         12    1    5    5    0    0 -0.29455058584E+02 -0.38634769109E+02  0.52611408310E+02  0.71611494501E+02  0.00000000000E+00 0. -1.
         13    1    3    3    0    0 -0.12979938274E+02 -0.24524637746E+02 -0.19818637793E+03  0.20011940698E+03  0.00000000000E+00 0. -1.
        -14    1    3    3    0    0  0.30589305444E+02 -0.48955940369E+02 -0.80701886300E+02  0.99222901375E+02  0.00000000000E+00 0.  1.
          5    1    4    4  501    0  0.21654361731E+02  0.23796573555E+02  0.48104246238E+02  0.58023091965E+02  0.41800000000E+01 0. -1.
         -5    1    4    4    0  501  0.23207290750E+03  0.25013345209E+03  0.21970705109E+02  0.34194263047E+03  0.41800000000E+01 0. -1.
</event>
<event>
11    1  0.8479398E-009  0.3274945E+03  0.7561462E-02  0.9891827E-01
         22   -1    0    0    0    0  0.00000000000E+00  0.00000000000E+00  0.93565946995E+03  0.93565946995E+03  0.00000000000E+00 0.  1.
         22   -1    0    0    0    0 -0.00000000000E+00 -0.00000000000E+00 -0.35028591300E+03  0.35028591300E+03  0.00000000000E+00 0. -1.
        -24    2    1    2    0    0 -0.14561729966E+03 -0.24485037383E+02 -0.15577880538E+03  0.22962880222E+03  0.81599237654E+02 0.  0.
         25    2    1    2    0    0  0.39791373153E+03  0.11255049268E+03  0.27192633638E+03  0.51048403967E+03  0.12508825365E+03 0.  0.
         24    2    1    2    0    0 -0.25229643187E+03 -0.88065455293E+02  0.46922602594E+03  0.54583254106E+03  0.79693698044E+02 0.  0.
        -13    1    5    5    0    0 -0.67074550783E+02 -0.25482327817E+02  0.20460721985E+03  0.21682356608E+03  0.00000000000E+00 0.  1.
         14    1    5    5    0    0 -0.18522188109E+03 -0.62583127476E+02  0.26461880609E+03  0.32900897498E+03  0.00000000000E+00 0. -1.
         11    1    3    3    0    0 -0.91191602098E+02 -0.47818069301E+02 -0.66771736826E+02  0.12272302507E+03  0.00000000000E+00 0. -1.
        -12    1    3    3    0    0 -0.54425697563E+02  0.23333031918E+02 -0.89007068553E+02  0.10690577714E+03  0.00000000000E+00 0.  1.
          5    1    4    4  501    0  0.23846092592E+03  0.11909145292E+03  0.12874206154E+03  0.29603779854E+03  0.41800000000E+01 0. -1.
         -5    1    4    4    0  501  0.15945280561E+03 -0.65409602467E+01  0.14318427483E+03  0.21444624114E+03  0.41800000000E+01 0. -1.
</event>
<event>
11    1  0.8479398E-009  0.1619681E+03  0.7561462E-02  0.1085241E+00
         22   -1    0    0    0    0  0.00000000000E+00  0.00000000000E+00  0.75427224976E+02  0.75427224976E+02  0.00000000000E+00 0. -1.
         22   -1    0    0    0    0 -0.00000000000E+00 -0.00000000000E+00 -0.11802975667E+04  0.11802975667E+04  0.00000000000E+00 0. -1.
        -24    2    1    2    0    0  0.47554075696E+02  0.44491037959E+02 -0.79473457493E+03  0.80136184752E+03  0.79604795736E+02 0.  0.
         25    2    1    2    0    0 -0.51524563861E+02  0.67976494382E+02 -0.27016469949E+03  0.30969650195E+03  0.12508946399E+03 0.  0.
         24    2    1    2    0    0  0.39704881649E+01 -0.11246753234E+03 -0.39971067351E+02  0.14466644225E+03  0.81645469438E+02 0.  0.
        -11    1    5    5    0    0 -0.26402660795E+02 -0.12722916986E+02 -0.26538570468E+02  0.39538194650E+02  0.00000000000E+00 0.  1.
         12    1    5    5    0    0  0.30373148960E+02 -0.99744615355E+02 -0.13432496882E+02  0.10512824760E+03  0.00000000000E+00 0. -1.
         13    1    3    3    0    0  0.60558535604E+02  0.52710209787E+02 -0.74471006564E+03  0.74902522275E+03  0.00000000000E+00 0. -1.
        -14    1    3    3    0    0 -0.13004459907E+02 -0.82191718286E+01 -0.50024509289E+02  0.52336624773E+02  0.00000000000E+00 0.  1.
          5    1    4    4  501    0  0.37568851944E+02  0.35086036286E+02 -0.60580183245E+02  0.79560540349E+02  0.41800000000E+01 0.  1.
         -5    1    4    4    0  501 -0.89093415805E+02  0.32890458097E+02 -0.20958451625E+03  0.23013596160E+03  0.41800000000E+01 0.  1.
</event>
<event>
11    1  0.8479398E-009  0.1863030E+03  0.7561462E-02  0.1064656E+00
         22   -1    0    0    0    0  0.00000000000E+00  0.00000000000E+00  0.26987708857E+03  0.26987708857E+03  0.00000000000E+00 0.  1.
         22   -1    0    0    0    0 -0.00000000000E+00 -0.00000000000E+00 -0.82878884435E+03  0.82878884435E+03  0.00000000000E+00 0.  1.
        -24    2    1    2    0    0  0.41551873636E+02 -0.13297510341E+03 -0.71540342917E+03  0.73324493702E+03  0.80231757242E+02 0.  0.
         25    2    1    2    0    0 -0.82387632015E+02  0.10467303689E+03  0.39419679460E+00  0.18273389906E+03  0.12508939170E+03 0.  0.
         24    2    1    2    0    0  0.40835758379E+02  0.28302066519E+02  0.15609747660E+03  0.18268709684E+03  0.80867713076E+02 0.  0.
        -11    1    5    5    0    0  0.59410456280E+02  0.17816959842E+02  0.14690283760E+03  0.15945999520E+03  0.00000000000E+00 0.  1.
         12    1    5    5    0    0 -0.18574697900E+02  0.10485106677E+02  0.91946389950E+01  0.23227101635E+02  0.00000000000E+00 0. -1.
         11    1    3    3    0    0  0.15963329687E+02 -0.11038686227E+02 -0.27136033957E+03  0.27205351382E+03  0.00000000000E+00 0. -1.
        -12    1    3    3    0    0  0.25588543949E+02 -0.12193641718E+03 -0.44404308960E+03  0.46119142321E+03  0.00000000000E+00 0.  1.
          5    1    4    4  501    0  0.19131763865E+02  0.39010525759E+02  0.36050721996E+02  0.56612476231E+02  0.41800000000E+01 0. -1.
         -5    1    4    4    0  501 -0.10151939588E+03  0.65662511127E+02 -0.35656525201E+02  0.12612142283E+03  0.41800000000E+01 0. -1.
</event>
<event>
11    1  0.8479398E-009  0.1760373E+03  0.7561462E-02  0.1072894E+00
         22   -1    0    0    0    0  0.00000000000E+00  0.00000000000E+00  0.11977192203E+04  0.11977192203E+04  0.00000000000E+00 0.  1.
         22   -1    0    0    0    0 -0.00000000000E+00 -0.00000000000E+00 -0.86477471577E+03  0.86477471577E+03  0.00000000000E+00 0.  1.
         24    2    1    2    0    0 -0.34243495349E+02 -0.30289569768E+02 -0.79881674319E+03  0.80428809703E+03  0.81737866544E+02 0.  0.
         25    2    1    2    0    0  0.14696873446E+03 -0.16697960934E+02  0.10420529087E+03  0.21996578382E+03  0.12509025781E+03 0.  0.
        -24    2    1    2    0    0 -0.11272523911E+03  0.46987530702E+02  0.10275559569E+04  0.10382400552E+04  0.84595273154E+02 0.  0.
        -11    1    3    3    0    0 -0.42850099077E+02 -0.42557104086E+02 -0.76400137360E+03  0.76638458816E+03  0.00000000000E+00 0.  1.
         12    1    3    3    0    0  0.86066037285E+01  0.12267534318E+02 -0.34815369585E+02  0.37903508878E+02  0.00000000000E+00 0. -1.
         13    1    5    5    0    0 -0.74318277298E+01  0.38790237160E+02  0.19075981257E+03  0.19480559708E+03  0.00000000000E+00 0. -1.
        -14    1    5    5    0    0 -0.10529341138E+03  0.81972935422E+01  0.83679614429E+03  0.84343445815E+03  0.00000000000E+00 0.  1.
          5    1    4    4  501    0  0.12087009833E+03  0.27876289592E+01  0.11386026761E+02  0.12150911715E+03  0.41800000000E+01 0.  1.
         -5    1    4    4    0  501  0.26098636124E+02 -0.19485589893E+02  0.92819264109E+02  0.98456666664E+02  0.41800000000E+01 0.  1.
</event>
<event>
11    1  0.8479398E-009  0.1380637E+03  0.7561462E-02  0.1109740E+00
         22   -1    0    0    0    0  0.00000000000E+00  0.00000000000E+00  0.24532926568E+03  0.24532926568E+03  0.00000000000E+00 0. -1.
         22   -1    0    0    0    0 -0.00000000000E+00 -0.00000000000E+00 -0.25984709780E+03  0.25984709780E+03  0.00000000000E+00 0. -1.
         24    2    1    2    0    0 -0.67232459347E+01 -0.56187393579E+02 -0.17173460692E+03  0.20127115885E+03  0.88402935118E+02 0.  0.
         25    2    1    2    0    0  0.43954088041E+02  0.63622676292E+02  0.33949532518E+02  0.15093151382E+03  0.12509174358E+03 0.  0.
        -24    2    1    2    0    0 -0.37230842107E+02 -0.74352827135E+01  0.12326724228E+03  0.15297369081E+03  0.82247905922E+02 0.  0.
        -13    1    3    3    0    0  0.26355220836E+02 -0.65495079461E+02 -0.11600263908E+03  0.13579696378E+03  0.00000000000E+00 0.  1.
         14    1    3    3    0    0 -0.33078466771E+02  0.93076858823E+01 -0.55731967841E+02  0.65474195068E+02  0.00000000000E+00 0. -1.
         13    1    5    5    0    0 -0.33287371518E+02  0.29892241495E+02  0.97991479898E+02  0.10772151752E+03  0.00000000000E+00 0. -1.
        -14    1    5    5    0    0 -0.39434705886E+01 -0.37327524208E+02  0.25275762384E+02  0.45252173295E+02  0.00000000000E+00 0.  1.
          5    1    4    4  501    0  0.22545304713E+02 -0.33698843108E+02  0.30900281057E+02  0.51148827561E+02  0.41800000000E+01 0. -1.
         -5    1    4    4    0  501  0.21408783329E+02  0.97321519401E+02  0.30492514607E+01  0.99782686257E+02  0.41800000000E+01 0. -1.
</event>
<event>
11    1  0.8479398E-009  0.1422180E+03  0.7561462E-02  0.1105107E+00
         22   -1    0    0    0    0  0.00000000000E+00  0.00000000000E+00  0.14790437173E+04  0.14790437173E+04  0.00000000000E+00 0.  1.
         22   -1    0    0    0    0 -0.00000000000E+00 -0.00000000000E+00 -0.11781470244E+04  0.11781470244E+04  0.00000000000E+00 0. -1.
        -24    2    1    2    0    0  0.64014033669E+02  0.54306642890E+01 -0.48513968377E+03  0.49505179903E+03  0.74756152494E+02 0.  0.
         25    2    1    2    0    0 -0.12791223974E+02 -0.49825200755E+02 -0.67949280289E+03  0.69282365812E+03  0.12509191032E+03 0.  0.
         24    2    1    2    0    0 -0.51222809695E+02  0.44394536466E+02  0.14655291795E+04  0.14693152845E+04  0.80727802601E+02 0.  0.
        -13    1    5    5    0    0 -0.70917855138E+02  0.23848391116E+02  0.91654425528E+03  0.91959309470E+03  0.00000000000E+00 0.  1.
         14    1    5    5    0    0  0.19695045443E+02  0.20546145349E+02  0.54898492427E+03  0.54972218982E+03  0.00000000000E+00 0. -1.
         11    1    3    3    0    0  0.74730950590E+02  0.21256755534E+02 -0.42161162473E+03  0.42871077283E+03  0.00000000000E+00 0. -1.
        -12    1    3    3    0    0 -0.10716916921E+02 -0.15826091245E+02 -0.63528059037E+02  0.66341026201E+02  0.00000000000E+00 0.  1.
          5    1    4    4  501    0 -0.13895568413E+02 -0.55996427414E+02 -0.11934312647E+03  0.13262330466E+03  0.41800000000E+01 0. -1.
         -5    1    4    4    0  501  0.11043444389E+01  0.61712266590E+01 -0.56014967642E+03  0.56020035345E+03  0.41800000000E+01 0. -1.
</event>
<event>
11    1  0.8479398E-009  0.2344031E+03  0.7561462E-02  0.1032552E+00
         22   -1    0    0    0    0  0.00000000000E+00  0.00000000000E+00  0.15166548625E+04  0.15166548625E+04  0.00000000000E+00 0. -1.
         22   -1    0    0    0    0 -0.00000000000E+00 -0.00000000000E+00 -0.24230435358E+03  0.24230435358E+03  0.00000000000E+00 0. -1.
        -24    2    1    2    0    0 -0.13437686869E+01 -0.19685587868E+03 -0.16318871450E+03  0.27032036825E+03  0.87684104992E+02 0.  0.
         25    2    1    2    0    0 -0.15406026893E+02  0.21542538396E+03  0.64711989180E+03  0.69358438290E+03  0.12509876146E+03 0.  0.
         24    2    1    2    0    0  0.16749795580E+02 -0.18569505278E+02  0.79041933163E+03  0.79505446494E+03  0.81996952584E+02 0.  0.
        -11    1    5    5    0    0  0.11002939543E+02  0.30683813590E+02  0.20928327699E+03  0.21180663616E+03  0.00000000000E+00 0.  1.
         12    1    5    5    0    0  0.57468560366E+01 -0.49253318868E+02  0.58113605464E+03  0.58324782878E+03  0.00000000000E+00 0. -1.
         13    1    3    3    0    0  0.57612990471E+01 -0.20062324082E+03 -0.13720748524E+03  0.24312295517E+03  0.00000000000E+00 0. -1.
        -14    1    3    3    0    0 -0.71050677340E+01  0.37673621365E+01 -0.25981229258E+02  0.27197413089E+02  0.00000000000E+00 0.  1.
          5    1    4    4  501    0 -0.32439676085E+02  0.76386688926E+01  0.43482250700E+02  0.54944156858E+02  0.41800000000E+01 0. -1.
         -5    1    4    4    0  501  0.17033649192E+02  0.20778671506E+03  0.60363764110E+03  0.63864022604E+03  0.41800000000E+01 0. -1.
</event>
<event>
11    1  0.8479398E-009  0.1400902E+03  0.7561462E-02  0.1107458E+00
         22   -1    0    0    0    0  0.00000000000E+00  0.00000000000E+00  0.26435921971E+04  0.26435921971E+04  0.00000000000E+00 0. -1.
         22   -1    0    0    0    0 -0.00000000000E+00 -0.00000000000E+00 -0.92393115528E+02  0.92393115528E+02  0.00000000000E+00 0.  1.
        -24    2    1    2    0    0  0.60944169860E+02 -0.89761317209E+01 -0.50108731461E+02  0.11280640014E+03  0.80122632031E+02 0.  0.
         25    2    1    2    0    0 -0.86391068177E+02  0.42753951825E+02  0.60909152490E+03  0.62923084709E+03  0.12509059184E+03 0.  0.
         24    2    1    2    0    0  0.25446898316E+02 -0.33777820104E+02  0.19922162882E+04  0.19939480654E+04  0.71516872365E+02 0.  0.
        -11    1    5    5    0    0 -0.33260526884E+00 -0.65863854575E+01  0.15106392260E+02  0.16483148570E+02  0.00000000000E+00 0.  1.
         12    1    5    5    0    0  0.25779503585E+02 -0.27191434647E+02  0.19771098959E+04  0.19774649169E+04  0.00000000000E+00 0. -1.
         11    1    3    3    0    0  0.60877515380E+02 -0.26294568051E+02 -0.74063878985E+01  0.66725787890E+02  0.00000000000E+00 0. -1.
        -12    1    3    3    0    0  0.66654479984E-01  0.17318436330E+02 -0.42702343563E+02  0.46080612251E+02  0.00000000000E+00 0.  1.
          5    1    4    4  501    0 -0.10638078394E+03  0.76232675636E+01  0.52618559622E+03  0.53690198311E+03  0.41800000000E+01 0.  1.
         -5    1    4    4    0  501  0.19989715764E+02  0.35130684262E+02  0.82905928676E+02  0.92328863973E+02  0.41800000000E+01 0.  1.
</event>
<event>
11    1  0.8479398E-009  0.1928040E+03  0.7561462E-02  0.1059732E+00
         22   -1    0    0    0    0  0.00000000000E+00  0.00000000000E+00  0.10234441324E+04  0.10234441324E+04  0.00000000000E+00 0.  1.
         22   -1    0    0    0    0 -0.00000000000E+00 -0.00000000000E+00 -0.31627692521E+03  0.31627692521E+03  0.00000000000E+00 0.  1.
        -24    2    1    2    0    0 -0.67823605574E+02  0.13450350358E+03 -0.25529454718E+03  0.30693637704E+03  0.79645463048E+02 0.  0.
         25    2    1    2    0    0  0.10926240036E+03 -0.63692106186E+02  0.22689488579E+03  0.28831547753E+03  0.12509823685E+03 0.  0.
         24    2    1    2    0    0 -0.41438794784E+02 -0.70811397392E+02  0.73556686861E+03  0.74446920306E+03  0.80276698987E+02 0.  0.
        -13    1    5    5    0    0 -0.46021172467E+02 -0.39441744116E+01  0.24157220450E+03  0.24594843934E+03  0.00000000000E+00 0.  1.
         14    1    5    5    0    0  0.45823776829E+01 -0.66867222980E+02  0.49399466411E+03  0.49852076372E+03  0.00000000000E+00 0. -1.
         11    1    3    3    0    0 -0.35191420716E+02  0.31122004110E+02 -0.26940183585E+02  0.54155228034E+02  0.00000000000E+00 0. -1.
        -12    1    3    3    0    0 -0.32632184858E+02  0.10338149947E+03 -0.22835436359E+03  0.25278114901E+03  0.00000000000E+00 0.  1.
          5    1    4    4  501    0 -0.15892136586E+02 -0.38510642252E+00  0.92740434081E+02  0.94185820725E+02  0.41800000000E+01 0.  1.
         -5    1    4    4    0  501  0.12515453694E+03 -0.63306999764E+02  0.13415445171E+03  0.19412965680E+03  0.41800000000E+01 0.  1.
</event>
<event>
11    1  0.8479398E-009  0.1453260E+03  0.7561462E-02  0.1101753E+00
         22   -1    0    0    0    0  0.00000000000E+00  0.00000000000E+00  0.33928201918E+03  0.33928201918E+03  0.00000000000E+00 0.  1.
         22   -1    0    0    0    0 -0.00000000000E+00 -0.00000000000E+00 -0.97686397498E+03  0.97686397498E+03  0.00000000000E+00 0.  1.
        -24    2    1    2    0    0  0.13504225030E+02  0.71805886362E+02 -0.82964275071E+03  0.83661282536E+03  0.79217904104E+02 0.  0.
         25    2    1    2    0    0 -0.24155759973E+02 -0.81605902707E+02 -0.96551324517E+02  0.17948173295E+03  0.12509400505E+03 0.  0.
         24    2    1    2    0    0  0.10651534943E+02  0.98000163453E+01  0.28861211943E+03  0.30005143585E+03  0.80773839566E+02 0.  0.
        -11    1    5    5    0    0 -0.20165437465E+02 -0.14138068630E+02  0.21789563837E+03  0.21928301136E+03  0.00000000000E+00 0.  1.
         12    1    5    5    0    0  0.30816972408E+02  0.23938084975E+02  0.70716481063E+02  0.80768424490E+02  0.00000000000E+00 0. -1.
         11    1    3    3    0    0  0.18520900229E+02  0.42538986802E+02 -0.16756520520E+03  0.17386974187E+03  0.00000000000E+00 0. -1.
        -12    1    3    3    0    0 -0.50166751986E+01  0.29266899560E+02 -0.66207754551E+03  0.66274308349E+03  0.00000000000E+00 0.  1.
          5    1    4    4  501    0 -0.22632358745E+02 -0.43840698958E+02  0.22586162847E+02  0.54422768210E+02  0.41800000000E+01 0. -1.
         -5    1    4    4    0  501 -0.15234012285E+01 -0.37765203749E+02 -0.11913748736E+03  0.12505896474E+03  0.41800000000E+01 0. -1.
</event>
<event>
11    1  0.8479398E-009  0.1507139E+03  0.7561462E-02  0.1096152E+00
         22   -1    0    0    0    0  0.00000000000E+00  0.00000000000E+00  0.24780719483E+03  0.24780719483E+03  0.00000000000E+00 0.  1.
         22   -1    0    0    0    0 -0.00000000000E+00 -0.00000000000E+00 -0.43742118566E+03  0.43742118566E+03  0.00000000000E+00 0.  1.
        -24    2    1    2    0    0  0.78093807486E+01 -0.59143600460E+01 -0.35171714004E+03  0.36093065036E+03  0.80436445011E+02 0.  0.
         25    2    1    2    0    0 -0.87450731062E+02 -0.14367161581E+02  0.47232448551E+02  0.16041635528E+03  0.12509379341E+03 0.  0.
         24    2    1    2    0    0  0.79641350313E+02  0.20281521627E+02  0.11487070066E+03  0.16388137486E+03  0.83112829073E+02 0.  0.
        -11    1    5    5    0    0  0.83809648247E+02 -0.10006958555E+02  0.96533876382E+02  0.12823020568E+03  0.00000000000E+00 0.  1.
         12    1    5    5    0    0 -0.41682979337E+01  0.30288480183E+02  0.18336824280E+02  0.35651169183E+02  0.00000000000E+00 0. -1.
         13    1    3    3    0    0  0.87194709669E+01  0.29554067687E+02 -0.63971072794E+02  0.71005424055E+02  0.00000000000E+00 0. -1.
        -14    1    3    3    0    0 -0.91009021838E+00 -0.35468427733E+02 -0.28774606725E+03  0.28992522630E+03  0.00000000000E+00 0.  1.
          5    1    4    4  501    0  0.22214142295E+02 -0.28410736852E+00  0.44298458871E+02  0.49733034225E+02  0.41800000000E+01 0. -1.
         -5    1    4    4    0  501 -0.10966487336E+03 -0.14083054213E+02  0.29339896803E+01  0.11068332105E+03  0.41800000000E+01 0. -1.
</event>
<event>
11    1  0.8479398E-009  0.1318162E+03  0.7561462E-02  0.1117057E+00
         22   -1    0    0    0    0  0.00000000000E+00  0.00000000000E+00  0.51509878844E+03  0.51509878844E+03  0.00000000000E+00 0. -1.
         22   -1    0    0    0    0 -0.00000000000E+00 -0.00000000000E+00 -0.66370009151E+03  0.66370009151E+03  0.00000000000E+00 0.  1.
        -24    2    1    2    0    0 -0.31033233978E+02 -0.35094343959E+02 -0.48257053140E+03  0.49306800981E+03  0.89705462098E+02 0.  0.
         25    2    1    2    0    0  0.11147904204E+02  0.14356837570E+02 -0.14904008734E+03  0.19542879886E+03  0.12509625589E+03 0.  0.
         24    2    1    2    0    0  0.19885329774E+02  0.20737506389E+02  0.48300931567E+03  0.49030207127E+03  0.79200073003E+02 0.  0.
        -13    1    5    5    0    0  0.44594686651E+02 -0.73667933931E+01  0.21559206813E+03  0.22027913102E+03  0.00000000000E+00 0.  1.
         14    1    5    5    0    0 -0.24709356877E+02  0.28104299782E+02  0.26741724754E+03  0.27002294025E+03  0.00000000000E+00 0. -1.
         13    1    3    3    0    0  0.24132939142E+02  0.18289536523E+00 -0.49442142236E+02  0.55017793769E+02  0.00000000000E+00 0. -1.
        -14    1    3    3    0    0 -0.55166173120E+02 -0.35277239324E+02 -0.43312838917E+03  0.43805021604E+03  0.00000000000E+00 0.  1.
          5    1    4    4  501    0  0.53884492117E+02 -0.90109959593E+00 -0.18450025081E+02  0.57115902309E+02  0.41800000000E+01 0. -1.
         -5    1    4    4    0  501 -0.42736587913E+02  0.15257937166E+02 -0.13059006226E+03  0.13831289655E+03  0.41800000000E+01 0. -1.
</event>
<event>
11    1  0.8479398E-009  0.3083592E+03  0.7561462E-02  0.9967142E-01
         22   -1    0    0    0    0  0.00000000000E+00  0.00000000000E+00  0.12107038416E+04  0.12107038416E+04  0.00000000000E+00 0.  1.
         22   -1    0    0    0    0 -0.00000000000E+00 -0.00000000000E+00 -0.50599321068E+03  0.50599321068E+03  0.00000000000E+00 0.  1.
        -24    2    1    2    0    0 -0.14988978757E+02 -0.48276458440E+02 -0.19209148620E+03  0.21273374866E+03  0.76165758895E+02 0.  0.
         25    2    1    2    0    0  0.82654839127E+02  0.31857568024E+03 -0.17527279353E+03  0.39330688365E+03  0.12508983215E+03 0.  0.
         24    2    1    2    0    0 -0.67665860370E+02 -0.27029922180E+03  0.10720749106E+04  0.11106564199E+04  0.81072382436E+02 0.  0.
        -13    1    5    5    0    0 -0.28850433662E+02 -0.23618073182E+03  0.90630117047E+03  0.93701413927E+03  0.00000000000E+00 0.  1.
         14    1    5    5    0    0 -0.38815426707E+02 -0.34118489972E+02  0.16577374015E+03  0.17364228066E+03  0.00000000000E+00 0. -1.
         11    1    3    3    0    0 -0.17747255429E+02 -0.80324633008E+01 -0.33952935216E+01  0.19774062810E+02  0.00000000000E+00 0. -1.
        -12    1    3    3    0    0  0.27582766716E+01 -0.40243995139E+02 -0.18869619267E+03  0.19295968585E+03  0.00000000000E+00 0.  1.
          5    1    4    4  501    0  0.90767907217E+02  0.18730418729E+03 -0.55693249916E+02  0.21550146645E+03  0.41800000000E+01 0.  1.
         -5    1    4    4    0  501 -0.81130680905E+01  0.13127149294E+03 -0.11957954361E+03  0.17780541720E+03  0.41800000000E+01 0.  1.
</event>
<event>
11    1  0.8479398E-009  0.1590840E+03  0.7561462E-02  0.1087942E+00
         22   -1    0    0    0    0  0.00000000000E+00  0.00000000000E+00  0.20202644520E+04  0.20202644520E+04  0.00000000000E+00 0. -1.
         22   -1    0    0    0    0 -0.00000000000E+00 -0.00000000000E+00 -0.31001526941E+04  0.31001526941E+04  0.00000000000E+00 0.  1.
         24    2    1    2    0    0  0.25645899194E+01  0.22431552522E+02 -0.30280169521E+04  0.30291684296E+04  0.80404982681E+02 0.  0.
         25    2    1    2    0    0  0.82630952809E+02 -0.70923667839E+02  0.29459651827E+02  0.16844349400E+03  0.12508916245E+03 0.  0.
        -24    2    1    2    0    0 -0.85195542728E+02  0.48492115317E+02  0.19186690581E+04  0.19228052225E+04  0.79241425437E+02 0.  0.
        -11    1    3    3    0    0  0.76044777106E+01 -0.27742331480E+02 -0.16061569898E+04  0.16064145607E+04  0.00000000000E+00 0.  1.
         12    1    3    3    0    0 -0.50398877911E+01  0.50173884003E+02 -0.14218599623E+04  0.14227538689E+04  0.00000000000E+00 0. -1.
         11    1    5    5    0    0 -0.67140351223E+02  0.70094573971E+02  0.13877843608E+04  0.13911745067E+04  0.00000000000E+00 0. -1.
        -12    1    5    5    0    0 -0.18055191505E+02 -0.21602458654E+02  0.53088469733E+03  0.53163071583E+03  0.00000000000E+00 0.  1.
          5    1    4    4  501    0  0.10628945089E+03 -0.55480324299E+02 -0.92627466864E+01  0.12032782152E+03  0.41800000000E+01 0.  1.
         -5    1    4    4    0  501 -0.23658498086E+02 -0.15443343540E+02  0.38722398513E+02  0.48115672478E+02  0.41800000000E+01 0.  1.
</event>
<event>
11    1  0.8479398E-009  0.1853562E+03  0.7561462E-02  0.1065391E+00
         22   -1    0    0    0    0  0.00000000000E+00  0.00000000000E+00  0.32388677452E+03  0.32388677452E+03  0.00000000000E+00 0. -1.
         22   -1    0    0    0    0 -0.00000000000E+00 -0.00000000000E+00 -0.19752433637E+04  0.19752433637E+04  0.00000000000E+00 0.  1.
        -24    2    1    2    0    0  0.10887896199E+03  0.14379455115E+03 -0.15554810010E+04  0.15679450876E+04  0.79994700674E+02 0.  0.
         25    2    1    2    0    0 -0.20266254239E+02 -0.51734209885E+02 -0.38281375155E+03  0.40655004017E+03  0.12509763087E+03 0.  0.
         24    2    1    2    0    0 -0.88612707748E+02 -0.92060341267E+02  0.28693816338E+03  0.32463501040E+03  0.82018668390E+02 0.  0.
        -13    1    5    5    0    0 -0.24391073089E+02  0.10499134441E+02  0.26791592087E+02  0.37721952190E+02  0.00000000000E+00 0.  1.
         14    1    5    5    0    0 -0.64221634660E+02 -0.10255947571E+03  0.26014657129E+03  0.28691305821E+03  0.00000000000E+00 0. -1.
         11    1    3    3    0    0  0.86634009155E+02  0.49702039866E+02 -0.85826608856E+03  0.86405811325E+03  0.00000000000E+00 0. -1.
        -12    1    3    3    0    0  0.22244952833E+02  0.94092511286E+02 -0.69721491243E+03  0.70388697439E+03  0.00000000000E+00 0.  1.
          5    1    4    4  501    0  0.35491853034E+01 -0.82437800370E+02 -0.15732715269E+03  0.17770169672E+03  0.41800000000E+01 0. -1.
         -5    1    4    4    0  501 -0.23815439542E+02  0.30703590484E+02 -0.22548659887E+03  0.22884834345E+03  0.41800000000E+01 0. -1.
</event>
<event>
11    1  0.8479398E-009  0.1313190E+03  0.7561462E-02  0.1117659E+00
         22   -1    0    0    0    0  0.00000000000E+00  0.00000000000E+00  0.17905217521E+04  0.17905217521E+04  0.00000000000E+00 0.  1.
         22   -1    0    0    0    0 -0.00000000000E+00 -0.00000000000E+00 -0.14647312760E+03  0.14647312760E+03  0.00000000000E+00 0. -1.
         24    2    1    2    0    0 -0.27879157048E+02  0.29257456086E+02 -0.11008289805E+03  0.14303706305E+03  0.81903057512E+02 0.  0.
         25    2    1    2    0    0  0.15770173944E+02 -0.31387421149E+02  0.20568756036E+03  0.24328916996E+03  0.12509348161E+03 0.  0.
        -24    2    1    2    0    0  0.12108983105E+02  0.21299650626E+01  0.15484439622E+04  0.15506686467E+04  0.82118107438E+02 0.  0.
        -13    1    3    3    0    0 -0.52904471147E+02  0.37652207072E+02 -0.78361412415E+02  0.10176975347E+03  0.00000000000E+00 0.  1.
         14    1    3    3    0    0  0.25025314098E+02 -0.83947509859E+01 -0.31721485631E+02  0.41267309586E+02  0.00000000000E+00 0. -1.
         11    1    5    5    0    0  0.42183258835E+02  0.11572647237E+02  0.55359634869E+03  0.55532177229E+03  0.00000000000E+00 0. -1.
        -12    1    5    5    0    0 -0.30074275731E+02 -0.94426821746E+01  0.99484761351E+03  0.99534687442E+03  0.00000000000E+00 0.  1.
          5    1    4    4  501    0 -0.11649609937E+02  0.41562796406E+02  0.35442013848E+02  0.56007037079E+02  0.41800000000E+01 0. -1.
         -5    1    4    4    0  501  0.27419783881E+02 -0.72950217554E+02  0.17024554651E+03  0.18728213288E+03  0.41800000000E+01 0. -1.
</event>
<event>
11    1  0.8479398E-009  0.1332471E+03  0.7561462E-02  0.1115342E+00
         22   -1    0    0    0    0  0.00000000000E+00  0.00000000000E+00  0.67595378303E+03  0.67595378303E+03  0.00000000000E+00 0.  1.
         22   -1    0    0    0    0 -0.00000000000E+00 -0.00000000000E+00 -0.34422741644E+03  0.34422741644E+03  0.00000000000E+00 0. -1.
         24    2    1    2    0    0 -0.37809053680E+02 -0.89105376460E+01 -0.30007859497E+03  0.31284854839E+03  0.79486658322E+02 0.  0.
         25    2    1    2    0    0 -0.10248664213E+02  0.21100007168E+02  0.86533502700E+02  0.15390382198E+03  0.12509234153E+03 0.  0.
        -24    2    1    2    0    0  0.48057717893E+02 -0.12189469522E+02  0.54527145886E+03  0.55342882909E+03  0.80649721711E+02 0.  0.
        -13    1    3    3    0    0 -0.20844758561E+02  0.15663561521E+02 -0.24896917462E+02  0.36051457919E+02  0.00000000000E+00 0.  1.
         14    1    3    3    0    0 -0.16964295120E+02 -0.24574099167E+02 -0.27518167751E+03  0.27679709047E+03  0.00000000000E+00 0. -1.
         13    1    5    5    0    0  0.70270062324E+02 -0.42143544271E+01  0.43508337289E+03  0.44074162931E+03  0.00000000000E+00 0. -1.
        -14    1    5    5    0    0 -0.22212344431E+02 -0.79751150953E+01  0.11018808597E+03  0.11268719978E+03  0.00000000000E+00 0.  1.
          5    1    4    4  501    0  0.26236847724E+02 -0.39772686102E+02  0.89253415517E+01  0.48655655993E+02  0.41800000000E+01 0.  1.
         -5    1    4    4    0  501 -0.36485511937E+02  0.60872693271E+02  0.77608161149E+02  0.10524816599E+03  0.41800000000E+01 0.  1.
</event>
<event>
11    1  0.8479398E-009  0.1488022E+03  0.7561462E-02  0.1098109E+00
         22   -1    0    0    0    0  0.00000000000E+00  0.00000000000E+00  0.12647154438E+04  0.12647154438E+04  0.00000000000E+00 0. -1.
         22   -1    0    0    0    0 -0.00000000000E+00 -0.00000000000E+00 -0.10325298802E+04  0.10325298802E+04  0.00000000000E+00 0.  1.
        -24    2    1    2    0    0  0.38325406617E+02  0.26318383127E+02 -0.10045727621E+04  0.10090429635E+04  0.82702924528E+02 0.  0.
         25    2    1    2    0    0 -0.10184456587E+03 -0.66204847000E+02  0.31322845208E+03  0.35849035448E+03  0.12509146132E+03 0.  0.
         24    2    1    2    0    0  0.63519159248E+02  0.39886463872E+02  0.92352987357E+03  0.92971200610E+03  0.76363429133E+02 0.  0.
        -11    1    5    5    0    0  0.44782780101E+02 -0.16089877884E+02  0.37154478589E+03  0.37457964372E+03  0.00000000000E+00 0.  1.
         12    1    5    5    0    0  0.18736379147E+02  0.55976341757E+02  0.55198508768E+03  0.55513236238E+03  0.00000000000E+00 0. -1.
         13    1    3    3    0    0  0.20411399528E+02  0.49963600948E+02 -0.38549945669E+03  0.38925931942E+03  0.00000000000E+00 0. -1.
        -14    1    3    3    0    0  0.17914007088E+02 -0.23645217820E+02 -0.61907330539E+03  0.61978364404E+03  0.00000000000E+00 0.  1.
          5    1    4    4  501    0 -0.68394208770E+02 -0.10234633470E+03  0.24529946601E+03  0.27448468162E+03  0.41800000000E+01 0.  1.
         -5    1    4    4    0  501 -0.33450357095E+02  0.36141487699E+02  0.67928986075E+02  0.84005672856E+02  0.41800000000E+01 0.  1.
</event>
<event>
11    1  0.8479398E-009  0.1960214E+03  0.7561462E-02  0.1057373E+00
         22   -1    0    0    0    0  0.00000000000E+00  0.00000000000E+00  0.11233873512E+04  0.11233873512E+04  0.00000000000E+00 0.  1.
         22   -1    0    0    0    0 -0.00000000000E+00 -0.00000000000E+00 -0.74852976242E+03  0.74852976242E+03  0.00000000000E+00 0. -1.
         24    2    1    2    0    0 -0.58756151490E+02 -0.27845343885E+02 -0.69386416592E+03  0.70155203816E+03  0.80623402154E+02 0.  0.
         25    2    1    2    0    0  0.19980226100E+03  0.29196706554E+02  0.29043152098E+03  0.37519412726E+03  0.12508706400E+03 0.  0.
        -24    2    1    2    0    0 -0.14104610951E+03 -0.13513626695E+01  0.77829023372E+03  0.79517094818E+03  0.81641397221E+02 0.  0.
        -13    1    3    3    0    0  0.48047659206E+01  0.16029446749E+02 -0.43327642155E+02  0.46446889167E+02  0.00000000000E+00 0.  1.
         14    1    3    3    0    0 -0.63560917410E+02 -0.43874790633E+02 -0.65053652377E+03  0.65510514899E+03  0.00000000000E+00 0. -1.
         13    1    5    5    0    0 -0.45462310127E+02 -0.10241495010E+02  0.10249804672E+03  0.11259466881E+03  0.00000000000E+00 0. -1.
        -14    1    5    5    0    0 -0.95583799387E+02  0.88901323403E+01  0.67579218700E+03  0.68257627937E+03  0.00000000000E+00 0.  1.
          5    1    4    4  501    0  0.82592919259E+02  0.38610152675E+02  0.21971566497E+03  0.23791759084E+03  0.41800000000E+01 0. -1.
         -5    1    4    4    0  501  0.11720934174E+03 -0.94134461208E+01  0.70715856008E+02  0.13727653642E+03  0.41800000000E+01 0. -1.
</event>
<event>
11    1  0.8479398E-009  0.2128647E+03  0.7561462E-02  0.1045782E+00
         22   -1    0    0    0    0  0.00000000000E+00  0.00000000000E+00  0.41544161559E+03  0.41544161559E+03  0.00000000000E+00 0. -1.
         22   -1    0    0    0    0 -0.00000000000E+00 -0.00000000000E+00 -0.65853288054E+03  0.65853288054E+03  0.00000000000E+00 0.  1.
        -24    2    1    2    0    0  0.44311585650E+02  0.56181551817E+02 -0.49564688969E+03  0.50757863976E+03  0.82766858669E+02 0.  0.
         25    2    1    2    0    0 -0.90861808275E+02  0.11752777253E+03 -0.54069925339E+02  0.20159195224E+03  0.12508842019E+03 0.  0.
         24    2    1    2    0    0  0.46550222625E+02 -0.17370932435E+03  0.30662555007E+03  0.36480390412E+03  0.81980533759E+02 0.  0.
        -11    1    5    5    0    0 -0.20048720649E+02 -0.23097275482E+02  0.71270514113E+02  0.77555925089E+02  0.00000000000E+00 0.  1.
         12    1    5    5    0    0  0.66598943274E+02 -0.15061204887E+03  0.23535503596E+03  0.28724797904E+03  0.00000000000E+00 0. -1.
         11    1    3    3    0    0  0.33246116562E+02  0.20791427367E+02 -0.69317820431E+02  0.79640115191E+02  0.00000000000E+00 0. -1.
        -12    1    3    3    0    0  0.11065469088E+02  0.35390124449E+02 -0.42632906926E+03  0.42793852457E+03  0.00000000000E+00 0.  1.
          5    1    4    4  501    0 -0.32681050738E+02 -0.18191917107E+02  0.12367427725E+02  0.39615938635E+02  0.41800000000E+01 0. -1.
         -5    1    4    4    0  501 -0.58180757537E+02  0.13571968964E+03 -0.66437353064E+02  0.16197601361E+03  0.41800000000E+01 0. -1.
</event>
<event>
11    1  0.8479398E-009  0.1302474E+03  0.7561462E-02  0.1118965E+00
         22   -1    0    0    0    0  0.00000000000E+00  0.00000000000E+00  0.87237219952E+03  0.87237219952E+03  0.00000000000E+00 0.  1.
         22   -1    0    0    0    0 -0.00000000000E+00 -0.00000000000E+00 -0.17390313147E+04  0.17390313147E+04  0.00000000000E+00 0. -1.
         24    2    1    2    0    0  0.60054202062E+01  0.83842151101E+01 -0.17072414303E+04  0.17092743422E+04  0.82698944858E+02 0.  0.
         25    2    1    2    0    0 -0.12494038242E+02  0.27950878584E+02  0.11955207070E+03  0.17572052744E+03  0.12509058138E+03 0.  0.
        -24    2    1    2    0    0  0.64886180358E+01 -0.36335093694E+02  0.72103024443E+03  0.72640864456E+03  0.80140902934E+02 0.  0.
        -13    1    3    3    0    0  0.33465773248E+01  0.56575160361E+00 -0.18549742120E+01  0.38678914146E+01  0.00000000000E+00 0.  1.
         14    1    3    3    0    0  0.26588428813E+01  0.78184635065E+01 -0.17053864561E+04  0.17054064508E+04  0.00000000000E+00 0. -1.
         13    1    5    5    0    0 -0.25741909363E+02  0.14470842491E+01  0.95786600310E+02  0.99195830302E+02  0.00000000000E+00 0. -1.
        -14    1    5    5    0    0  0.32230527399E+02 -0.37782177944E+02  0.62524364412E+03  0.62721281426E+03  0.00000000000E+00 0.  1.
          5    1    4    4  501    0 -0.39877931473E+02 -0.38746306325E+02  0.61901007896E+02  0.83311060796E+02  0.41800000000E+01 0. -1.
         -5    1    4    4    0  501  0.27383893231E+02  0.66697184909E+02  0.57651062806E+02  0.92409466647E+02  0.41800000000E+01 0. -1.
</event>
<event>
11    1  0.8479398E-009  0.1671570E+03  0.7561462E-02  0.1080533E+00
         22   -1    0    0    0    0  0.00000000000E+00  0.00000000000E+00  0.42520115405E+03  0.42520115405E+03  0.00000000000E+00 0. -1.
         22   -1    0    0    0    0 -0.00000000000E+00 -0.00000000000E+00 -0.45289230561E+03  0.45289230561E+03  0.00000000000E+00 0. -1.
        -24    2    1    2    0    0 -0.98784847702E+02  0.54644946380E+02 -0.36607920802E+03  0.39208675919E+03  0.83507627684E+02 0.  0.
         25    2    1    2    0    0  0.74040331217E+02 -0.64917448106E+02  0.25070312557E+02  0.16115961318E+03  0.12509058571E+03 0.  0.
         24    2    1    2    0    0  0.24744516485E+02  0.10272501726E+02  0.31331774391E+03  0.32484708730E+03  0.81485005324E+02 0.  0.
        -11    1    5    5    0    0  0.45717338518E+02 -0.93385108909E+01  0.10965230883E+03  0.11916757805E+03  0.00000000000E+00 0.  1.
         12    1    5    5    0    0 -0.20972822033E+02  0.19611012617E+02  0.20366543507E+03  0.20567950925E+03  0.00000000000E+00 0. -1.
         13    1    3    3    0    0 -0.55400778506E+02  0.31395890668E+02 -0.31414343029E+03  0.32053243674E+03  0.00000000000E+00 0. -1.
        -14    1    3    3    0    0 -0.43384069196E+02  0.23249055712E+02 -0.51935777734E+02  0.71554322444E+02  0.00000000000E+00 0.  1.
          5    1    4    4  501    0  0.15128725386E+02 -0.20086460846E+02 -0.49701062435E+02  0.55857069815E+02  0.41800000000E+01 0.  1.
         -5    1    4    4    0  501  0.58911605831E+02 -0.44830987260E+02  0.74771374992E+02  0.10530254336E+03  0.41800000000E+01 0.  1.
</event>
<event>
11    1  0.8479398E-009  0.1787817E+03  0.7561462E-02  0.1070633E+00
         22   -1    0    0    0    0  0.00000000000E+00  0.00000000000E+00  0.15019330317E+04  0.15019330317E+04  0.00000000000E+00 0.  1.
         22   -1    0    0    0    0 -0.00000000000E+00 -0.00000000000E+00 -0.52072174617E+02  0.52072174617E+02  0.00000000000E+00 0. -1.
        -24    2    1    2    0    0  0.32967700973E+02  0.70808881851E+01  0.38786915793E+02  0.96080248097E+02  0.81178697653E+02 0.  0.
         25    2    1    2    0    0 -0.97416748133E+02  0.99867274451E+02  0.47606881589E+03  0.51161532729E+03  0.12508089518E+03 0.  0.
         24    2    1    2    0    0  0.64449047160E+02 -0.10694816264E+03  0.93500512539E+03  0.94630963091E+03  0.75337533014E+02 0.  0.
        -13    1    5    5    0    0  0.33616830463E+02  0.83871428418E+00  0.23054258489E+03  0.23298214133E+03  0.00000000000E+00 0.  1.
         14    1    5    5    0    0  0.30832216696E+02 -0.10778687692E+03  0.70446254050E+03  0.71332748958E+03  0.00000000000E+00 0. -1.
         13    1    3    3    0    0  0.51429540555E+01 -0.35687905732E+02  0.22586290025E+02  0.42546646038E+02  0.00000000000E+00 0. -1.
        -14    1    3    3    0    0  0.27824746918E+02  0.42768793917E+02  0.16200625768E+02  0.53533602059E+02  0.00000000000E+00 0.  1.
          5    1    4    4  501    0 -0.51893441088E+01  0.94401620841E+02  0.22747767246E+03  0.24637808177E+03  0.41800000000E+01 0. -1.
         -5    1    4    4    0  501 -0.92227404024E+02  0.54656536105E+01  0.24859114342E+03  0.26523724552E+03  0.41800000000E+01 0. -1.
</event>
<event>
11    1  0.8479398E-009  0.1633164E+03  0.7561462E-02  0.1083999E+00
         22   -1    0    0    0    0  0.00000000000E+00  0.00000000000E+00  0.13646544898E+04  0.13646544898E+04  0.00000000000E+00 0. -1.
         22   -1    0    0    0    0 -0.00000000000E+00 -0.00000000000E+00 -0.51371505411E+03  0.51371505411E+03  0.00000000000E+00 0. -1.
        -24    2    1    2    0    0 -0.60367745556E+02  0.69346098421E+02 -0.32583472307E+03  0.34801770993E+03  0.80591026758E+02 0.  0.
         25    2    1    2    0    0  0.54163335576E+02  0.36656878479E+02 -0.14522230918E+03  0.20252532941E+03  0.12509834654E+03 0.  0.
         24    2    1    2    0    0  0.62044099800E+01 -0.10600297690E+03  0.13219964680E+04  0.13278265046E+04  0.64602160824E+02 0.  0.
        -11    1    5    5    0    0  0.23028882929E+02 -0.62273732394E+02  0.48551529783E+03  0.49003413311E+03  0.00000000000E+00 0.  1.
         12    1    5    5    0    0 -0.16824472949E+02 -0.43729244505E+02  0.83648117015E+03  0.83779237150E+03  0.00000000000E+00 0. -1.
         13    1    3    3    0    0 -0.28730959456E+02  0.48200843786E+02 -0.29121894155E+03  0.29657589465E+03  0.00000000000E+00 0. -1.
        -14    1    3    3    0    0 -0.31636786100E+02  0.21145254635E+02 -0.34615781527E+02  0.51441815277E+02  0.00000000000E+00 0.  1.
          5    1    4    4  501    0  0.29474885242E+02  0.75946278897E+02 -0.47825557155E+02  0.94558777781E+02  0.41800000000E+01 0.  1.
         -5    1    4    4    0  501  0.24688450334E+02 -0.39289400419E+02 -0.97396752023E+02  0.10796655162E+03  0.41800000000E+01 0.  1.
</event>
<event>
11    1  0.8479398E-009  0.1553762E+03  0.7561462E-02  0.1091509E+00
         22   -1    0    0    0    0  0.00000000000E+00  0.00000000000E+00  0.43294268629E+03  0.43294268629E+03  0.00000000000E+00 0. -1.
         22   -1    0    0    0    0 -0.00000000000E+00 -0.00000000000E+00 -0.20449368749E+03  0.20449368749E+03  0.00000000000E+00 0.  1.
        -24    2    1    2    0    0 -0.26538044391E+02  0.90740383750E+02 -0.12403590523E+03  0.17587265809E+03  0.81290842254E+02 0.  0.
         25    2    1    2    0    0 -0.10352283909E+02 -0.86231982771E+02  0.74648567794E+02  0.16959637120E+03  0.12508955119E+03 0.  0.
         24    2    1    2    0    0  0.36890328300E+02 -0.45084009790E+01  0.27783633625E+03  0.29196734448E+03  0.81674221776E+02 0.  0.
        -11    1    5    5    0    0 -0.88039254890E+01 -0.25562195063E+02  0.36384584293E+02  0.45329602851E+02  0.00000000000E+00 0.  1.
         12    1    5    5    0    0  0.45694253789E+02  0.21053794084E+02  0.24145175196E+03  0.24663774163E+03  0.00000000000E+00 0. -1.
         13    1    3    3    0    0  0.65074995453E+01 -0.83567545770E+01  0.33717511737E+01  0.11115376888E+02  0.00000000000E+00 0. -1.
        -14    1    3    3    0    0 -0.33045543936E+02  0.99097138327E+02 -0.12740765641E+03  0.16475728121E+03  0.00000000000E+00 0.  1.
          5    1    4    4  501    0  0.27967000598E+02  0.14580706039E+02  0.49388704386E+02  0.58749184097E+02  0.41800000000E+01 0. -1.
         -5    1    4    4    0  501 -0.38319284507E+02 -0.10081268881E+03  0.25259863408E+02  0.11084718711E+03  0.41800000000E+01 0. -1.
</event>
<event>
11    1  0.8479398E-009  0.1343872E+03  0.7561462E-02  0.1113993E+00
         22   -1    0    0    0    0  0.00000000000E+00  0.00000000000E+00  0.25282857484E+04  0.25282857484E+04  0.00000000000E+00 0.  1.
         22   -1    0    0    0    0 -0.00000000000E+00 -0.00000000000E+00 -0.19182851233E+02  0.19182851233E+02  0.00000000000E+00 0. -1.
        -24    2    1    2    0    0 -0.41201449895E+02 -0.32724543744E+02  0.18008902863E+03  0.20428584192E+03  0.80821975604E+02 0.  0.
         25    2    1    2    0    0  0.37566249047E+02  0.96700885096E+01  0.71680075538E+03  0.72866684921E+03  0.12508925029E+03 0.  0.
         24    2    1    2    0    0  0.36352008476E+01  0.23054455235E+02  0.16122131131E+04  0.16145159085E+04  0.82980563877E+02 0.  0.
        -13    1    5    5    0    0 -0.38563936379E+02  0.35858281429E+01  0.85642569040E+03  0.85730099646E+03  0.00000000000E+00 0.  1.
         14    1    5    5    0    0  0.42199137227E+02  0.19468627092E+02  0.75578742271E+03  0.75721491200E+03  0.00000000000E+00 0. -1.
         11    1    3    3    0    0 -0.56217761517E+02  0.28496595443E+01  0.88434275663E+02  0.10482928208E+03  0.00000000000E+00 0. -1.
        -12    1    3    3    0    0  0.15016311622E+02 -0.35574203288E+02  0.91654752963E+02  0.99456559839E+02  0.00000000000E+00 0.  1.
          5    1    4    4  501    0  0.32261200978E+02 -0.53238520255E+02  0.45873348316E+03  0.46295680803E+03  0.41800000000E+01 0. -1.
         -5    1    4    4    0  501  0.53050480694E+01  0.62908608764E+02  0.25806727222E+03  0.26571004118E+03  0.41800000000E+01 0. -1.
</event>
<event>
11    1  0.8479398E-009  0.1505005E+03  0.7561462E-02  0.1096368E+00
         22   -1    0    0    0    0  0.00000000000E+00  0.00000000000E+00  0.11133786866E+04  0.11133786866E+04  0.00000000000E+00 0. -1.
         22   -1    0    0    0    0 -0.00000000000E+00 -0.00000000000E+00 -0.16789300959E+03  0.16789300959E+03  0.00000000000E+00 0. -1.
        -24    2    1    2    0    0 -0.38313175278E+02 -0.39426366658E+01 -0.10437942322E+03  0.13702509043E+03  0.79983546002E+02 0.  0.
         25    2    1    2    0    0 -0.31707525565E+02 -0.46250271969E+02  0.63780154444E+02  0.15118889221E+03  0.12508284532E+03 0.  0.
         24    2    1    2    0    0  0.70020700843E+02  0.50192908635E+02  0.98608494581E+03  0.99305771357E+03  0.79861602152E+02 0.  0.
        -11    1    5    5    0    0  0.38790066130E+02  0.13052756704E+02  0.14758338598E+03  0.15315318966E+03  0.00000000000E+00 0.  1.
         12    1    5    5    0    0  0.31230634713E+02  0.37140151931E+02  0.83850155983E+03  0.83990452390E+03  0.00000000000E+00 0. -1.
         11    1    3    3    0    0 -0.15605666138E+02  0.51683335730E+01 -0.11057125969E+03  0.11178663586E+03  0.00000000000E+00 0. -1.
        -12    1    3    3    0    0 -0.22707509141E+02 -0.91109702388E+01  0.61918364692E+01  0.25238454567E+02  0.00000000000E+00 0.  1.
          5    1    4    4  501    0 -0.23917710659E+02  0.34601075482E+02 -0.76324977865E+01  0.42953681218E+02  0.41800000000E+01 0.  1.
         -5    1    4    4    0  501 -0.77898149053E+01 -0.80851347451E+02  0.71412652231E+02  0.10823521100E+03  0.41800000000E+01 0.  1.
</event>
<event>
11    1  0.8479398E-009  0.2201112E+03  0.7561462E-02  0.1041148E+00
         22   -1    0    0    0    0  0.00000000000E+00  0.00000000000E+00  0.10307936902E+04  0.10307936902E+04  0.00000000000E+00 0. -1.
         22   -1    0    0    0    0 -0.00000000000E+00 -0.00000000000E+00 -0.40771680692E+03  0.40771680692E+03  0.00000000000E+00 0.  1.
         24    2    1    2    0    0 -0.62764275340E+02  0.17004841900E+03 -0.33935084011E+03  0.39295795824E+03  0.80007157145E+02 0.  0.
         25    2    1    2    0    0  0.39428656761E+02 -0.17646504032E+03  0.27045371265E+03  0.34855228488E+03  0.12509578403E+03 0.  0.
        -24    2    1    2    0    0  0.23335618579E+02  0.64166213173E+01  0.69197401075E+03  0.69700025401E+03  0.79972485277E+02 0.  0.
        -11    1    3    3    0    0 -0.49696355727E+02  0.13148580507E+03 -0.31639990533E+03  0.34621834844E+03  0.00000000000E+00 0.  1.
         12    1    3    3    0    0 -0.13067919613E+02  0.38562613933E+02 -0.22950934784E+02  0.46739609795E+02  0.00000000000E+00 0. -1.
         13    1    5    5    0    0 -0.75154356006E+01  0.14927695718E+02  0.58742281034E+03  0.58766051082E+03  0.00000000000E+00 0. -1.
        -14    1    5    5    0    0  0.30851054180E+02 -0.85110744007E+01  0.10455120041E+03  0.10933974318E+03  0.00000000000E+00 0.  1.
          5    1    4    4  501    0  0.51023778338E+02 -0.18240958230E+03  0.19504887244E+03  0.27191582651E+03  0.41800000000E+01 0. -1.
         -5    1    4    4    0  501 -0.11595121577E+02  0.59445419775E+01  0.75404840214E+02  0.76636458369E+02  0.41800000000E+01 0. -1.
</event>
<event>
11    1  0.8479398E-009  0.2376369E+03  0.7561462E-02  0.1030699E+00
         22   -1    0    0    0    0  0.00000000000E+00  0.00000000000E+00  0.11801758504E+04  0.11801758504E+04  0.00000000000E+00 0. -1.
         22   -1    0    0    0    0 -0.00000000000E+00 -0.00000000000E+00 -0.27737124591E+03  0.27737124591E+03  0.00000000000E+00 0. -1.
         24    2    1    2    0    0  0.89706327641E+02  0.19548447555E+03 -0.11870399262E+03  0.25823513970E+03  0.79582310283E+02 0.  0.
         25    2    1    2    0    0 -0.54206047206E+02 -0.16905626683E+03  0.49262981951E+02  0.22269531719E+03  0.12509215003E+03 0.  0.
        -24    2    1    2    0    0 -0.35500280435E+02 -0.26428208719E+02  0.97224561514E+03  0.97661663942E+03  0.80992617567E+02 0.  0.
        -11    1    3    3    0    0 -0.96623948655E+01  0.31673182309E+01  0.20327456506E+01  0.10369466437E+02  0.00000000000E+00 0.  1.
         12    1    3    3    0    0  0.99368722507E+02  0.19231715732E+03 -0.12073673827E+03  0.24786567326E+03  0.00000000000E+00 0. -1.
         11    1    5    5    0    0 -0.60449557997E+02 -0.97260811035E+01  0.71757010258E+03  0.72017747662E+03  0.00000000000E+00 0. -1.
        -12    1    5    5    0    0  0.24949277563E+02 -0.16702127616E+02  0.25467551256E+03  0.25643916280E+03  0.00000000000E+00 0.  1.
          5    1    4    4  501    0 -0.33699805724E+01 -0.51383674735E+01 -0.31936289189E+02  0.32789610497E+02  0.41800000000E+01 0.  1.
         -5    1    4    4    0  501 -0.50836066634E+02 -0.16391789936E+03  0.81199271140E+02  0.18990570669E+03  0.41800000000E+01 0.  1.
</event>
<event>
11    1  0.8479398E-009  0.1554805E+03  0.7561462E-02  0.1091407E+00
         22   -1    0    0    0    0  0.00000000000E+00  0.00000000000E+00  0.14874359256E+04  0.14874359256E+04  0.00000000000E+00 0.  1.
         22   -1    0    0    0    0 -0.00000000000E+00 -0.00000000000E+00 -0.32928918412E+03  0.32928918412E+03  0.00000000000E+00 0.  1.
         24    2    1    2    0    0 -0.71332050247E+02 -0.37511162584E+02 -0.27449006465E+03  0.29641486477E+03  0.77599147918E+02 0.  0.
         25    2    1    2    0    0  0.15389523043E+03  0.65145765818E+02  0.22524390101E+03  0.30709603974E+03  0.12508177297E+03 0.  0.
        -24    2    1    2    0    0 -0.82563180185E+02 -0.27634603234E+02  0.12073929052E+04  0.12132142053E+04  0.80689097036E+02 0.  0.
        -11    1    3    3    0    0 -0.75710133094E+02 -0.38585979349E+02 -0.15439191158E+03  0.17623213219E+03  0.00000000000E+00 0.  1.
         12    1    3    3    0    0  0.43780828477E+01  0.10748167645E+01 -0.12009815307E+03  0.12018273259E+03  0.00000000000E+00 0. -1.
         13    1    5    5    0    0 -0.35095834003E+02 -0.22598666326E+02  0.18260694688E+03  0.18731714907E+03  0.00000000000E+00 0. -1.
        -14    1    5    5    0    0 -0.47467346182E+02 -0.50359369085E+01  0.10247859583E+04  0.10258970562E+04  0.00000000000E+00 0.  1.
          5    1    4    4  501    0  0.16114245438E+03  0.88498511514E+02  0.20046427516E+03  0.27203359197E+03  0.41800000000E+01 0. -1.
         -5    1    4    4    0  501 -0.72472239488E+01 -0.23352745695E+02  0.24779625847E+02  0.35062447770E+02  0.41800000000E+01 0. -1.
</event>
<event>
11    1  0.8479398E-009  0.1773030E+03  0.7561462E-02  0.1071845E+00
         22   -1    0    0    0    0  0.00000000000E+00  0.00000000000E+00  0.69472576492E+03  0.69472576492E+03  0.00000000000E+00 0. -1.
         22   -1    0    0    0    0 -0.00000000000E+00 -0.00000000000E+00 -0.95148168876E+03  0.95148168876E+03  0.00000000000E+00 0. -1.
        -24    2    1    2    0    0  0.40990059904E+02  0.11692452307E+03 -0.77074201235E+03  0.78493412428E+03  0.82017076006E+02 0.  0.
         25    2    1    2    0    0 -0.27578326225E+02 -0.13676825149E+03 -0.11968362267E+03  0.22234342576E+03  0.12508521395E+03 0.  0.
         24    2    1    2    0    0 -0.13411733679E+02  0.19843728423E+02  0.63366971118E+03  0.63892990364E+03  0.78233437428E+02 0.  0.
        -13    1    5    5    0    0 -0.14978731978E+02 -0.12211369689E+02  0.40313093843E+02  0.44705989493E+02  0.00000000000E+00 0.  1.
         14    1    5    5    0    0  0.15669982989E+01  0.32055098112E+02  0.59335661734E+03  0.59422391414E+03  0.00000000000E+00 0. -1.
         13    1    3    3    0    0  0.54364217822E+02  0.11774799141E+03 -0.74165461926E+03  0.75290878062E+03  0.00000000000E+00 0. -1.
        -14    1    3    3    0    0 -0.13374157918E+02 -0.82346834162E+00 -0.29087393087E+02  0.32025343662E+02  0.00000000000E+00 0.  1.
          5    1    4    4  501    0 -0.20270072221E+02  0.77199610004E+01 -0.63251325491E+02  0.66997583554E+02  0.41800000000E+01 0. -1.
         -5    1    4    4    0  501 -0.73082540037E+01 -0.14448821249E+03 -0.56432297180E+02  0.15534584221E+03  0.41800000000E+01 0. -1.
</event>
<event>
11    1  0.8479398E-009  0.1662718E+03  0.7561462E-02  0.1081322E+00
         22   -1    0    0    0    0  0.00000000000E+00  0.00000000000E+00  0.12409886837E+03  0.12409886837E+03  0.00000000000E+00 0.  1.
         22   -1    0    0    0    0 -0.00000000000E+00 -0.00000000000E+00 -0.82086719850E+03  0.82086719850E+03  0.00000000000E+00 0. -1.
        -24    2    1    2    0    0 -0.84842454618E+01 -0.57137214407E+02 -0.45462691912E+03  0.46572231449E+03  0.82915589164E+02 0.  0.
         25    2    1    2    0    0 -0.10202357803E+03  0.42952496331E+02 -0.28915913297E+03  0.33393750912E+03  0.12509008116E+03 0.  0.
         24    2    1    2    0    0  0.11050782349E+03  0.14184718076E+02  0.47017721966E+02  0.14530624326E+03  0.80560864399E+02 0.  0.
        -11    1    5    5    0    0  0.11926435993E+03  0.10645680364E+02  0.56076841962E+02  0.13221925074E+03  0.00000000000E+00 0.  1.
         12    1    5    5    0    0 -0.87565364400E+01  0.35390377121E+01 -0.90591199961E+01  0.13086992529E+02  0.00000000000E+00 0. -1.
         11    1    3    3    0    0  0.33618137718E+02 -0.33459375703E+02 -0.29999540749E+03  0.30372183576E+03  0.00000000000E+00 0. -1.
        -12    1    3    3    0    0 -0.42102383180E+02 -0.23677838704E+02 -0.15463151164E+03  0.16200047872E+03  0.00000000000E+00 0.  1.
          5    1    4    4  501    0 -0.36970917704E+02 -0.32055404164E+02 -0.32974783449E+02  0.59154090607E+02  0.41800000000E+01 0.  1.
         -5    1    4    4    0  501 -0.65052660327E+02  0.75007900495E+02 -0.25618434952E+03  0.27478341852E+03  0.41800000000E+01 0.  1.
</event>
<event>
11    1  0.8479398E-009  0.1346772E+03  0.7561462E-02  0.1113652E+00
         22   -1    0    0    0    0  0.00000000000E+00  0.00000000000E+00  0.23855005472E+04  0.23855005472E+04  0.00000000000E+00 0. -1.
         22   -1    0    0    0    0 -0.00000000000E+00 -0.00000000000E+00 -0.29254908676E+04  0.29254908676E+04  0.00000000000E+00 0. -1.
        -24    2    1    2    0    0 -0.91068856753E+01 -0.48506428601E+02 -0.28876953574E+04  0.28892186678E+04  0.79776086490E+02 0.  0.
         25    2    1    2    0    0 -0.40349127752E+02  0.55485013710E+02  0.10605218650E+03  0.17776865939E+03  0.12509193077E+03 0.  0.
         24    2    1    2    0    0  0.49456013427E+02 -0.69785851095E+01  0.22416528505E+04  0.22440040876E+04  0.89734304174E+02 0.  0.
        -11    1    5    5    0    0  0.43490932448E+02  0.22274733779E+02  0.57169918993E+03  0.57378357308E+03  0.00000000000E+00 0.  1.
         12    1    5    5    0    0  0.59650809792E+01 -0.29253318889E+02  0.16699536605E+04  0.16702205145E+04  0.00000000000E+00 0. -1.
         11    1    3    3    0    0  0.28001318608E+02 -0.14923188048E+02 -0.18921967058E+04  0.18924627206E+04  0.00000000000E+00 0. -1.
        -12    1    3    3    0    0 -0.37108204283E+02 -0.33583240553E+02 -0.99549865162E+03  0.99675594718E+03  0.00000000000E+00 0.  1.
          5    1    4    4  501    0 -0.78791617084E+02  0.60880788049E+02  0.56088425233E+02  0.11435896607E+03  0.41800000000E+01 0.  1.
         -5    1    4    4    0  501  0.38442489333E+02 -0.53957743382E+01  0.49963761265E+02  0.63409693317E+02  0.41800000000E+01 0.  1.
</event>
<event>
11    1  0.8479398E-009  0.1386703E+03  0.7561462E-02  0.1109052E+00
         22   -1    0    0    0    0  0.00000000000E+00  0.00000000000E+00  0.51750663926E+02  0.51750663926E+02  0.00000000000E+00 0.  1.
         22   -1    0    0    0    0 -0.00000000000E+00 -0.00000000000E+00 -0.10763629753E+04  0.10763629753E+04  0.00000000000E+00 0.  1.
        -24    2    1    2    0    0  0.51937403717E+02  0.33022181988E+02 -0.73406905793E+03  0.74112496929E+03  0.81368789367E+02 0.  0.
         25    2    1    2    0    0 -0.19243633821E+02 -0.60581848506E+02 -0.25065316392E+03  0.28725585098E+03  0.12509371496E+03 0.  0.
         24    2    1    2    0    0 -0.32693769897E+02  0.27559666518E+02 -0.39890089568E+02  0.99732819011E+02  0.80789839296E+02 0.  0.
        -11    1    5    5    0    0 -0.31398149521E+02  0.52020613960E+02 -0.43833244350E+02  0.74922235553E+02  0.00000000000E+00 0.  1.
         12    1    5    5    0    0 -0.12956203755E+01 -0.24460947441E+02  0.39431547817E+01  0.24810583458E+02  0.00000000000E+00 0. -1.
         11    1    3    3    0    0  0.54504593047E+02  0.55976013911E+02 -0.52450705060E+03  0.53029398538E+03  0.00000000000E+00 0. -1.
        -12    1    3    3    0    0 -0.25671893299E+01 -0.22953831923E+02 -0.20956200733E+03  0.21083098391E+03  0.00000000000E+00 0.  1.
          5    1    4    4  501    0  0.43593799836E+02 -0.63570540070E+02 -0.13329221892E+03  0.15403220759E+03  0.41800000000E+01 0. -1.
         -5    1    4    4    0  501 -0.62837433657E+02  0.29886915638E+01 -0.11736094500E+03  0.13322364339E+03  0.41800000000E+01 0. -1.
</event>
<event>
11    1  0.8479398E-009  0.1367591E+03  0.7561462E-02  0.1111232E+00
         22   -1    0    0    0    0  0.00000000000E+00  0.00000000000E+00  0.13635604610E+04  0.13635604610E+04  0.00000000000E+00 0.  1.
         22   -1    0    0    0    0 -0.00000000000E+00 -0.00000000000E+00 -0.40050793600E+03  0.40050793600E+03  0.00000000000E+00 0.  1.
         24    2    1    2    0    0 -0.23636700598E+01 -0.55791944990E+02 -0.36393422156E+03  0.37698707228E+03  0.80949410048E+02 0.  0.
         25    2    1    2    0    0 -0.89748283405E+01  0.42435955380E+02  0.12381966269E+03  0.18127386311E+03  0.12509015439E+03 0.  0.
        -24    2    1    2    0    0  0.11338498400E+02  0.13355989610E+02  0.12031670839E+04  0.12058074616E+04  0.77805261837E+02 0.  0.
        -13    1    3    3    0    0 -0.38409061216E+02 -0.14716682061E+02 -0.19994427663E+03  0.20413120896E+03  0.00000000000E+00 0.  1.
         14    1    3    3    0    0  0.36045391157E+02 -0.41075262928E+02 -0.16398994493E+03  0.17285586332E+03  0.00000000000E+00 0. -1.
         11    1    5    5    0    0 -0.18766056924E+02  0.38785630199E+01  0.82508989996E+02  0.84705026850E+02  0.00000000000E+00 0. -1.
        -12    1    5    5    0    0  0.30104555324E+02  0.94774265898E+01  0.11206580939E+04  0.11211024348E+04  0.00000000000E+00 0.  1.
          5    1    4    4  501    0  0.10782247948E+02 -0.18996131061E+02 -0.15884301932E+02  0.27329348949E+02  0.41800000000E+01 0. -1.
         -5    1    4    4    0  501 -0.19757076289E+02  0.61432086441E+02  0.13970396463E+03  0.15394451416E+03  0.41800000000E+01 0. -1.
</event>
<event>
11    1  0.8479398E-009  0.1533534E+03  0.7561462E-02  0.1093501E+00
         22   -1    0    0    0    0  0.00000000000E+00  0.00000000000E+00  0.32636899225E+02  0.32636899225E+02  0.00000000000E+00 0.  1.
         22   -1    0    0    0    0 -0.00000000000E+00 -0.00000000000E+00 -0.21811839236E+04  0.21811839236E+04  0.00000000000E+00 0. -1.
        -24    2    1    2    0    0  0.71213260737E+02 -0.36003542714E+02 -0.12341852469E+04  0.12393775860E+04  0.80473557674E+02 0.  0.
         25    2    1    2    0    0 -0.10755595744E+03  0.51890084676E+02 -0.82696427229E+03  0.84485453120E+03  0.12509359050E+03 0.  0.
         24    2    1    2    0    0  0.36342696701E+02 -0.15886541962E+02 -0.87397505211E+02  0.12958870562E+03  0.87073158257E+02 0.  0.
        -11    1    5    5    0    0  0.30515491364E+02 -0.41458762679E+02 -0.16599224715E+02  0.54088432009E+02  0.00000000000E+00 0.  1.
         12    1    5    5    0    0  0.58272053366E+01  0.25572220717E+02 -0.70798280496E+02  0.75500273613E+02  0.00000000000E+00 0. -1.
         11    1    3    3    0    0  0.17554627688E+02 -0.22915967644E+02 -0.91455496824E+03  0.91501043516E+03  0.00000000000E+00 0. -1.
        -12    1    3    3    0    0  0.53658633049E+02 -0.13087575071E+02 -0.31963027864E+03  0.32436715084E+03  0.00000000000E+00 0.  1.
          5    1    4    4  501    0 -0.82093666671E+02  0.16729709057E+02 -0.76203257398E+03  0.76663574759E+03  0.41800000000E+01 0. -1.
         -5    1    4    4    0  501 -0.25462290766E+02  0.35160375619E+02 -0.64931698303E+02  0.78218783609E+02  0.41800000000E+01 0. -1.
</event>
<event>
11    1  0.8479398E-009  0.1520451E+03  0.7561462E-02  0.1094807E+00
         22   -1    0    0    0    0  0.00000000000E+00  0.00000000000E+00  0.48677754548E+03  0.48677754548E+03  0.00000000000E+00 0. -1.
         22   -1    0    0    0    0 -0.00000000000E+00 -0.00000000000E+00 -0.35911627729E+03  0.35911627729E+03  0.00000000000E+00 0.  1.
         24    2    1    2    0    0 -0.65521860528E+02 -0.59601967760E+02 -0.29639665249E+03  0.31957527826E+03  0.80198965686E+02 0.  0.
         25    2    1    2    0    0 -0.21632505078E+01  0.89348770632E+02  0.97616953746E+02  0.18211131495E+03  0.12509028302E+03 0.  0.
        -24    2    1    2    0    0  0.67685111036E+02 -0.29746802872E+02  0.32644096693E+03  0.34420722957E+03  0.80304205744E+02 0.  0.
        -13    1    3    3    0    0 -0.42133232008E+02 -0.17600072248E+02 -0.24492238082E+03  0.24914241792E+03  0.00000000000E+00 0.  1.
         14    1    3    3    0    0 -0.23388628520E+02 -0.42001895512E+02 -0.51474271673E+02  0.70432860335E+02  0.00000000000E+00 0. -1.
         13    1    5    5    0    0  0.47896035018E+02 -0.57612377286E+02  0.22925467543E+03  0.24118648883E+03  0.00000000000E+00 0. -1.
        -14    1    5    5    0    0  0.19789076018E+02  0.27865574414E+02  0.97186291502E+02  0.10302074074E+03  0.00000000000E+00 0.  1.
          5    1    4    4  501    0  0.39466145390E+02  0.72491634333E+02  0.10783448784E+03  0.13586155765E+03  0.41800000000E+01 0.  1.
         -5    1    4    4    0  501 -0.41629395898E+02  0.16857136299E+02 -0.10217534090E+02  0.46249757296E+02  0.41800000000E+01 0.  1.
</event>
<event>
11    1  0.8479398E-009  0.1271149E+03  0.7561462E-02  0.1122865E+00
         22   -1    0    0    0    0  0.00000000000E+00  0.00000000000E+00  0.19625062142E+03  0.19625062142E+03  0.00000000000E+00 0.  1.
         22   -1    0    0    0    0 -0.00000000000E+00 -0.00000000000E+00 -0.41052629066E+03  0.41052629066E+03  0.00000000000E+00 0.  1.
        -24    2    1    2    0    0 -0.62549956775E+01 -0.17373193710E+02 -0.31033428665E+03  0.32106174067E+03  0.80201739526E+02 0.  0.
         25    2    1    2    0    0  0.18551735691E+02  0.33529200346E+02 -0.30680594847E+02  0.13437689388E+03  0.12508987384E+03 0.  0.
         24    2    1    2    0    0 -0.12296740014E+02 -0.16156006636E+02  0.12673921226E+03  0.15133827752E+03  0.80176180709E+02 0.  0.
        -11    1    5    5    0    0  0.10419663508E+02 -0.88737536948E+01  0.12674638157E+03  0.12748316804E+03  0.00000000000E+00 0.  1.
         12    1    5    5    0    0 -0.22716403522E+02 -0.72822529412E+01 -0.71693123540E-02  0.23855109479E+02  0.00000000000E+00 0. -1.
         11    1    3    3    0    0  0.33408395315E+01  0.27889391781E+02 -0.19130344433E+03  0.19335456342E+03  0.00000000000E+00 0. -1.
        -12    1    3    3    0    0 -0.95958352090E+01 -0.45262585491E+02 -0.11903084232E+03  0.12770717725E+03  0.00000000000E+00 0.  1.
          5    1    4    4  501    0  0.44266323192E+02  0.22781078645E+02 -0.70000620880E+02  0.86000257190E+02  0.41800000000E+01 0.  1.
         -5    1    4    4    0  501 -0.25714587501E+02  0.10748121701E+02  0.39320026033E+02  0.48376636692E+02  0.41800000000E+01 0.  1.
</event>
<event>
11    1  0.8479398E-009  0.1428981E+03  0.7561462E-02  0.1104365E+00
         22   -1    0    0    0    0  0.00000000000E+00  0.00000000000E+00  0.64750576661E+03  0.64750576661E+03  0.00000000000E+00 0. -1.
         22   -1    0    0    0    0 -0.00000000000E+00 -0.00000000000E+00 -0.84399286756E+02  0.84399286756E+02  0.00000000000E+00 0.  1.
        -24    2    1    2    0    0  0.30697850979E+02  0.18704127547E+02 -0.16929071645E+02  0.94078560449E+02  0.85275902971E+02 0.  0.
         25    2    1    2    0    0 -0.10934657604E+02  0.54682254788E+02  0.20416299029E+03  0.24584362594E+03  0.12508735382E+03 0.  0.
         24    2    1    2    0    0 -0.19763193375E+02 -0.73386382335E+02  0.37587256122E+03  0.39198286698E+03  0.81204930930E+02 0.  0.
        -13    1    5    5    0    0 -0.32001524192E+02 -0.57689709870E+01  0.55505294394E+02  0.64328969233E+02  0.00000000000E+00 0.  1.
         14    1    5    5    0    0  0.12238330817E+02 -0.67617411348E+02  0.32036726682E+03  0.32765389775E+03  0.00000000000E+00 0. -1.
         11    1    3    3    0    0 -0.19196640784E+02  0.26877685152E+02  0.12804280477E+02  0.35424152426E+02  0.00000000000E+00 0. -1.
        -12    1    3    3    0    0  0.49894491763E+02 -0.81735576054E+01 -0.29733352122E+02  0.58654408024E+02  0.00000000000E+00 0.  1.
          5    1    4    4  501    0  0.11176956303E+02  0.26485537792E+02 -0.84010462795E+01  0.30240007323E+02  0.41800000000E+01 0. -1.
         -5    1    4    4    0  501 -0.22111613907E+02  0.28196716997E+02  0.21256403657E+03  0.21560361861E+03  0.41800000000E+01 0. -1.
</event>
<event>
11    1  0.8479398E-009  0.1351954E+03  0.7561462E-02  0.1113045E+00
         22   -1    0    0    0    0  0.00000000000E+00  0.00000000000E+00  0.85713276305E+03  0.85713276305E+03  0.00000000000E+00 0.  1.
         22   -1    0    0    0    0 -0.00000000000E+00 -0.00000000000E+00 -0.26756260773E+03  0.26756260773E+03  0.00000000000E+00 0. -1.
         24    2    1    2    0    0  0.13682916651E+02 -0.10163061087E+01 -0.19535782239E+03  0.21212056267E+03  0.81499688670E+02 0.  0.
         25    2    1    2    0    0  0.37398375273E+02  0.10200312377E+02  0.95683507258E+01  0.13130805651E+03  0.12509023752E+03 0.  0.
        -24    2    1    2    0    0 -0.51081291925E+02 -0.91840062678E+01  0.77535962699E+03  0.78126675160E+03  0.80632137752E+02 0.  0.
        -13    1    3    3    0    0  0.20483852556E+02 -0.12387410351E+02 -0.94416846350E+01  0.25732888674E+02  0.00000000000E+00 0.  1.
         14    1    3    3    0    0 -0.68009359047E+01  0.11371104242E+02 -0.18591613776E+03  0.18638767400E+03  0.00000000000E+00 0. -1.
         11    1    5    5    0    0 -0.70261050112E+01  0.39073363626E+01  0.48530656773E+01  0.93907228447E+01  0.00000000000E+00 0. -1.
        -12    1    5    5    0    0 -0.44055186914E+02 -0.13091342630E+02  0.77050656131E+03  0.77187602875E+03  0.00000000000E+00 0.  1.
          5    1    4    4  501    0 -0.43165733967E+02  0.20806121472E+02 -0.59750760141E+01  0.48470085754E+02  0.41800000000E+01 0. -1.
         -5    1    4    4    0  501  0.80564109240E+02 -0.10605809095E+02  0.15543426740E+02  0.82837970756E+02  0.41800000000E+01 0. -1.
</event>
<event>
11    1  0.8479398E-009  0.2436024E+03  0.7561462E-02  0.1027364E+00
         22   -1    0    0    0    0  0.00000000000E+00  0.00000000000E+00  0.29347200441E+04  0.29347200441E+04  0.00000000000E+00 0. -1.
         22   -1    0    0    0    0 -0.00000000000E+00 -0.00000000000E+00 -0.13641900181E+03  0.13641900181E+03  0.00000000000E+00 0. -1.
         24    2    1    2    0    0 -0.86779169253E+02  0.18584283994E+03 -0.86680513488E+01  0.22048383669E+03  0.80435077870E+02 0.  0.
         25    2    1    2    0    0  0.11287587701E+03 -0.21469547475E+03  0.87666062848E+03  0.91815899802E+03  0.12508787959E+03 0.  0.
        -24    2    1    2    0    0 -0.26096707759E+02  0.28852634802E+02  0.19303084651E+04  0.19324962112E+04  0.83290593720E+02 0.  0.
        -13    1    3    3    0    0 -0.15366357323E+01  0.52780117105E+02  0.25761153784E+02  0.58751502579E+02  0.00000000000E+00 0.  1.
         14    1    3    3    0    0 -0.85242533521E+02  0.13306272284E+03 -0.34429205133E+02  0.16173233411E+03  0.00000000000E+00 0. -1.
         13    1    5    5    0    0 -0.38914699439E+02  0.40971235797E+02  0.77665489367E+03  0.77870778849E+03  0.00000000000E+00 0. -1.
        -14    1    5    5    0    0  0.12817991680E+02 -0.12118600995E+02  0.11536535714E+04  0.11537884227E+04  0.00000000000E+00 0.  1.
          5    1    4    4  501    0  0.96959700934E+02 -0.60485750833E+02  0.30155517520E+03  0.32251000876E+03  0.41800000000E+01 0. -1.
         -5    1    4    4    0  501  0.15916176079E+02 -0.15420972391E+03  0.57510545328E+03  0.59564898926E+03  0.41800000000E+01 0. -1.
</event>
<event>
11    1  0.8479398E-009  0.1477462E+03  0.7561462E-02  0.1099204E+00
         22   -1    0    0    0    0  0.00000000000E+00  0.00000000000E+00  0.17237571125E+04  0.17237571125E+04  0.00000000000E+00 0.  1.
         22   -1    0    0    0    0 -0.00000000000E+00 -0.00000000000E+00 -0.10443440107E+03  0.10443440107E+03  0.00000000000E+00 0.  1.
        -24    2    1    2    0    0 -0.62460302661E+02  0.24451008947E+02 -0.51808365807E+02  0.12005728973E+03  0.85032375024E+02 0.  0.
         25    2    1    2    0    0  0.10323625252E+03  0.40214057951E+02  0.41932563167E+03  0.45139328476E+03  0.12508804044E+03 0.  0.
         24    2    1    2    0    0 -0.40775949860E+02 -0.64665066897E+02  0.12518054456E+04  0.12567409391E+04  0.80849647006E+02 0.  0.
        -11    1    5    5    0    0 -0.14982560275E+02 -0.67260215360E+02  0.52880105734E+03  0.53327194931E+03  0.00000000000E+00 0.  1.
         12    1    5    5    0    0 -0.25793389585E+02  0.25951484634E+01  0.72300438823E+03  0.72346898976E+03  0.00000000000E+00 0. -1.
         11    1    3    3    0    0 -0.20967634586E+02 -0.74841872210E+01  0.20847752004E+02  0.30500549538E+02  0.00000000000E+00 0. -1.
        -12    1    3    3    0    0 -0.41492668075E+02  0.31935196167E+02 -0.72656117811E+02  0.89556740190E+02  0.00000000000E+00 0.  1.
          5    1    4    4  501    0  0.37646480279E+02  0.19591408516E+02  0.35367488333E+03  0.35623654538E+03  0.41800000000E+01 0.  1.
         -5    1    4    4    0  501  0.65589772241E+02  0.20622649435E+02  0.65650748340E+02  0.95156739383E+02  0.41800000000E+01 0.  1.
</event>
<event>
11    1  0.8479398E-009  0.2023742E+03  0.7561462E-02  0.1052857E+00
         22   -1    0    0    0    0  0.00000000000E+00  0.00000000000E+00  0.24333698851E+03  0.24333698851E+03  0.00000000000E+00 0. -1.
         22   -1    0    0    0    0 -0.00000000000E+00 -0.00000000000E+00 -0.48839306689E+03  0.48839306689E+03  0.00000000000E+00 0. -1.
        -24    2    1    2    0    0  0.49859671269E+02  0.14710643720E+03 -0.33379577160E+03  0.37698400047E+03  0.81061882463E+02 0.  0.
         25    2    1    2    0    0  0.93295067125E+01 -0.19134650717E+03  0.17243144314E+02  0.22944673033E+03  0.12509176844E+03 0.  0.
         24    2    1    2    0    0 -0.59189177982E+02  0.44240069972E+02  0.71496548903E+02  0.12529932460E+03  0.71607413442E+02 0.  0.
        -13    1    5    5    0    0 -0.46671123464E+02 -0.29088841853E+01  0.11840980930E+02  0.48237580806E+02  0.00000000000E+00 0.  1.
         14    1    5    5    0    0 -0.12518054518E+02  0.47148954157E+02  0.59655567972E+02  0.77061743798E+02  0.00000000000E+00 0. -1.
         13    1    3    3    0    0  0.24196518191E+02  0.45722612869E+02 -0.20316263978E+03  0.20964514547E+03  0.00000000000E+00 0. -1.
        -14    1    3    3    0    0  0.25663153078E+02  0.10138382433E+03 -0.13063313183E+03  0.16733885500E+03  0.00000000000E+00 0.  1.
          5    1    4    4  501    0 -0.24721526341E+02 -0.96488414222E+02  0.63789319087E+02  0.11835420387E+03  0.41800000000E+01 0. -1.
         -5    1    4    4    0  501  0.34051033054E+02 -0.94858092945E+02 -0.46546174773E+02  0.11109252646E+03  0.41800000000E+01 0. -1.
</event>
<event>
11    1  0.8479398E-009  0.1288335E+03  0.7561462E-02  0.1120711E+00
         22   -1    0    0    0    0  0.00000000000E+00  0.00000000000E+00  0.19521116841E+03  0.19521116841E+03  0.00000000000E+00 0.  1.
         22   -1    0    0    0    0 -0.00000000000E+00 -0.00000000000E+00 -0.86559060667E+03  0.86559060667E+03  0.00000000000E+00 0. -1.
         24    2    1    2    0    0  0.24195057748E+02 -0.20193984655E+02 -0.77913349981E+03  0.78428787513E+03  0.84055117112E+02 0.  0.
         25    2    1    2    0    0 -0.65568680999E+01  0.17323164678E+02 -0.16280400556E+02  0.12749637742E+03  0.12508872954E+03 0.  0.
        -24    2    1    2    0    0 -0.17638189648E+02  0.28708199769E+01  0.12503446211E+03  0.14901752254E+03  0.79077544010E+02 0.  0.
        -13    1    3    3    0    0 -0.30637539594E+02 -0.32154255023E+01 -0.20659461857E+03  0.20887875482E+03  0.00000000000E+00 0.  1.
         14    1    3    3    0    0  0.54832597341E+02 -0.16978559153E+02 -0.57253888124E+03  0.57540912031E+03  0.00000000000E+00 0. -1.
         13    1    5    5    0    0  0.71478618019E+01 -0.16107473487E+01 -0.95834065056E+01  0.12063503455E+02  0.00000000000E+00 0. -1.
        -14    1    5    5    0    0 -0.24786051450E+02  0.44815673256E+01  0.13461786861E+03  0.13695401908E+03  0.00000000000E+00 0.  1.
          5    1    4    4  501    0 -0.50472036816E+02  0.26736123164E+02  0.28471862894E+02  0.63955970471E+02  0.41800000000E+01 0. -1.
         -5    1    4    4    0  501  0.43915168717E+02 -0.94129584859E+01 -0.44752263450E+02  0.63540406945E+02  0.41800000000E+01 0. -1.
</event>
<event>
11    1  0.8479398E-009  0.1315438E+03  0.7561462E-02  0.1117387E+00
         22   -1    0    0    0    0  0.00000000000E+00  0.00000000000E+00  0.41890389870E+03  0.41890389870E+03  0.00000000000E+00 0. -1.
         22   -1    0    0    0    0 -0.00000000000E+00 -0.00000000000E+00 -0.22488440458E+04  0.22488440458E+04  0.00000000000E+00 0.  1.
        -24    2    1    2    0    0 -0.35253984003E+02 -0.46336206800E+02 -0.22159328292E+04  0.22180217197E+04  0.76630006246E+02 0.  0.
         25    2    1    2    0    0 -0.17537869468E+02  0.31078810148E+02  0.18094168590E+03  0.22284303039E+03  0.12508258548E+03 0.  0.
         24    2    1    2    0    0  0.52791853471E+02  0.15257396652E+02  0.20505099625E+03  0.22688319442E+03  0.80064379731E+02 0.  0.
        -11    1    5    5    0    0  0.40874141520E+02  0.27187551050E+02  0.47089350780E+02  0.68024005571E+02  0.00000000000E+00 0.  1.
         12    1    5    5    0    0  0.11917711951E+02 -0.11930154398E+02  0.15796164547E+03  0.15885918885E+03  0.00000000000E+00 0. -1.
         11    1    3    3    0    0  0.14520171478E+02 -0.21952091792E+02 -0.26547041864E+03  0.26677194922E+03  0.00000000000E+00 0. -1.
        -12    1    3    3    0    0 -0.49774155481E+02 -0.24384115008E+02 -0.19504624106E+04  0.19512497705E+04  0.00000000000E+00 0.  1.
          5    1    4    4  501    0  0.38282876291E+02  0.17905725175E+02  0.15323287018E+03  0.15900936612E+03  0.41800000000E+01 0.  1.
         -5    1    4    4    0  501 -0.55820745759E+02  0.13173084973E+02  0.27708815718E+02  0.63833664264E+02  0.41800000000E+01 0.  1.
</event>
<event>
11    1  0.8479398E-009  0.2381298E+03  0.7561462E-02  0.1030420E+00
         22   -1    0    0    0    0  0.00000000000E+00  0.00000000000E+00  0.21360621388E+04  0.21360621388E+04  0.00000000000E+00 0.  1.
         22   -1    0    0    0    0 -0.00000000000E+00 -0.00000000000E+00 -0.39766424095E+03  0.39766424095E+03  0.00000000000E+00 0. -1.
        -24    2    1    2    0    0 -0.63795253095E+02  0.27903148550E+02 -0.28596557169E+03  0.30541681844E+03  0.81576373885E+02 0.  0.
         25    2    1    2    0    0  0.16206974529E+03 -0.20131697290E+03  0.11883358904E+03  0.31074852756E+03  0.12509236418E+03 0.  0.
         24    2    1    2    0    0 -0.98274492198E+02  0.17341382435E+03  0.19055298805E+04  0.19175610337E+04  0.79157832466E+02 0.  0.
        -13    1    5    5    0    0 -0.95314125967E+02  0.14918902945E+03  0.18207999740E+04  0.18293864257E+04  0.00000000000E+00 0.  1.
         14    1    5    5    0    0 -0.29603662312E+01  0.24224794904E+02  0.84729906445E+02  0.88174608037E+02  0.00000000000E+00 0. -1.
         13    1    3    3    0    0 -0.73085398479E+02  0.38299616699E+02 -0.27653950680E+03  0.28858696251E+03  0.00000000000E+00 0. -1.
        -14    1    3    3    0    0  0.92901453837E+01 -0.10396468150E+02 -0.94260648919E+01  0.16829855929E+02  0.00000000000E+00 0.  1.
          5    1    4    4  501    0  0.31232141143E+02 -0.25234239260E+02  0.77634668935E+02  0.87503301035E+02  0.41800000000E+01 0.  1.
         -5    1    4    4    0  501  0.13083760415E+03 -0.17608273364E+03  0.41198920106E+02  0.22324522652E+03  0.41800000000E+01 0.  1.
</event>
<event>
11    1  0.8479398E-009  0.1644985E+03  0.7561462E-02  0.1082921E+00
         22   -1    0    0    0    0  0.00000000000E+00  0.00000000000E+00  0.13124412549E+03  0.13124412549E+03  0.00000000000E+00 0.  1.
         22   -1    0    0    0    0 -0.00000000000E+00 -0.00000000000E+00 -0.78163682769E+03  0.78163682769E+03  0.00000000000E+00 0.  1.
        -24    2    1    2    0    0 -0.55738313643E+02  0.13007392269E+02 -0.57814609063E+03  0.58644783883E+03  0.79951320752E+02 0.  0.
         25    2    1    2    0    0  0.23074968646E+02  0.96483719935E+02 -0.94300857397E+02  0.18542761832E+03  0.12509671274E+03 0.  0.
         24    2    1    2    0    0  0.32663344997E+02 -0.10949111220E+03  0.22054245831E+02  0.14100549604E+03  0.79630160099E+02 0.  0.
        -13    1    5    5    0    0  0.18838690797E+02 -0.69927707556E+02  0.52292056976E+02  0.89326590541E+02  0.00000000000E+00 0.  1.
         14    1    5    5    0    0  0.13824654200E+02 -0.39563404649E+02 -0.30237811145E+02  0.51678905503E+02  0.00000000000E+00 0. -1.
         11    1    3    3    0    0  0.11221478514E+02  0.78614960531E+01 -0.19804988994E+02  0.24082406219E+02  0.00000000000E+00 0. -1.
        -12    1    3    3    0    0 -0.66959792157E+02  0.51458962160E+01 -0.55834110164E+03  0.56236543261E+03  0.00000000000E+00 0.  1.
          5    1    4    4  501    0  0.41727201752E+02  0.19944738696E+02 -0.95867499377E+02  0.10652230661E+03  0.41800000000E+01 0. -1.
         -5    1    4    4    0  501 -0.18652233107E+02  0.76538981239E+02  0.15666419802E+01  0.78905311710E+02  0.41800000000E+01 0. -1.
</event>
<event>
11    1  0.8479398E-009  0.2679352E+03  0.7561462E-02  0.1014756E+00
         22   -1    0    0    0    0  0.00000000000E+00  0.00000000000E+00  0.23658103536E+03  0.23658103536E+03  0.00000000000E+00 0.  1.
         22   -1    0    0    0    0 -0.00000000000E+00 -0.00000000000E+00 -0.85026338801E+03  0.85026338801E+03  0.00000000000E+00 0. -1.
        -24    2    1    2    0    0 -0.80787931255E+02 -0.70780033223E+02 -0.52997347658E+03  0.54669732803E+03  0.80433697287E+02 0.  0.
         25    2    1    2    0    0 -0.13923611530E+03  0.19087926190E+03 -0.15030686517E+02  0.26775969771E+03  0.12509094993E+03 0.  0.
         24    2    1    2    0    0  0.22002404655E+03 -0.12009922868E+03 -0.68678189562E+02  0.27238739763E+03  0.81509477210E+02 0.  0.
        -13    1    5    5    0    0  0.20149555125E+03 -0.10254617961E+03 -0.85614900330E+02  0.24175625593E+03  0.00000000000E+00 0.  1.
         14    1    5    5    0    0  0.18528495307E+02 -0.17553049070E+02  0.16936710768E+02  0.30631141696E+02  0.00000000000E+00 0. -1.
         13    1    3    3    0    0 -0.67898905485E+02 -0.81677429000E+02 -0.50802498063E+03  0.51900948423E+03  0.00000000000E+00 0. -1.
        -14    1    3    3    0    0 -0.12889025770E+02  0.10897395776E+02 -0.21948495945E+02  0.27687843799E+02  0.00000000000E+00 0.  1.
          5    1    4    4  501    0 -0.91030563910E+02  0.38497891815E+02  0.26815713776E+02  0.10249490790E+03  0.41800000000E+01 0. -1.
         -5    1    4    4    0  501 -0.48205551389E+02  0.15238137009E+03 -0.41846400292E+02  0.16526478981E+03  0.41800000000E+01 0. -1.
</event>
<event>
11    1  0.8479398E-009  0.1571560E+03  0.7561462E-02  0.1089783E+00
         22   -1    0    0    0    0  0.00000000000E+00  0.00000000000E+00  0.13484819489E+04  0.13484819489E+04  0.00000000000E+00 0.  1.
         22   -1    0    0    0    0 -0.00000000000E+00 -0.00000000000E+00 -0.30727909462E+03  0.30727909462E+03  0.00000000000E+00 0. -1.
         24    2    1    2    0    0 -0.60069667018E+02 -0.74752596810E+02 -0.27451048248E+03  0.30069327099E+03  0.76577559394E+02 0.  0.
         25    2    1    2    0    0  0.55932680009E+02  0.53855022000E+02  0.28343019401E+03  0.31939497619E+03  0.12510654601E+03 0.  0.
        -24    2    1    2    0    0  0.41369870092E+01  0.20897574810E+02  0.10322831428E+04  0.10356727964E+04  0.80968086216E+02 0.  0.
        -13    1    3    3    0    0  0.59158589412E+01 -0.93241127922E+01 -0.11916953088E+03  0.11968004661E+03  0.00000000000E+00 0.  1.
         14    1    3    3    0    0 -0.65985525959E+02 -0.65428484018E+02 -0.15534095160E+03  0.18101322438E+03  0.00000000000E+00 0. -1.
         13    1    5    5    0    0  0.27723136071E+02 -0.49886373800E+01  0.14568063035E+03  0.14837892315E+03  0.00000000000E+00 0. -1.
        -14    1    5    5    0    0 -0.23586149062E+02  0.25886212190E+02  0.88660251243E+03  0.88729387322E+03  0.00000000000E+00 0.  1.
          5    1    4    4  501    0  0.32305374560E+02 -0.31823380878E+02  0.41462473930E+02  0.61587124794E+02  0.41800000000E+01 0.  1.
         -5    1    4    4    0  501  0.23627305449E+02  0.85678402879E+02  0.24196772008E+03  0.25780785140E+03  0.41800000000E+01 0.  1.
</event>
<event>
11    1  0.8479398E-009  0.1729540E+03  0.7561462E-02  0.1075489E+00
         22   -1    0    0    0    0  0.00000000000E+00  0.00000000000E+00  0.26328410415E+03  0.26328410415E+03  0.00000000000E+00 0. -1.
         22   -1    0    0    0    0 -0.00000000000E+00 -0.00000000000E+00 -0.89904407710E+03  0.89904407710E+03  0.00000000000E+00 0.  1.
         24    2    1    2    0    0  0.14954168920E+02 -0.11962226794E+02 -0.62515432220E+03  0.63053266763E+03  0.79917434515E+02 0.  0.
         25    2    1    2    0    0  0.10197908929E+03  0.40596789890E+02 -0.22108383143E+03  0.27672082097E+03  0.12509403758E+03 0.  0.
        -24    2    1    2    0    0 -0.11693325821E+03 -0.28634563096E+02  0.21047818068E+03  0.25507469265E+03  0.79175180500E+02 0.  0.
        -11    1    3    3    0    0  0.36586323286E+02 -0.34957547431E+02 -0.38112435194E+03  0.38446893348E+03  0.00000000000E+00 0.  1.
         12    1    3    3    0    0 -0.21632154366E+02  0.22995320636E+02 -0.24402997027E+03  0.24606373415E+03  0.00000000000E+00 0. -1.
         11    1    5    5    0    0 -0.12112289609E+03 -0.99739162769E+01  0.19771878147E+03  0.23208393204E+03  0.00000000000E+00 0. -1.
        -12    1    5    5    0    0  0.41896378819E+01 -0.18660646819E+02  0.12759399213E+02  0.22990760613E+02  0.00000000000E+00 0.  1.
          5    1    4    4  501    0  0.48120961211E+02 -0.28770255281E+02 -0.24413860098E+02  0.61293257881E+02  0.41800000000E+01 0. -1.
         -5    1    4    4    0  501  0.53858128079E+02  0.69367045171E+02 -0.19666997133E+03  0.21542756309E+03  0.41800000000E+01 0. -1.
</event>
<event>
11    1  0.8479398E-009  0.2093775E+03  0.7561462E-02  0.1048084E+00
         22   -1    0    0    0    0  0.00000000000E+00  0.00000000000E+00  0.93287787467E+03  0.93287787467E+03  0.00000000000E+00 0. -1.
         22   -1    0    0    0    0 -0.00000000000E+00 -0.00000000000E+00 -0.10246378392E+04  0.10246378392E+04  0.00000000000E+00 0.  1.
         24    2    1    2    0    0  0.33753879101E+02 -0.88651713702E+01 -0.93257632097E+03  0.93659746660E+03  0.79361857228E+02 0.  0.
         25    2    1    2    0    0  0.13105411045E+03 -0.40825842449E+02  0.29853306258E+02  0.18809700099E+03  0.12508929854E+03 0.  0.
        -24    2    1    2    0    0 -0.16480798955E+03  0.49691013820E+02  0.81096305016E+03  0.83282124631E+03  0.79368062286E+02 0.  0.
        -11    1    3    3    0    0  0.52622370661E+02 -0.18861763464E+02 -0.82678935147E+03  0.82867696463E+03  0.00000000000E+00 0.  1.
         12    1    3    3    0    0 -0.18868491560E+02  0.99965920942E+01 -0.10578696950E+03  0.10792050196E+03  0.00000000000E+00 0. -1.
         11    1    5    5    0    0 -0.10686582844E+03  0.69118889070E+02  0.50284447546E+03  0.51870058089E+03  0.00000000000E+00 0. -1.
        -12    1    5    5    0    0 -0.57942161114E+02 -0.19427875250E+02  0.30811857470E+03  0.31412066542E+03  0.00000000000E+00 0.  1.
          5    1    4    4  501    0  0.64368126698E+02  0.20533336256E+02 -0.35361149153E+02  0.76372487859E+02  0.41800000000E+01 0. -1.
         -5    1    4    4    0  501  0.66685983754E+02 -0.61359178706E+02  0.65214455411E+02  0.11172451313E+03  0.41800000000E+01 0. -1.
</event>
<event>
11    1  0.1041823E-008  0.1564818E+03  0.7561462E-02  0.1090434E+00
         22   -1    0    0    0    0  0.00000000000E+00  0.00000000000E+00  0.42616683839E+03  0.42616683839E+03  0.00000000000E+00 0.  1.
         22   -1    0    0    0    0 -0.00000000000E+00 -0.00000000000E+00 -0.42508932038E+03  0.42508932038E+03  0.00000000000E+00 0.  1.
         24    2    1    2    0    0 -0.45188801874E+02 -0.47629008590E+02 -0.17249208370E+03  0.20158952153E+03  0.81081847394E+02 0.  0.
         25    2    1    2    0    0  0.70540182895E+01  0.13234770963E+03 -0.19134742555E+03  0.26424884411E+03  0.12509172206E+03 0.  0.
        -24    2    1    2    0    0  0.38134783584E+02 -0.84718701040E+02  0.36491702727E+03  0.38541779314E+03  0.82163972953E+02 0.  0.
        -11    1    3    3    0    0 -0.67750085798E+02 -0.40647788940E+02 -0.11590763883E+03  0.14027436548E+03  0.00000000000E+00 0.  1.
         12    1    3    3    0    0  0.22561283924E+02 -0.69812196506E+01 -0.56584444871E+02  0.61315156050E+02  0.00000000000E+00 0. -1.
         11    1    5    5    0    0  0.22525859242E+02 -0.49276262182E+02  0.72822802294E+02  0.90767421927E+02  0.00000000000E+00 0. -1.
        -12    1    5    5    0    0  0.15608924342E+02 -0.35442438858E+02  0.29209422498E+03  0.29465037121E+03  0.00000000000E+00 0.  1.
          5    1    4    4  501    0 -0.66713668314E+01  0.49568862799E+02  0.52390782543E+01  0.50462854017E+02  0.41800000000E+01 0. -1.
         -5    1    4    4    0  501  0.13725385121E+02  0.82778846831E+02 -0.19658650381E+03  0.21378599009E+03  0.41800000000E+01 0. -1.
</event>
<event>
11    1  0.8479398E-009  0.1295931E+03  0.7561462E-02  0.1119770E+00
         22   -1    0    0    0    0  0.00000000000E+00  0.00000000000E+00  0.53316297289E+03  0.53316297289E+03  0.00000000000E+00 0. -1.
         22   -1    0    0    0    0 -0.00000000000E+00 -0.00000000000E+00 -0.38703950713E+03  0.38703950713E+03  0.00000000000E+00 0.  1.
        -24    2    1    2    0    0  0.11362603196E+02 -0.16053993409E+02 -0.16120330678E+03  0.18104562012E+03  0.80026064454E+02 0.  0.
         25    2    1    2    0    0 -0.18132750168E+02  0.48912454605E+02 -0.19058707848E+03  0.23386478808E+03  0.12509228505E+03 0.  0.
         24    2    1    2    0    0  0.67701469720E+01 -0.32858461196E+02  0.49791385101E+03  0.50529207182E+03  0.79223490517E+02 0.  0.
        -13    1    5    5    0    0  0.23461605882E+02 -0.13272487003E+02  0.51418201325E+02  0.58055467350E+02  0.00000000000E+00 0.  1.
         14    1    5    5    0    0 -0.16691458910E+02 -0.19585974194E+02  0.44649564969E+03  0.44723660447E+03  0.00000000000E+00 0. -1.
         13    1    3    3    0    0  0.11529521480E+02 -0.45505093279E+02 -0.63290636565E+02  0.78799416601E+02  0.00000000000E+00 0. -1.
        -14    1    3    3    0    0 -0.16691828336E+00  0.29451099870E+02 -0.97912670214E+02  0.10224620352E+03  0.00000000000E+00 0.  1.
          5    1    4    4  501    0 -0.50139285810E+02 -0.33781705604E+01 -0.15468041398E+03  0.16269254097E+03  0.41800000000E+01 0. -1.
         -5    1    4    4    0  501  0.32006535642E+02  0.52290625166E+02 -0.35906664500E+02  0.71172247116E+02  0.41800000000E+01 0. -1.
</event>
<event>
11    1  0.8479398E-009  0.3831159E+03  0.7561462E-02  0.9700932E-01
         22   -1    0    0    0    0  0.00000000000E+00  0.00000000000E+00  0.11609765062E+04  0.11609765062E+04  0.00000000000E+00 0.  1.
         22   -1    0    0    0    0 -0.00000000000E+00 -0.00000000000E+00 -0.85579359619E+03  0.85579359619E+03  0.00000000000E+00 0.  1.
        -24    2    1    2    0    0  0.26670506273E+01 -0.17730426547E+02 -0.53414845097E+03  0.54013488454E+03  0.78164215870E+02 0.  0.
         25    2    1    2    0    0 -0.35472770937E+03  0.99454770585E+02 -0.15247550163E+03  0.41787398749E+03  0.12508753591E+03 0.  0.
         24    2    1    2    0    0  0.35206065874E+03 -0.81724344038E+02  0.99180686258E+03  0.10587612303E+04  0.81663421019E+02 0.  0.
        -11    1    5    5    0    0  0.29315407194E+03 -0.51821124510E+02  0.87888210033E+03  0.92793237098E+03  0.00000000000E+00 0.  1.
         12    1    5    5    0    0  0.58906586797E+02 -0.29903219528E+02  0.11292476225E+03  0.13082885934E+03  0.00000000000E+00 0. -1.
         11    1    3    3    0    0  0.20669129917E+02  0.24738815264E+02 -0.16536951890E+03  0.16848234238E+03  0.00000000000E+00 0. -1.
        -12    1    3    3    0    0 -0.18002079290E+02 -0.42469241811E+02 -0.36877893207E+03  0.37165254217E+03  0.00000000000E+00 0.  1.
          5    1    4    4  501    0 -0.18471945762E+03 -0.74428240138E+01 -0.46089476417E+02  0.19057383317E+03  0.41800000000E+01 0. -1.
         -5    1    4    4    0  501 -0.17000825174E+03  0.10689759460E+03 -0.10638602522E+03  0.22730015432E+03  0.41800000000E+01 0. -1.
</event>
<event>
11    1  0.8479398E-009  0.1691728E+03  0.7561462E-02  0.1078754E+00
         22   -1    0    0    0    0  0.00000000000E+00  0.00000000000E+00  0.15425968896E+03  0.15425968896E+03  0.00000000000E+00 0.  1.
         22   -1    0    0    0    0 -0.00000000000E+00 -0.00000000000E+00 -0.43049099796E+03  0.43049099796E+03  0.00000000000E+00 0.  1.
         24    2    1    2    0    0 -0.84604535409E+01 -0.10202557529E+02 -0.12887127113E+03  0.15224120317E+03  0.79961915716E+02 0.  0.
         25    2    1    2    0    0 -0.83914707417E+02  0.77018229970E+02 -0.21806763337E+03  0.27599750139E+03  0.12509053595E+03 0.  0.
        -24    2    1    2    0    0  0.92375160958E+02 -0.66815672441E+02  0.70707595492E+02  0.15651198236E+03  0.80615954479E+02 0.  0.
        -13    1    3    3    0    0  0.49688000190E+01  0.78299828342E+00 -0.13404247415E+03  0.13413682170E+03  0.00000000000E+00 0.  1.
         14    1    3    3    0    0 -0.13429253560E+02 -0.10985555812E+02  0.51712030183E+01  0.18104381468E+02  0.00000000000E+00 0. -1.
         11    1    5    5    0    0  0.14553514908E+02  0.11293826475E+02 -0.89567681217E+01  0.20483627799E+02  0.00000000000E+00 0. -1.
        -12    1    5    5    0    0  0.77821646049E+02 -0.78109498916E+02  0.79664363613E+02  0.13602835456E+03  0.00000000000E+00 0.  1.
          5    1    4    4  501    0 -0.40124127169E+02 -0.31732520427E+02 -0.76796442700E+02  0.92369174756E+02  0.41800000000E+01 0. -1.
         -5    1    4    4    0  501 -0.43790580248E+02  0.10875075040E+03 -0.14127119066E+03  0.18362832663E+03  0.41800000000E+01 0. -1.
</event>
<event>
11    1  0.8479398E-009  0.2229084E+03  0.7561462E-02  0.1039411E+00
         22   -1    0    0    0    0  0.00000000000E+00  0.00000000000E+00  0.18545336213E+03  0.18545336213E+03  0.00000000000E+00 0. -1.
         22   -1    0    0    0    0 -0.00000000000E+00 -0.00000000000E+00 -0.86994986628E+03  0.86994986628E+03  0.00000000000E+00 0. -1.
        -24    2    1    2    0    0 -0.14405835254E+03  0.11074133957E+03 -0.33602513617E+03  0.39025640919E+03  0.79816787385E+02 0.  0.
         25    2    1    2    0    0  0.14458607734E+03 -0.11889879386E+03 -0.46895466515E+03  0.52019943732E+03  0.12508764798E+03 0.  0.
         24    2    1    2    0    0 -0.52772479932E+00  0.81574542874E+01  0.12048329718E+03  0.14494738190E+03  0.80166676792E+02 0.  0.
        -11    1    5    5    0    0 -0.20347015836E+02  0.38871464173E+02  0.61241675925E+02  0.75336144383E+02  0.00000000000E+00 0.  1.
         12    1    5    5    0    0  0.19819291037E+02 -0.30714009886E+02  0.59241621253E+02  0.69611237520E+02  0.00000000000E+00 0. -1.
         11    1    3    3    0    0 -0.73461991026E+02  0.10376485516E+03 -0.20384674026E+03  0.24024425655E+03  0.00000000000E+00 0. -1.
        -12    1    3    3    0    0 -0.70596361513E+02  0.69764844144E+01 -0.13217839591E+03  0.15001215264E+03  0.00000000000E+00 0.  1.
          5    1    4    4  501    0  0.77374805721E+02 -0.42115191068E+02 -0.36089074406E+03  0.37151063434E+03  0.41800000000E+01 0. -1.
         -5    1    4    4    0  501  0.67211271618E+02 -0.76783602789E+02 -0.10806392109E+03  0.14868880298E+03  0.41800000000E+01 0. -1.
</event>
<event>
11    1  0.8479398E-009  0.1866078E+03  0.7561462E-02  0.1064420E+00
         22   -1    0    0    0    0  0.00000000000E+00  0.00000000000E+00  0.12809082375E+04  0.12809082375E+04  0.00000000000E+00 0.  1.
         22   -1    0    0    0    0 -0.00000000000E+00 -0.00000000000E+00 -0.12379765294E+04  0.12379765294E+04  0.00000000000E+00 0.  1.
        -24    2    1    2    0    0 -0.36194218329E+02  0.12599062691E+03 -0.10189672938E+04  0.10305338227E+04  0.80758618860E+02 0.  0.
         25    2    1    2    0    0  0.16720495864E+03 -0.80743847357E+02 -0.14751634885E+03  0.26811770349E+03  0.12509581395E+03 0.  0.
         24    2    1    2    0    0 -0.13101074031E+03 -0.45246779556E+02  0.12094153507E+04  0.12202332408E+04  0.84098669670E+02 0.  0.
        -13    1    5    5    0    0 -0.63145125169E+02 -0.64172596698E+02  0.59113130692E+03  0.59794786648E+03  0.00000000000E+00 0.  1.
         14    1    5    5    0    0 -0.67865615144E+02  0.18925817143E+02  0.61828404377E+03  0.62228537429E+03  0.00000000000E+00 0. -1.
         13    1    3    3    0    0 -0.17447744792E+02  0.89634895840E+02 -0.40329303952E+03  0.41350225401E+03  0.00000000000E+00 0. -1.
        -14    1    3    3    0    0 -0.18746473537E+02  0.36355731073E+02 -0.61567425423E+03  0.61703156870E+03  0.00000000000E+00 0.  1.
          5    1    4    4  501    0  0.17516929315E+03 -0.85544658342E+02 -0.15983668894E+03  0.25212578084E+03  0.41800000000E+01 0. -1.
         -5    1    4    4    0  501 -0.79643345085E+01  0.48008109846E+01  0.12320340086E+02  0.15991922652E+02  0.41800000000E+01 0. -1.
</event>
<event>
11    1  0.8479398E-009  0.1703770E+03  0.7561462E-02  0.1077704E+00
         22   -1    0    0    0    0  0.00000000000E+00  0.00000000000E+00  0.14715205747E+04  0.14715205747E+04  0.00000000000E+00 0.  1.
         22   -1    0    0    0    0 -0.00000000000E+00 -0.00000000000E+00 -0.85492403864E+02  0.85492403864E+02  0.00000000000E+00 0. -1.
        -24    2    1    2    0    0 -0.29686758023E+02 -0.45239442141E+02 -0.46823433162E+01  0.93164813161E+02  0.75695755133E+02 0.  0.
         25    2    1    2    0    0 -0.51465470499E+02 -0.43987660018E+02  0.11919439259E+03  0.18557502591E+03  0.12508868105E+03 0.  0.
         24    2    1    2    0    0  0.81152228523E+02  0.89227102159E+02  0.12715161215E+04  0.12782731395E+04  0.51786212550E+02 0.  0.
        -13    1    5    5    0    0  0.60539940389E+02  0.58189544323E+02  0.10737169829E+04  0.10769954813E+04  0.00000000000E+00 0.  1.
         14    1    5    5    0    0  0.20612288134E+02  0.31037557836E+02  0.19779913862E+03  0.20127765812E+03  0.00000000000E+00 0. -1.
         13    1    3    3    0    0  0.19999169563E+02 -0.30211112107E+02 -0.16681984642E+02  0.39886923791E+02  0.00000000000E+00 0. -1.
        -14    1    3    3    0    0 -0.49685927586E+02 -0.15028330034E+02  0.11999641326E+02  0.53277889370E+02  0.00000000000E+00 0.  1.
          5    1    4    4  501    0 -0.21042764086E+02 -0.10545563198E+01  0.12994327846E+03  0.13170663623E+03  0.41800000000E+01 0.  1.
         -5    1    4    4    0  501 -0.30422706414E+02 -0.42933103699E+02 -0.10748885874E+02  0.53868389676E+02  0.41800000000E+01 0.  1.
</event>
<event>
11    1  0.8479398E-009  0.1297537E+03  0.7561462E-02  0.1119572E+00
         22   -1    0    0    0    0  0.00000000000E+00  0.00000000000E+00  0.60328370667E+02  0.60328370667E+02  0.00000000000E+00 0. -1.
         22   -1    0    0    0    0 -0.00000000000E+00 -0.00000000000E+00 -0.58356180084E+03  0.58356180084E+03  0.00000000000E+00 0.  1.
        -24    2    1    2    0    0  0.18014014983E+02  0.12326840451E+02 -0.27402184339E+03  0.28566021515E+03  0.77700271143E+02 0.  0.
         25    2    1    2    0    0 -0.45719033081E+02  0.53895407773E+01 -0.23574691352E+03  0.27082118680E+03  0.12509288887E+03 0.  0.
         24    2    1    2    0    0  0.27705018098E+02 -0.17716381229E+02 -0.13464673258E+02  0.87408769553E+02  0.79859610425E+02 0.  0.
        -11    1    5    5    0    0  0.20474917477E+02 -0.28974612663E+02 -0.42545614439E+02  0.55397470454E+02  0.00000000000E+00 0.  1.
         12    1    5    5    0    0  0.72301006205E+01  0.11258231435E+02  0.29080941181E+02  0.32011299099E+02  0.00000000000E+00 0. -1.
         11    1    3    3    0    0  0.11512523442E+02 -0.16943051613E+02 -0.16240836372E+02  0.26141345796E+02  0.00000000000E+00 0. -1.
        -12    1    3    3    0    0  0.65014915411E+01  0.29269892064E+02 -0.25778100702E+03  0.25951886936E+03  0.00000000000E+00 0.  1.
          5    1    4    4  501    0 -0.83803212221E+02 -0.18721408736E+02 -0.13075187313E+03  0.15648320757E+03  0.41800000000E+01 0. -1.
         -5    1    4    4    0  501  0.38084179140E+02  0.24110949514E+02 -0.10499504039E+03  0.11433797922E+03  0.41800000000E+01 0. -1.
</event>
<event>
11    1  0.8479398E-009  0.1622786E+03  0.7561462E-02  0.1084954E+00
         22   -1    0    0    0    0  0.00000000000E+00  0.00000000000E+00  0.14322244578E+03  0.14322244578E+03  0.00000000000E+00 0.  1.
         22   -1    0    0    0    0 -0.00000000000E+00 -0.00000000000E+00 -0.10764519504E+04  0.10764519504E+04  0.00000000000E+00 0. -1.
        -24    2    1    2    0    0  0.36998075183E+02 -0.24619460896E+02 -0.64258649923E+03  0.64909083546E+03  0.80165630193E+02 0.  0.
         25    2    1    2    0    0 -0.12472859605E+03 -0.26827554849E+02 -0.37459404969E+03  0.41502501298E+03  0.12509244168E+03 0.  0.
         24    2    1    2    0    0  0.87730520866E+02  0.51447015745E+02  0.83951044334E+02  0.15555854770E+03  0.82506025214E+02 0.  0.
        -13    1    5    5    0    0  0.10190563192E+03  0.54605285592E+02  0.68633945343E+02  0.13445115650E+03  0.00000000000E+00 0.  1.
         14    1    5    5    0    0 -0.14175111050E+02 -0.31582698475E+01  0.15317098991E+02  0.21107391198E+02  0.00000000000E+00 0. -1.
         11    1    3    3    0    0  0.62458818034E+02 -0.15651109800E+02 -0.42901676049E+03  0.43382190121E+03  0.00000000000E+00 0. -1.
        -12    1    3    3    0    0 -0.25460742851E+02 -0.89683510957E+01 -0.21356973874E+03  0.21526893425E+03  0.00000000000E+00 0.  1.
          5    1    4    4  501    0 -0.23583489779E+01  0.27603529074E+02 -0.15701766571E+03  0.15949776291E+03  0.41800000000E+01 0. -1.
         -5    1    4    4    0  501 -0.12237024707E+03 -0.54431083923E+02 -0.21757638398E+03  0.25552725007E+03  0.41800000000E+01 0. -1.
</event>
<event>
11    1  0.8479398E-009  0.1428478E+03  0.7561462E-02  0.1104419E+00
         22   -1    0    0    0    0  0.00000000000E+00  0.00000000000E+00  0.48517829202E+03  0.48517829202E+03  0.00000000000E+00 0.  1.
         22   -1    0    0    0    0 -0.00000000000E+00 -0.00000000000E+00 -0.23814500291E+03  0.23814500291E+03  0.00000000000E+00 0. -1.
        -24    2    1    2    0    0  0.43304055363E+02  0.14552785289E+02 -0.18063334229E+03  0.20364078325E+03  0.82183571882E+02 0.  0.
         25    2    1    2    0    0 -0.31209037147E+02  0.57055363164E+02  0.95614453337E+02  0.17034539390E+03  0.12508441577E+03 0.  0.
         24    2    1    2    0    0 -0.12095018215E+02 -0.71608148453E+02  0.33205217806E+03  0.34933711778E+03  0.80645871035E+02 0.  0.
        -11    1    5    5    0    0 -0.41356417810E+02 -0.28909319843E+02  0.22280396123E+03  0.22844628954E+03  0.00000000000E+00 0.  1.
         12    1    5    5    0    0  0.29261399594E+02 -0.42698828610E+02  0.10924821684E+03  0.12089082824E+03  0.00000000000E+00 0. -1.
         13    1    3    3    0    0  0.53453849550E+02  0.31945294448E+02 -0.81958440963E+02  0.10293202570E+03  0.00000000000E+00 0. -1.
        -14    1    3    3    0    0 -0.10149794188E+02 -0.17392509159E+02 -0.98674901322E+02  0.10070875755E+03  0.00000000000E+00 0.  1.
          5    1    4    4  501    0  0.97706605141E+01  0.85742438807E+02  0.80071174629E+02  0.11779684642E+03  0.41800000000E+01 0.  1.
         -5    1    4    4    0  501 -0.40979697661E+02 -0.28687075642E+02  0.15543278708E+02  0.52548547481E+02  0.41800000000E+01 0.  1.
</event>
<event>
11    1  0.8479398E-009  0.1752878E+03  0.7561462E-02  0.1073520E+00
         22   -1    0    0    0    0  0.00000000000E+00  0.00000000000E+00  0.39107784555E+04  0.39107784555E+04  0.00000000000E+00 0.  1.
         22   -1    0    0    0    0 -0.00000000000E+00 -0.00000000000E+00 -0.12063641344E+04  0.12063641344E+04  0.00000000000E+00 0. -1.
        -24    2    1    2    0    0 -0.12211778223E+03 -0.96253658776E+01 -0.11830396964E+04  0.11920514260E+04  0.79989239217E+02 0.  0.
         25    2    1    2    0    0  0.16461055910E+03  0.48393690460E+02  0.60577700063E+03  0.64190716890E+03  0.12506179890E+03 0.  0.
         24    2    1    2    0    0 -0.42492776870E+02 -0.38768324583E+02  0.32816770169E+04  0.32831839950E+04  0.81144828255E+02 0.  0.
        -11    1    5    5    0    0 -0.64287761911E+02 -0.31680934560E+02  0.28481600921E+04  0.28490616891E+04  0.00000000000E+00 0.  1.
         12    1    5    5    0    0  0.21794985041E+02 -0.70873900233E+01  0.43351692471E+03  0.43412230590E+03  0.00000000000E+00 0. -1.
         11    1    3    3    0    0 -0.60729156113E+02 -0.23554021214E+02 -0.88724106353E+03  0.88962887044E+03  0.00000000000E+00 0. -1.
        -12    1    3    3    0    0 -0.61388626115E+02  0.13928655337E+02 -0.29579863291E+03  0.30242255552E+03  0.00000000000E+00 0.  1.
          5    1    4    4  501    0  0.14380057191E+03 -0.12541968349E+02  0.36214141263E+03  0.38987149241E+03  0.41800000000E+01 0. -1.
         -5    1    4    4    0  501  0.20809987185E+02  0.60935658809E+02  0.24363558800E+03  0.25203567649E+03  0.41800000000E+01 0. -1.
</event>
<event>
11    1  0.8479398E-009  0.2116979E+03  0.7561462E-02  0.1046546E+00
         22   -1    0    0    0    0  0.00000000000E+00  0.00000000000E+00  0.12956221667E+04  0.12956221667E+04  0.00000000000E+00 0. -1.
         22   -1    0    0    0    0 -0.00000000000E+00 -0.00000000000E+00 -0.14226740092E+04  0.14226740092E+04  0.00000000000E+00 0. -1.
         24    2    1    2    0    0  0.14830651998E+03 -0.76663636050E+02 -0.11271451552E+04  0.11420293181E+04  0.76828546395E+02 0.  0.
         25    2    1    2    0    0 -0.20816194265E+03  0.23318147947E+02 -0.23334965236E+03  0.33760109895E+03  0.12508921361E+03 0.  0.
        -24    2    1    2    0    0  0.59855422671E+02  0.53345488103E+02  0.12334429651E+04  0.12386657589E+04  0.80516467141E+02 0.  0.
        -13    1    3    3    0    0  0.96727578311E+02 -0.87146026318E+02 -0.74759120424E+03  0.75884337183E+03  0.00000000000E+00 0.  1.
         14    1    3    3    0    0  0.51578941668E+02  0.10482390269E+02 -0.37955395091E+03  0.38318594622E+03  0.00000000000E+00 0. -1.
         11    1    5    5    0    0 -0.33374113276E+01  0.27444459009E+02  0.74031680927E+03  0.74083285208E+03  0.00000000000E+00 0. -1.
        -12    1    5    5    0    0  0.63192833999E+02  0.25901029094E+02  0.49312615582E+03  0.49783290684E+03  0.00000000000E+00 0.  1.
          5    1    4    4  501    0 -0.10334716314E+03  0.70910523961E+02 -0.93526199294E+02  0.15644027899E+03  0.41800000000E+01 0.  1.
         -5    1    4    4    0  501 -0.10481477952E+03 -0.47592376015E+02 -0.13982345307E+03  0.18116081996E+03  0.41800000000E+01 0.  1.
</event>
<event>
11    1  0.8479398E-009  0.1579753E+03  0.7561462E-02  0.1088997E+00
         22   -1    0    0    0    0  0.00000000000E+00  0.00000000000E+00  0.54958168794E+03  0.54958168794E+03  0.00000000000E+00 0. -1.
         22   -1    0    0    0    0 -0.00000000000E+00 -0.00000000000E+00 -0.36363422667E+04  0.36363422667E+04  0.00000000000E+00 0. -1.
         24    2    1    2    0    0  0.11264181457E+02 -0.19156842592E+02 -0.35933885232E+04  0.35943559138E+04  0.80370952124E+02 0.  0.
         25    2    1    2    0    0 -0.74439326859E+02 -0.56110941956E+02  0.16646754791E+03  0.22817428946E+03  0.12514955323E+03 0.  0.
        -24    2    1    2    0    0  0.63175145401E+02  0.75267784547E+02  0.34016039659E+03  0.36339375133E+03  0.81789881494E+02 0.  0.
        -11    1    3    3    0    0  0.94340553464E+01 -0.96947474383E+01 -0.95417918758E+02  0.96372033019E+02  0.00000000000E+00 0.  1.
         12    1    3    3    0    0  0.18301261108E+01 -0.94620951534E+01 -0.34979706045E+04  0.34979838808E+04  0.00000000000E+00 0. -1.
         13    1    5    5    0    0  0.67440730852E+02  0.50837306140E+02  0.15443135141E+03  0.17601626678E+03  0.00000000000E+00 0. -1.
        -14    1    5    5    0    0 -0.42655854508E+01  0.24430478407E+02  0.18572904518E+03  0.18737748455E+03  0.00000000000E+00 0.  1.
          5    1    4    4  501    0 -0.38741260908E+02 -0.85812855461E+02  0.59421055093E+02  0.11141393830E+03  0.41800000000E+01 0. -1.
         -5    1    4    4    0  501 -0.35698065951E+02  0.29701913505E+02  0.10704649281E+03  0.11676035116E+03  0.41800000000E+01 0. -1.
</event>
<event>
11    1  0.8479398E-009  0.1460059E+03  0.7561462E-02  0.1101031E+00
         22   -1    0    0    0    0  0.00000000000E+00  0.00000000000E+00  0.32355147580E+04  0.32355147580E+04  0.00000000000E+00 0.  1.
         22   -1    0    0    0    0 -0.00000000000E+00 -0.00000000000E+00 -0.14238860910E+03  0.14238860910E+03  0.00000000000E+00 0. -1.
        -24    2    1    2    0    0 -0.70310735990E+02  0.26122408667E+02 -0.11407572527E+03  0.15868992110E+03  0.80890296893E+02 0.  0.
         25    2    1    2    0    0  0.11846455687E+03  0.20274490229E+02  0.22541133322E+04  0.22607787592E+04  0.12509507286E+03 0.  0.
         24    2    1    2    0    0 -0.48153820881E+02 -0.46396898896E+02  0.95308854191E+03  0.95843468679E+03  0.75814361625E+02 0.  0.
        -11    1    5    5    0    0 -0.42125213242E+02 -0.64101938917E+02  0.86433458127E+03  0.86773144494E+03  0.00000000000E+00 0.  1.
         12    1    5    5    0    0 -0.60286076396E+01  0.17705040021E+02  0.88753960644E+02  0.90703241850E+02  0.00000000000E+00 0. -1.
         13    1    3    3    0    0 -0.65554435770E+02 -0.73135259374E+00 -0.11389763378E+03  0.13141761642E+03  0.00000000000E+00 0. -1.
        -14    1    3    3    0    0 -0.47563002204E+01  0.26853761261E+02 -0.17809149144E+00  0.27272304674E+02  0.00000000000E+00 0.  1.
          5    1    4    4  501    0  0.41993255544E+02 -0.42774403500E+02  0.13299418506E+04  0.13312985696E+04  0.41800000000E+01 0.  1.
         -5    1    4    4    0  501  0.76471301327E+02  0.63048893729E+02  0.92417148163E+03  0.92948018956E+03  0.41800000000E+01 0.  1.
</event>
<event>
11    1  0.8479398E-009  0.1308408E+03  0.7561462E-02  0.1118240E+00
         22   -1    0    0    0    0  0.00000000000E+00  0.00000000000E+00  0.11927917870E+04  0.11927917870E+04  0.00000000000E+00 0.  1.
         22   -1    0    0    0    0 -0.00000000000E+00 -0.00000000000E+00 -0.31754498142E+03  0.31754498142E+03  0.00000000000E+00 0. -1.
        -24    2    1    2    0    0  0.30768393013E+02  0.22323138549E+02 -0.29305655522E+03  0.30834064858E+03  0.88015876311E+02 0.  0.
         25    2    1    2    0    0 -0.25062068583E+02 -0.58292310491E+02  0.32231703114E+03  0.35151128462E+03  0.12508322793E+03 0.  0.
         24    2    1    2    0    0 -0.57063244296E+01  0.35969171942E+02  0.84598632962E+03  0.85048483518E+03  0.79405550787E+02 0.  0.
        -11    1    5    5    0    0  0.14774444264E+02  0.32982636593E+02  0.78948714578E+03  0.79031391982E+03  0.00000000000E+00 0.  1.
         12    1    5    5    0    0 -0.20480768694E+02  0.29865353495E+01  0.56499183842E+02  0.60170915354E+02  0.00000000000E+00 0. -1.
         13    1    3    3    0    0 -0.10548348688E+02 -0.36193290747E+01 -0.22123892791E+03  0.22151981948E+03  0.00000000000E+00 0. -1.
        -14    1    3    3    0    0  0.41316741700E+02  0.25942467624E+02 -0.71817627316E+02  0.86820829094E+02  0.00000000000E+00 0.  1.
          5    1    4    4  501    0 -0.88158168906E+01 -0.43207599357E+02  0.20425466409E+02  0.48777939149E+02  0.41800000000E+01 0.  1.
         -5    1    4    4    0  501 -0.16246251693E+02 -0.15084711135E+02  0.30189156473E+03  0.30273334547E+03  0.41800000000E+01 0.  1.
</event>
<event>
11    1  0.8479398E-009  0.1592426E+03  0.7561462E-02  0.1087792E+00
         22   -1    0    0    0    0  0.00000000000E+00  0.00000000000E+00  0.23134095904E+03  0.23134095904E+03  0.00000000000E+00 0.  1.
         22   -1    0    0    0    0 -0.00000000000E+00 -0.00000000000E+00 -0.92286276011E+03  0.92286276011E+03  0.00000000000E+00 0.  1.
         24    2    1    2    0    0  0.57291160048E+02  0.75354130742E+02 -0.81168351754E+03  0.82095121313E+03  0.78550873052E+02 0.  0.
         25    2    1    2    0    0 -0.74497673963E+02  0.40072382847E+02  0.37473079810E+01  0.15105108999E+03  0.12508673062E+03 0.  0.
        -24    2    1    2    0    0  0.17206513915E+02 -0.11542651359E+03  0.11641440849E+03  0.18220141603E+03  0.77625365299E+02 0.  0.
        -11    1    3    3    0    0  0.75057150381E+00  0.63739759839E+02 -0.49017421732E+03  0.49430161204E+03  0.00000000000E+00 0.  1.
         12    1    3    3    0    0  0.56540588544E+02  0.11614370903E+02 -0.32150930022E+03  0.32664960109E+03  0.00000000000E+00 0. -1.
         11    1    5    5    0    0 -0.81443463509E+01  0.84039854713E+00 -0.69920284045E+01  0.10766852298E+02  0.00000000000E+00 0. -1.
        -12    1    5    5    0    0  0.25350860266E+02 -0.11626691214E+03  0.12340643690E+03  0.17143456373E+03  0.00000000000E+00 0.  1.
          5    1    4    4  501    0  0.37442079458E+01 -0.19450292702E+02  0.41089355226E+02  0.45805463563E+02  0.41800000000E+01 0. -1.
         -5    1    4    4    0  501 -0.78241881908E+02  0.59522675549E+02 -0.37342047245E+02  0.10524562642E+03  0.41800000000E+01 0. -1.
</event>
<event>
11    1  0.8479398E-009  0.1359524E+03  0.7561462E-02  0.1112164E+00
         22   -1    0    0    0    0  0.00000000000E+00  0.00000000000E+00  0.12183505080E+04  0.12183505080E+04  0.00000000000E+00 0.  1.
         22   -1    0    0    0    0 -0.00000000000E+00 -0.00000000000E+00 -0.40576461815E+03  0.40576461815E+03  0.00000000000E+00 0.  1.
         24    2    1    2    0    0 -0.73039045623E+00  0.53351160936E+02 -0.38732985619E+03  0.39775987511E+03  0.73086393426E+02 0.  0.
         25    2    1    2    0    0  0.36148270753E+02 -0.43988251427E+02  0.43462118161E+03  0.45583351171E+03  0.12508778976E+03 0.  0.
        -24    2    1    2    0    0 -0.35417880297E+02 -0.93629095090E+01  0.76529456440E+03  0.77052173931E+03  0.81767292497E+02 0.  0.
        -11    1    3    3    0    0 -0.11720817835E+02  0.45553941348E+02 -0.37902140304E+03  0.38192900271E+03  0.00000000000E+00 0.  1.
         12    1    3    3    0    0  0.10990427378E+02  0.77972195886E+01 -0.83084531498E+01  0.15830872402E+02  0.00000000000E+00 0. -1.
         13    1    5    5    0    0 -0.13774012712E+02 -0.26858596915E+02  0.95663431099E+02  0.10031251021E+03  0.00000000000E+00 0. -1.
        -14    1    5    5    0    0 -0.21643867585E+02  0.17495687406E+02  0.66963113330E+03  0.67020922910E+03  0.00000000000E+00 0.  1.
          5    1    4    4  501    0  0.60265948282E+02  0.15617832019E+02  0.30210805017E+03  0.30848443652E+03  0.41800000000E+01 0.  1.
         -5    1    4    4    0  501 -0.24117677529E+02 -0.59606083446E+02  0.13251313144E+03  0.14734907518E+03  0.41800000000E+01 0.  1.
</event>
<event>
11    1  0.8479398E-009  0.1719191E+03  0.7561462E-02  0.1076374E+00
         22   -1    0    0    0    0  0.00000000000E+00  0.00000000000E+00  0.17333059241E+04  0.17333059241E+04  0.00000000000E+00 0. -1.
         22   -1    0    0    0    0 -0.00000000000E+00 -0.00000000000E+00 -0.17104246898E+04  0.17104246898E+04  0.00000000000E+00 0. -1.
        -24    2    1    2    0    0  0.47085049010E+01  0.42917092178E+02 -0.16786674276E+04  0.16810301990E+04  0.77936836916E+02 0.  0.
         25    2    1    2    0    0  0.11318796097E+03 -0.25866711107E+02  0.24368181340E+03  0.29750462692E+03  0.12509026982E+03 0.  0.
         24    2    1    2    0    0 -0.11789646587E+03 -0.17050381072E+02  0.14578668485E+04  0.14651957880E+04  0.85045028625E+02 0.  0.
        -13    1    5    5    0    0 -0.61358866905E+02 -0.32792467811E+02  0.42446683483E+03  0.43013062011E+03  0.00000000000E+00 0.  1.
         14    1    5    5    0    0 -0.56537598963E+02  0.15742086739E+02  0.10334000137E+04  0.10350651679E+04  0.00000000000E+00 0. -1.
         13    1    3    3    0    0 -0.91355242759E+01  0.62489407441E+02 -0.13581087821E+04  0.13595763486E+04  0.00000000000E+00 0. -1.
        -14    1    3    3    0    0  0.13844029177E+02 -0.19572315263E+02 -0.32055864555E+03  0.32145385035E+03  0.00000000000E+00 0.  1.
          5    1    4    4  501    0  0.33997729871E+02  0.45673825126E+02  0.48060415403E+02  0.74627205942E+02  0.41800000000E+01 0.  1.
         -5    1    4    4    0  501  0.79190231097E+02 -0.71540536233E+02  0.19562139800E+03  0.22287742098E+03  0.41800000000E+01 0.  1.
</event>
<event>
11    1  0.8479398E-009  0.1741174E+03  0.7561462E-02  0.1074503E+00
         22   -1    0    0    0    0  0.00000000000E+00  0.00000000000E+00  0.46692432105E+03  0.46692432105E+03  0.00000000000E+00 0. -1.
         22   -1    0    0    0    0 -0.00000000000E+00 -0.00000000000E+00 -0.85250059969E+03  0.85250059969E+03  0.00000000000E+00 0. -1.
         24    2    1    2    0    0 -0.12175156835E+01 -0.10174969649E+02 -0.79011721587E+03  0.79434598529E+03  0.81211558228E+02 0.  0.
         25    2    1    2    0    0 -0.10147004259E+03 -0.57818301224E+02  0.13470118448E+03  0.21778452786E+03  0.12508623415E+03 0.  0.
        -24    2    1    2    0    0  0.10268755827E+03  0.67993270874E+02  0.26983975274E+03  0.30729440759E+03  0.80302809853E+02 0.  0.
        -11    1    3    3    0    0  0.19333924877E+02 -0.59688168271E+01 -0.50104366815E+02  0.54035867712E+02  0.00000000000E+00 0.  1.
         12    1    3    3    0    0 -0.20551440560E+02 -0.42061528223E+01 -0.74001284905E+03  0.74031011758E+03  0.00000000000E+00 0. -1.
         11    1    5    5    0    0  0.43509656923E+02  0.71677028602E+02  0.19144705551E+03  0.20900397542E+03  0.00000000000E+00 0. -1.
        -12    1    5    5    0    0  0.59177901346E+02 -0.36837577284E+01  0.78392697228E+02  0.98290432177E+02  0.00000000000E+00 0.  1.
          5    1    4    4  501    0 -0.11956693416E+03 -0.42118939460E+02  0.14386677602E+03  0.19179514709E+03  0.41800000000E+01 0. -1.
         -5    1    4    4    0  501  0.18096891573E+02 -0.15699361764E+02 -0.91655915389E+01  0.25989380767E+02  0.41800000000E+01 0. -1.
</event>
<event>
11    1  0.8479398E-009  0.1718901E+03  0.7561462E-02  0.1076398E+00
         22   -1    0    0    0    0  0.00000000000E+00  0.00000000000E+00  0.23648846647E+03  0.23648846647E+03  0.00000000000E+00 0.  1.
         22   -1    0    0    0    0 -0.00000000000E+00 -0.00000000000E+00 -0.34882529297E+03  0.34882529297E+03  0.00000000000E+00 0. -1.
         24    2    1    2    0    0 -0.98985665496E+02  0.45249070427E+02 -0.14938196371E+03  0.20154154347E+03  0.80364061085E+02 0.  0.
         25    2    1    2    0    0  0.14479223828E+03 -0.60937353239E+01 -0.98583078384E+02  0.21533401486E+03  0.12509272056E+03 0.  0.
        -24    2    1    2    0    0 -0.45806572783E+02 -0.39155335103E+02  0.13562821559E+03  0.16843820110E+03  0.79655711344E+02 0.  0.
        -13    1    3    3    0    0 -0.58154699676E+02 -0.17208808278E+02 -0.65057461667E+02  0.88941472302E+02  0.00000000000E+00 0.  1.
         14    1    3    3    0    0 -0.40830965820E+02  0.62457878705E+02 -0.84324502041E+02  0.11260007117E+03  0.00000000000E+00 0. -1.
         11    1    5    5    0    0  0.16222111529E+02 -0.17104341332E+02  0.81099711412E+01  0.24929641529E+02  0.00000000000E+00 0. -1.
        -12    1    5    5    0    0 -0.62028684312E+02 -0.22050993771E+02  0.12751824445E+03  0.14350855958E+03  0.00000000000E+00 0.  1.
          5    1    4    4  501    0  0.59425961019E+01 -0.19682493781E+02  0.22350575848E+02  0.30655108067E+02  0.41800000000E+01 0.  1.
         -5    1    4    4    0  501  0.13884964218E+03  0.13588758457E+02 -0.12093365423E+03  0.18467890679E+03  0.41800000000E+01 0.  1.
</event>
<event>
11    1  0.8479398E-009  0.1267640E+03  0.7561462E-02  0.1123310E+00
         22   -1    0    0    0    0  0.00000000000E+00  0.00000000000E+00  0.28997583810E+03  0.28997583810E+03  0.00000000000E+00 0. -1.
         22   -1    0    0    0    0 -0.00000000000E+00 -0.00000000000E+00 -0.42121000672E+03  0.42121000672E+03  0.00000000000E+00 0. -1.
        -24    2    1    2    0    0 -0.40418048179E+02  0.18645703691E+02 -0.36707437387E+03  0.37951745289E+03  0.85490468543E+02 0.  0.
         25    2    1    2    0    0  0.12902402426E+02  0.24243722260E+00  0.83325842349E+02  0.15085438054E+03  0.12508923758E+03 0.  0.
         24    2    1    2    0    0  0.27515645753E+02 -0.18888140913E+02  0.15251436289E+03  0.18081401139E+03  0.91209666149E+02 0.  0.
        -13    1    5    5    0    0  0.39165946581E+02 -0.15785116949E+02  0.18237976586E+02  0.45997446436E+02  0.00000000000E+00 0.  1.
         14    1    5    5    0    0 -0.11650300828E+02 -0.31030239648E+01  0.13427638631E+03  0.13481656496E+03  0.00000000000E+00 0. -1.
         11    1    3    3    0    0 -0.16143026524E+02  0.39363462180E+02 -0.31893505580E+03  0.32176023570E+03  0.00000000000E+00 0. -1.
        -12    1    3    3    0    0 -0.24275021656E+02 -0.20717758489E+02 -0.48139318067E+02  0.57757217186E+02  0.00000000000E+00 0.  1.
          5    1    4    4  501    0 -0.32121391014E+02 -0.20672025538E+02 -0.14501591108E+02  0.41071704921E+02  0.41800000000E+01 0.  1.
         -5    1    4    4    0  501  0.45023793439E+02  0.20914462760E+02  0.97827433456E+02  0.10978267561E+03  0.41800000000E+01 0.  1.
</event>
<event>
11    1  0.8479398E-009  0.1504025E+03  0.7561462E-02  0.1096468E+00
         22   -1    0    0    0    0  0.00000000000E+00  0.00000000000E+00  0.18505968430E+03  0.18505968430E+03  0.00000000000E+00 0.  1.
         22   -1    0    0    0    0 -0.00000000000E+00 -0.00000000000E+00 -0.83730510556E+03  0.83730510556E+03  0.00000000000E+00 0. -1.
        -24    2    1    2    0    0 -0.37710898137E+01 -0.44524537663E+01 -0.48685724563E+03  0.49178432174E+03  0.69193901660E+02 0.  0.
         25    2    1    2    0    0 -0.26849010666E+02 -0.73544172075E+02 -0.31150827007E+03  0.34470224110E+03  0.12511042353E+03 0.  0.
         24    2    1    2    0    0  0.30620100480E+02  0.77996625841E+02  0.14612009444E+03  0.18587822702E+03  0.78603874490E+02 0.  0.
        -11    1    5    5    0    0  0.80736317285E+01  0.75668405488E+02  0.14430351353E+03  0.16313918945E+03  0.00000000000E+00 0.  1.
         12    1    5    5    0    0  0.22546468752E+02  0.23282203530E+01  0.18165809078E+01  0.22739037565E+02  0.00000000000E+00 0. -1.
         11    1    3    3    0    0  0.44834969087E+01 -0.89843401204E+01 -0.48007348455E+03  0.48017847795E+03  0.00000000000E+00 0. -1.
        -12    1    3    3    0    0 -0.82545867225E+01  0.45318863541E+01 -0.67837610768E+01  0.11605843797E+02  0.00000000000E+00 0.  1.
          5    1    4    4  501    0 -0.68662792144E+02 -0.54426389950E+02 -0.12593679283E+03  0.15347429471E+03  0.41800000000E+01 0.  1.
         -5    1    4    4    0  501  0.41813781478E+02 -0.19117782125E+02 -0.18557147724E+03  0.19122794638E+03  0.41800000000E+01 0.  1.
</event>
<event>
11    1  0.8479398E-009  0.1888796E+03  0.7561462E-02  0.1062678E+00
         22   -1    0    0    0    0  0.00000000000E+00  0.00000000000E+00  0.81362397550E+03  0.81362397550E+03  0.00000000000E+00 0.  1.
         22   -1    0    0    0    0 -0.00000000000E+00 -0.00000000000E+00 -0.59835543637E+03  0.59835543637E+03  0.00000000000E+00 0. -1.
         24    2    1    2    0    0  0.57979815131E+02  0.14171965958E+03 -0.51155755020E+03  0.54414340948E+03  0.10466519022E+03 0.  0.
         25    2    1    2    0    0 -0.27454379800E+02 -0.76835976633E+02  0.18180598076E+02  0.15044643003E+03  0.12508430712E+03 0.  0.
        -24    2    1    2    0    0 -0.30525435331E+02 -0.64883682948E+02  0.70864549125E+03  0.71738957235E+03  0.85601820859E+02 0.  0.
        -13    1    3    3    0    0 -0.12623689248E+02 -0.92163455233E+01 -0.80418040010E+02  0.81922888829E+02  0.00000000000E+00 0.  1.
         14    1    3    3    0    0  0.70603504379E+02  0.15093600510E+03 -0.43113951019E+03  0.46222052065E+03  0.00000000000E+00 0. -1.
         13    1    5    5    0    0 -0.23470577489E+02 -0.55545821175E+02  0.20691675755E+03  0.21552436246E+03  0.00000000000E+00 0. -1.
        -14    1    5    5    0    0 -0.70548578423E+01 -0.93378617726E+01  0.50172873370E+03  0.50186520989E+03  0.00000000000E+00 0.  1.
          5    1    4    4  501    0 -0.51676126709E+02  0.11807985234E+02  0.23864333736E+02  0.58282325036E+02  0.41800000000E+01 0. -1.
         -5    1    4    4    0  501  0.24221746909E+02 -0.88643961867E+02 -0.56837356602E+01  0.92164104997E+02  0.41800000000E+01 0. -1.
</event>
<event>
11    1  0.8479398E-009  0.1728974E+03  0.7561462E-02  0.1075537E+00
         22   -1    0    0    0    0  0.00000000000E+00  0.00000000000E+00  0.11602958821E+04  0.11602958821E+04  0.00000000000E+00 0.  1.
         22   -1    0    0    0    0 -0.00000000000E+00 -0.00000000000E+00 -0.32643824987E+03  0.32643824987E+03  0.00000000000E+00 0. -1.
        -24    2    1    2    0    0 -0.10840655283E+03  0.44365916221E+02 -0.26123895876E+03  0.29730917577E+03  0.80166309649E+02 0.  0.
         25    2    1    2    0    0  0.16858396459E+03  0.17745497043E+02  0.21409589008E+03  0.30036616062E+03  0.12508926619E+03 0.  0.
         24    2    1    2    0    0 -0.60177411761E+02 -0.62111413263E+02  0.88100070093E+03  0.88905879561E+03  0.82366003088E+02 0.  0.
        -13    1    5    5    0    0 -0.13425722359E+02 -0.46059275124E+02  0.69331525031E+03  0.69497319600E+03  0.00000000000E+00 0.  1.
         14    1    5    5    0    0 -0.46751689402E+02 -0.16052138140E+02  0.18768545062E+03  0.19408559961E+03  0.00000000000E+00 0. -1.
         13    1    3    3    0    0 -0.19487903269E+02 -0.22594030740E+02 -0.68898841159E+02  0.75082081165E+02  0.00000000000E+00 0. -1.
        -14    1    3    3    0    0 -0.88918649565E+02  0.66959946961E+02 -0.19234011760E+03  0.22222709460E+03  0.00000000000E+00 0.  1.
          5    1    4    4  501    0  0.13542708949E+03 -0.41140224198E+02  0.16033181715E+03  0.21390834160E+03  0.41800000000E+01 0.  1.
         -5    1    4    4    0  501  0.33156875108E+02  0.58885721241E+02  0.53764072925E+02  0.86457819024E+02  0.41800000000E+01 0.  1.
</event>
<event>
11    1  0.8479398E-009  0.1448878E+03  0.7561462E-02  0.1102220E+00
         22   -1    0    0    0    0  0.00000000000E+00  0.00000000000E+00  0.16617126615E+03  0.16617126615E+03  0.00000000000E+00 0. -1.
         22   -1    0    0    0    0 -0.00000000000E+00 -0.00000000000E+00 -0.58838194763E+03  0.58838194763E+03  0.00000000000E+00 0. -1.
         24    2    1    2    0    0  0.63216084116E+02 -0.44350326497E+02 -0.49705342380E+03  0.50951963683E+03  0.81147578213E+02 0.  0.
         25    2    1    2    0    0 -0.50526122953E+01  0.32632530588E+02  0.20343088432E+02  0.13096558665E+03  0.12509089773E+03 0.  0.
        -24    2    1    2    0    0 -0.58163471821E+02  0.11717795909E+02  0.54499653882E+02  0.11406799031E+03  0.80752696205E+02 0.  0.
        -13    1    3    3    0    0 -0.45573251837E+01  0.16933933545E+02 -0.13408380347E+03  0.13522571379E+03  0.00000000000E+00 0.  1.
         14    1    3    3    0    0  0.67773409300E+02 -0.61284260042E+02 -0.36296962033E+03  0.37429392304E+03  0.00000000000E+00 0. -1.
         11    1    5    5    0    0 -0.34555151418E+02 -0.27043532142E+02  0.52797413605E+02  0.68651132573E+02  0.00000000000E+00 0. -1.
        -12    1    5    5    0    0 -0.23608320403E+02  0.38761328051E+02  0.17022402770E+01  0.45416857734E+02  0.00000000000E+00 0.  1.
          5    1    4    4  501    0 -0.19925112367E+02 -0.31140400206E+02  0.47169354875E+02  0.60076243784E+02  0.41800000000E+01 0. -1.
         -5    1    4    4    0  501  0.14872500072E+02  0.63772930794E+02 -0.26826266443E+02  0.70889342864E+02  0.41800000000E+01 0. -1.
</event>
<event>
11    1  0.8479398E-009  0.1834389E+03  0.7561462E-02  0.1066895E+00
         22   -1    0    0    0    0  0.00000000000E+00  0.00000000000E+00  0.19772080606E+04  0.19772080606E+04  0.00000000000E+00 0. -1.
         22   -1    0    0    0    0 -0.00000000000E+00 -0.00000000000E+00 -0.60010228810E+03  0.60010228810E+03  0.00000000000E+00 0. -1.
         24    2    1    2    0    0  0.20310300884E+02  0.28756300633E+02 -0.54538568236E+03  0.55219326262E+03  0.78945700399E+02 0.  0.
         25    2    1    2    0    0 -0.99473558724E+02 -0.13422108375E+03  0.17917593780E+03  0.27506317832E+03  0.12508176195E+03 0.  0.
        -24    2    1    2    0    0  0.79163257840E+02  0.10546478312E+03  0.17433155170E+04  0.17500539077E+04  0.78422230106E+02 0.  0.
        -11    1    3    3    0    0  0.35132961618E+01  0.32747000611E+02 -0.80360102405E+02  0.86847310594E+02  0.00000000000E+00 0.  1.
         12    1    3    3    0    0  0.16797004722E+02 -0.39906999780E+01 -0.46502557996E+03  0.46534595203E+03  0.00000000000E+00 0. -1.
         11    1    5    5    0    0  0.68922733524E+02  0.48106474674E+02  0.13298129188E+04  0.13324665006E+04  0.00000000000E+00 0. -1.
        -12    1    5    5    0    0  0.10240524316E+02  0.57358308445E+02  0.41350259822E+03  0.41758740717E+03  0.00000000000E+00 0.  1.
          5    1    4    4  501    0 -0.63729061806E+02 -0.14883560482E+03  0.11017632857E+03  0.19588191943E+03  0.41800000000E+01 0.  1.
         -5    1    4    4    0  501 -0.35744496918E+02  0.14614521071E+02  0.68999609230E+02  0.79181258893E+02  0.41800000000E+01 0.  1.
</event>
<event>
11    1  0.8479398E-009  0.1999198E+03  0.7561462E-02  0.1054580E+00
         22   -1    0    0    0    0  0.00000000000E+00  0.00000000000E+00  0.18904866778E+04  0.18904866778E+04  0.00000000000E+00 0.  1.
         22   -1    0    0    0    0 -0.00000000000E+00 -0.00000000000E+00 -0.34566907747E+03  0.34566907747E+03  0.00000000000E+00 0.  1.
         24    2    1    2    0    0 -0.64817538378E+02 -0.13844402784E+03 -0.23371753642E+03  0.29062454648E+03  0.80440525016E+02 0.  0.
         25    2    1    2    0    0 -0.16626088375E+02  0.19515816059E+03  0.85471869666E+02  0.24760427888E+03  0.12505720275E+03 0.  0.
        -24    2    1    2    0    0  0.81443626753E+02 -0.56714132750E+02  0.16930632670E+04  0.16979269299E+04  0.81505065794E+02 0.  0.
        -11    1    3    3    0    0 -0.57570365155E+02 -0.48066983557E+02 -0.14767985792E+03  0.16563249164E+03  0.00000000000E+00 0.  1.
         12    1    3    3    0    0 -0.72471732229E+01 -0.90377044278E+02 -0.86037678500E+02  0.12499205484E+03  0.00000000000E+00 0. -1.
         11    1    5    5    0    0  0.57891250446E+00 -0.40802742090E+02  0.35710174138E+03  0.35942572612E+03  0.00000000000E+00 0. -1.
        -12    1    5    5    0    0  0.80864714248E+02 -0.15911390661E+02  0.13359615257E+04  0.13385012037E+04  0.00000000000E+00 0.  1.
          5    1    4    4  501    0  0.20879505173E+02  0.15564107042E+03  0.10569693194E+03  0.18933940519E+03  0.41800000000E+01 0.  1.
         -5    1    4    4    0  501 -0.37505593548E+02  0.39517090162E+02 -0.20225062269E+02  0.58264873690E+02  0.41800000000E+01 0.  1.
</event>
<event>
11    1  0.8479398E-009  0.1552587E+03  0.7561462E-02  0.1091623E+00
         22   -1    0    0    0    0  0.00000000000E+00  0.00000000000E+00  0.11910255696E+04  0.11910255696E+04  0.00000000000E+00 0.  1.
         22   -1    0    0    0    0 -0.00000000000E+00 -0.00000000000E+00 -0.45660318619E+03  0.45660318619E+03  0.00000000000E+00 0. -1.
         24    2    1    2    0    0 -0.81746522561E+01  0.38930652225E+02 -0.39261013645E+03  0.40275822508E+03  0.80554627491E+02 0.  0.
         25    2    1    2    0    0 -0.60343772961E+02 -0.98471561066E+02  0.75350418892E+02  0.18618993305E+03  0.12510390189E+03 0.  0.
        -24    2    1    2    0    0  0.68518425217E+02  0.59540908842E+02  0.10516821010E+04  0.10586805977E+04  0.80805147909E+02 0.  0.
        -13    1    3    3    0    0 -0.23425939297E+02 -0.18065867031E+02 -0.10120962978E+03  0.10544448465E+03  0.00000000000E+00 0.  1.
         14    1    3    3    0    0  0.15251287041E+02  0.56996519255E+02 -0.29140050667E+03  0.29731374044E+03  0.00000000000E+00 0. -1.
         11    1    5    5    0    0  0.51672882479E+02  0.12544751025E+02  0.25760812838E+03  0.26303879062E+03  0.00000000000E+00 0. -1.
        -12    1    5    5    0    0  0.16845542738E+02  0.46996157816E+02  0.79407397259E+03  0.79564180703E+03  0.00000000000E+00 0.  1.
          5    1    4    4  501    0 -0.78982456008E+02 -0.70030999423E+02  0.24828857762E+01  0.10567027188E+03  0.41800000000E+01 0. -1.
         -5    1    4    4    0  501  0.18638683047E+02 -0.28440561643E+02  0.72867533115E+02  0.80519661168E+02  0.41800000000E+01 0. -1.
</event>
<event>
11    1  0.8479398E-009  0.2927512E+03  0.7561462E-02  0.1003307E+00
         22   -1    0    0    0    0  0.00000000000E+00  0.00000000000E+00  0.10272666760E+04  0.10272666760E+04  0.00000000000E+00 0. -1.
         22   -1    0    0    0    0 -0.00000000000E+00 -0.00000000000E+00 -0.14771538335E+04  0.14771538335E+04  0.00000000000E+00 0. -1.
        -24    2    1    2    0    0  0.22749826585E+02  0.92261990538E+02 -0.12225365781E+04  0.12288866597E+04  0.80851148375E+02 0.  0.
         25    2    1    2    0    0 -0.19875682242E+03 -0.28073015879E+03 -0.85848552072E+02  0.37594089344E+03  0.12509150633E+03 0.  0.
         24    2    1    2    0    0  0.17600699584E+03  0.18846816825E+03  0.85849797265E+03  0.89959295643E+03  0.75828788699E+02 0.  0.
        -13    1    5    5    0    0  0.89821725387E+02  0.11335289016E+03  0.35604863006E+03  0.38430124515E+03  0.00000000000E+00 0.  1.
         14    1    5    5    0    0  0.86185270449E+02  0.75115278087E+02  0.50244934259E+03  0.51529171128E+03  0.00000000000E+00 0. -1.
         11    1    3    3    0    0 -0.82896807904E-01  0.27925272281E+02 -0.82916946797E+03  0.82963958097E+03  0.00000000000E+00 0. -1.
        -12    1    3    3    0    0  0.22832723393E+02  0.64336718257E+02 -0.39336711009E+03  0.39924707873E+03  0.00000000000E+00 0.  1.
          5    1    4    4  501    0 -0.15216048402E+03 -0.24717919140E+03 -0.11398083312E+03  0.31186450308E+03  0.41800000000E+01 0. -1.
         -5    1    4    4    0  501 -0.46596338400E+02 -0.33550967386E+02  0.28132281052E+02  0.64076390363E+02  0.41800000000E+01 0. -1.
</event>
<event>
11    1  0.8479398E-009  0.1291257E+03  0.7561462E-02  0.1120348E+00
         22   -1    0    0    0    0  0.00000000000E+00  0.00000000000E+00  0.42593823983E+03  0.42593823983E+03  0.00000000000E+00 0.  1.
         22   -1    0    0    0    0 -0.00000000000E+00 -0.00000000000E+00 -0.92760564231E+03  0.92760564231E+03  0.00000000000E+00 0. -1.
         24    2    1    2    0    0 -0.11106254746E+02  0.20167444236E+02 -0.88673773986E+03  0.89069037758E+03  0.80594383924E+02 0.  0.
         25    2    1    2    0    0  0.34063300406E+02  0.35252217572E+01  0.96296422879E+02  0.16152077463E+03  0.12507287457E+03 0.  0.
        -24    2    1    2    0    0 -0.22957045660E+02 -0.23692665993E+02  0.28877391449E+03  0.30133272994E+03  0.79515231716E+02 0.  0.
        -11    1    3    3    0    0 -0.16525438969E+00  0.45770467590E+02 -0.31861924962E+03  0.32189002663E+03  0.00000000000E+00 0.  1.
         12    1    3    3    0    0 -0.10941000356E+02 -0.25603023354E+02 -0.56811849023E+03  0.56880035095E+03  0.00000000000E+00 0. -1.
         13    1    5    5    0    0  0.86715333784E+01 -0.45524012840E+00 -0.11545585016E+01  0.87598938373E+01  0.00000000000E+00 0. -1.
        -14    1    5    5    0    0 -0.31628579039E+02 -0.23237425865E+02  0.28992847299E+03  0.29257283610E+03  0.00000000000E+00 0.  1.
          5    1    4    4  501    0 -0.71964855584E+01  0.47061940147E+02 -0.23741326885E+00  0.47792723085E+02  0.41800000000E+01 0.  1.
         -5    1    4    4    0  501  0.41259785965E+02 -0.43536718390E+02  0.96533836148E+02  0.11372805154E+03  0.41800000000E+01 0.  1.
</event>
<event>
11    1  0.8479398E-009  0.1620564E+03  0.7561462E-02  0.1085159E+00
         22   -1    0    0    0    0  0.00000000000E+00  0.00000000000E+00  0.35063385777E+03  0.35063385777E+03  0.00000000000E+00 0. -1.
         22   -1    0    0    0    0 -0.00000000000E+00 -0.00000000000E+00 -0.44300434662E+03  0.44300434662E+03  0.00000000000E+00 0.  1.
        -24    2    1    2    0    0 -0.46372349411E+02 -0.87506779579E+02 -0.30713645859E+03  0.33347944092E+03  0.84070815731E+02 0.  0.
         25    2    1    2    0    0 -0.40840371637E+02  0.11698559777E+02 -0.64722641086E+02  0.14710730275E+03  0.12508695375E+03 0.  0.
         24    2    1    2    0    0  0.87212721048E+02  0.75808219802E+02  0.27948861084E+03  0.31305146072E+03  0.80835564991E+02 0.  0.
        -13    1    5    5    0    0 -0.13893358018E+02 -0.11434353992E+01  0.29360865273E+02  0.32502203788E+02  0.00000000000E+00 0.  1.
         14    1    5    5    0    0  0.10110607907E+03  0.76951655201E+02  0.25012774556E+03  0.28054925693E+03  0.00000000000E+00 0. -1.
         13    1    3    3    0    0 -0.42735482464E+02 -0.64816186419E+02 -0.10793294398E+03  0.13295480390E+03  0.00000000000E+00 0. -1.
        -14    1    3    3    0    0 -0.36368669473E+01 -0.22690593160E+02 -0.19920351461E+03  0.20052463702E+03  0.00000000000E+00 0.  1.
          5    1    4    4  501    0 -0.13928082165E+02 -0.54498351090E+02 -0.10657113735E+02  0.57403033174E+02  0.41800000000E+01 0. -1.
         -5    1    4    4    0  501 -0.26912289471E+02  0.66196910867E+02 -0.54065527351E+02  0.89704269579E+02  0.41800000000E+01 0. -1.
</event>
<event>
11    1  0.8479398E-009  0.1750076E+03  0.7561462E-02  0.1073754E+00
         22   -1    0    0    0    0  0.00000000000E+00  0.00000000000E+00  0.35074478615E+04  0.35074478615E+04  0.00000000000E+00 0.  1.
         22   -1    0    0    0    0 -0.00000000000E+00 -0.00000000000E+00 -0.82034895494E+02  0.82034895494E+02  0.00000000000E+00 0.  1.
         24    2    1    2    0    0 -0.11612860902E+03 -0.12795960351E+02  0.16114968473E+02  0.15217010105E+03  0.96158499421E+02 0.  0.
         25    2    1    2    0    0  0.19867267369E+03  0.78509151488E+02  0.12647556113E+04  0.12887542295E+04  0.12508472958E+03 0.  0.
        -24    2    1    2    0    0 -0.82544064672E+02 -0.65713191137E+02  0.21445423862E+04  0.21485584265E+04  0.78163414846E+02 0.  0.
        -13    1    3    3    0    0 -0.49786343493E+02  0.32589185521E+02 -0.21701252696E+02  0.63337819507E+02  0.00000000000E+00 0.  1.
         14    1    3    3    0    0 -0.66342265529E+02 -0.45385145871E+02  0.37816221168E+02  0.88832281546E+02  0.00000000000E+00 0. -1.
         11    1    5    5    0    0 -0.17964226702E+02 -0.47088520070E+02  0.47553577274E+03  0.47819903108E+03  0.00000000000E+00 0. -1.
        -12    1    5    5    0    0 -0.64579837970E+02 -0.18624671068E+02  0.16690066135E+04  0.16703593954E+04  0.00000000000E+00 0.  1.
          5    1    4    4  501    0  0.17110363757E+03  0.11150282403E+03  0.10561181879E+04  0.10756916072E+04  0.41800000000E+01 0.  1.
         -5    1    4    4    0  501  0.27569036124E+02 -0.32993672541E+02  0.20863742344E+03  0.21306262235E+03  0.41800000000E+01 0.  1.
</event>
<event>
11    1  0.8479398E-009  0.3611052E+03  0.7561462E-02  0.9772047E-01
         22   -1    0    0    0    0  0.00000000000E+00  0.00000000000E+00  0.90473635636E+03  0.90473635636E+03  0.00000000000E+00 0. -1.
         22   -1    0    0    0    0 -0.00000000000E+00 -0.00000000000E+00 -0.36166956339E+03  0.36166956339E+03  0.00000000000E+00 0.  1.
        -24    2    1    2    0    0 -0.23308213044E+03  0.22922246271E+03 -0.15744018775E+03  0.37122970116E+03  0.78446551016E+02 0.  0.
         25    2    1    2    0    0  0.26901173409E+03 -0.28448544760E+03  0.38569833288E+03  0.56365523391E+03  0.12507891811E+03 0.  0.
         24    2    1    2    0    0 -0.35929603653E+02  0.55262984887E+02  0.31480864784E+03  0.33152098468E+03  0.80353871153E+02 0.  0.
        -11    1    5    5    0    0 -0.40161130672E+02 -0.72066046690E+01  0.10841014210E+03  0.11583440973E+03  0.00000000000E+00 0.  1.
         12    1    5    5    0    0  0.42315270191E+01  0.62469589556E+02  0.20639850574E+03  0.21568657494E+03  0.00000000000E+00 0. -1.
         11    1    3    3    0    0 -0.16308260612E+03  0.11648406066E+03 -0.69884864871E+02  0.21224600619E+03  0.00000000000E+00 0. -1.
        -12    1    3    3    0    0 -0.69999524314E+02  0.11273840205E+03 -0.87555322877E+02  0.15898369497E+03  0.00000000000E+00 0.  1.
          5    1    4    4  501    0  0.34386434107E+02  0.29176763758E+01  0.62854187548E+02  0.71826603555E+02  0.41800000000E+01 0.  1.
         -5    1    4    4    0  501  0.23462529998E+03 -0.28740312397E+03  0.32284414533E+03  0.49182863035E+03  0.41800000000E+01 0.  1.
</event>
<event>
11    1  0.8479398E-009  0.1522376E+03  0.7561462E-02  0.1094614E+00
         22   -1    0    0    0    0  0.00000000000E+00  0.00000000000E+00  0.26558949281E+03  0.26558949281E+03  0.00000000000E+00 0. -1.
         22   -1    0    0    0    0 -0.00000000000E+00 -0.00000000000E+00 -0.15971566355E+04  0.15971566355E+04  0.00000000000E+00 0. -1.
         24    2    1    2    0    0  0.39227076460E+02 -0.72057484286E+02 -0.15074721038E+04  0.15117235796E+04  0.78134454467E+02 0.  0.
         25    2    1    2    0    0  0.57971851282E+02  0.55659867293E+02  0.21976085066E+02  0.15029974871E+03  0.12509320437E+03 0.  0.
        -24    2    1    2    0    0 -0.97198927742E+02  0.16397616994E+02  0.15392887601E+03  0.20072279999E+03  0.82939919031E+02 0.  0.
        -11    1    3    3    0    0 -0.15779758949E+02 -0.34057600214E+02 -0.85772735094E+03  0.85854826857E+03  0.00000000000E+00 0.  1.
         12    1    3    3    0    0  0.55006835409E+02 -0.37999884073E+02 -0.64974475284E+03  0.65317531106E+03  0.00000000000E+00 0. -1.
         13    1    5    5    0    0 -0.31906271757E+02 -0.17254362228E+02  0.10838736147E+03  0.11429585872E+03  0.00000000000E+00 0. -1.
        -14    1    5    5    0    0 -0.65292655985E+02  0.33651979221E+02  0.45541514537E+02  0.86426941271E+02  0.00000000000E+00 0.  1.
          5    1    4    4  501    0  0.34008814214E+02  0.89991224625E+02 -0.10892566625E+02  0.96907896280E+02  0.41800000000E+01 0. -1.
         -5    1    4    4    0  501  0.23963037069E+02 -0.34331357332E+02  0.32868651691E+02  0.53391852429E+02  0.41800000000E+01 0. -1.
</event>
<event>
11    1  0.8479398E-009  0.1417001E+03  0.7561462E-02  0.1105675E+00
         22   -1    0    0    0    0  0.00000000000E+00  0.00000000000E+00  0.30543802206E+04  0.30543802206E+04  0.00000000000E+00 0. -1.
         22   -1    0    0    0    0 -0.00000000000E+00 -0.00000000000E+00 -0.86102841712E+02  0.86102841712E+02  0.00000000000E+00 0.  1.
         24    2    1    2    0    0 -0.65838736909E+02 -0.77921464746E+01 -0.45408745303E+02  0.11436843746E+03  0.81380148144E+02 0.  0.
         25    2    1    2    0    0  0.71854257106E+02  0.26507592367E+02  0.10060393410E+04  0.10166750460E+04  0.12508919534E+03 0.  0.
        -24    2    1    2    0    0 -0.60155201964E+01 -0.18715445892E+02  0.20076467832E+04  0.20094395789E+04  0.82555197506E+02 0.  0.
        -11    1    3    3    0    0 -0.82866740688E+02  0.54718813116E+01 -0.32250545672E+02  0.89089482508E+02  0.00000000000E+00 0.  1.
         12    1    3    3    0    0  0.17028003779E+02 -0.13264027786E+02 -0.13158199631E+02  0.25278954949E+02  0.00000000000E+00 0. -1.
         11    1    5    5    0    0 -0.13862988314E+02  0.90114379574E+01  0.17664747460E+04  0.17665521268E+04  0.00000000000E+00 0. -1.
        -12    1    5    5    0    0  0.78474681177E+01 -0.27726883850E+02  0.24117203724E+03  0.24288745210E+03  0.00000000000E+00 0.  1.
          5    1    4    4  501    0  0.18424464586E+02 -0.42443970989E+02  0.57524926762E+03  0.57712229542E+03  0.41800000000E+01 0.  1.
         -5    1    4    4    0  501  0.53429792519E+02  0.68951563356E+02  0.43079007335E+03  0.43955275055E+03  0.41800000000E+01 0.  1.
</event>
<event>
11    1  0.8479398E-009  0.1859562E+03  0.7561462E-02  0.1064924E+00
         22   -1    0    0    0    0  0.00000000000E+00  0.00000000000E+00  0.21847836320E+03  0.21847836320E+03  0.00000000000E+00 0.  1.
         22   -1    0    0    0    0 -0.00000000000E+00 -0.00000000000E+00 -0.57261164928E+03  0.57261164928E+03  0.00000000000E+00 0. -1.
         24    2    1    2    0    0  0.76103789182E+02  0.10716972699E+03 -0.40405384216E+03  0.43253341783E+03  0.80922883472E+02 0.  0.
         25    2    1    2    0    0 -0.10528758475E+03 -0.13938154666E+03 -0.48982375566E+02  0.22036188692E+03  0.12508955607E+03 0.  0.
        -24    2    1    2    0    0  0.29183795569E+02  0.32211819669E+02  0.98902931636E+02  0.13819470773E+03  0.86178257745E+02 0.  0.
        -11    1    3    3    0    0 -0.10122464857E+02 -0.62356516938E+01 -0.31904747033E+02  0.34047915209E+02  0.00000000000E+00 0.  1.
         12    1    3    3    0    0  0.86226254039E+02  0.11340537868E+03 -0.37214909512E+03  0.39848550262E+03  0.00000000000E+00 0. -1.
         11    1    5    5    0    0  0.44789642162E+01 -0.24357805506E+02  0.41549460890E+01  0.25112295525E+02  0.00000000000E+00 0. -1.
        -12    1    5    5    0    0  0.24704831353E+02  0.56569625176E+02  0.94747985547E+02  0.11308241220E+03  0.00000000000E+00 0.  1.
          5    1    4    4  501    0  0.27771719502E+00  0.21661191071E+02 -0.23056578168E+01  0.22182713618E+02  0.41800000000E+01 0. -1.
         -5    1    4    4    0  501 -0.10556530195E+03 -0.16104273773E+03 -0.46676717750E+02  0.19817917330E+03  0.41800000000E+01 0. -1.
</event>
<event>
11    1  0.8479398E-009  0.1878274E+03  0.7561462E-02  0.1063482E+00
         22   -1    0    0    0    0  0.00000000000E+00  0.00000000000E+00  0.27275437361E+04  0.27275437361E+04  0.00000000000E+00 0.  1.
         22   -1    0    0    0    0 -0.00000000000E+00 -0.00000000000E+00 -0.10513320380E+04  0.10513320380E+04  0.00000000000E+00 0. -1.
         24    2    1    2    0    0  0.11891398014E+03 -0.74788570433E+02 -0.10358712389E+04  0.10483241391E+04  0.78869588831E+02 0.  0.
         25    2    1    2    0    0  0.52964762409E+01  0.10759721301E+03  0.14941894435E+04  0.15032811442E+04  0.12508754039E+03 0.  0.
        -24    2    1    2    0    0 -0.12421045639E+03 -0.32808642578E+02  0.12178934936E+04  0.12272704907E+04  0.80147682842E+02 0.  0.
        -13    1    3    3    0    0  0.19447223982E+02 -0.34008615301E+02 -0.12161316410E+03  0.12776753154E+03  0.00000000000E+00 0.  1.
         14    1    3    3    0    0  0.99466756162E+02 -0.40779955132E+02 -0.91425807484E+03  0.92055660756E+03  0.00000000000E+00 0. -1.
         13    1    5    5    0    0 -0.88405722340E+01  0.20148249686E+02  0.11416444319E+03  0.11626533350E+03  0.00000000000E+00 0. -1.
        -14    1    5    5    0    0 -0.11536988415E+03 -0.52956892263E+02  0.11037290504E+04  0.11110051572E+04  0.00000000000E+00 0.  1.
          5    1    4    4  501    0  0.59176157488E+01  0.10555395487E+03  0.14948070784E+04  0.14985467392E+04  0.41800000000E+01 0.  1.
         -5    1    4    4    0  501 -0.62113950795E+00  0.20432581426E+01 -0.61763493054E+00  0.47344050347E+01  0.41800000000E+01 0.  1.
</event>
<event>
11    1  0.1108015E-008  0.1695982E+03  0.7561462E-02  0.1078382E+00
         22   -1    0    0    0    0  0.00000000000E+00  0.00000000000E+00  0.16934623329E+04  0.16934623329E+04  0.00000000000E+00 0. -1.
         22   -1    0    0    0    0 -0.00000000000E+00 -0.00000000000E+00 -0.18450258308E+03  0.18450258308E+03  0.00000000000E+00 0. -1.
         24    2    1    2    0    0  0.46830601179E+02  0.85722763716E+02 -0.12675802974E+03  0.17845504153E+03  0.78975352592E+02 0.  0.
         25    2    1    2    0    0 -0.34032967967E+02  0.38537028410E+02  0.13405017291E+03  0.19042185044E+03  0.12509071429E+03 0.  0.
        -24    2    1    2    0    0 -0.12797633211E+02 -0.12425979213E+03  0.15016676067E+04  0.15090880240E+04  0.82077938414E+02 0.  0.
        -13    1    3    3    0    0  0.12669577536E+01  0.67636495918E+02 -0.39409472766E+02  0.78290531392E+02  0.00000000000E+00 0.  1.
         14    1    3    3    0    0  0.45563643425E+02  0.18086267798E+02 -0.87348556975E+02  0.10016451014E+03  0.00000000000E+00 0. -1.
         11    1    5    5    0    0 -0.28303513328E+02 -0.10499615321E+03  0.14085933164E+04  0.14127846305E+04  0.00000000000E+00 0. -1.
        -12    1    5    5    0    0  0.15505880117E+02 -0.19263638921E+02  0.93074290253E+02  0.96303393547E+02  0.00000000000E+00 0.  1.
          5    1    4    4  501    0 -0.78449114161E+02  0.62944504463E+01  0.92077738845E+02  0.12120093238E+03  0.41800000000E+01 0.  1.
         -5    1    4    4    0  501  0.44416146193E+02  0.32242577964E+02  0.41972434061E+02  0.69220918062E+02  0.41800000000E+01 0.  1.
</event>
<event>
11    1  0.8479398E-009  0.1473872E+03  0.7561462E-02  0.1099579E+00
         22   -1    0    0    0    0  0.00000000000E+00  0.00000000000E+00  0.17172628010E+03  0.17172628010E+03  0.00000000000E+00 0. -1.
         22   -1    0    0    0    0 -0.00000000000E+00 -0.00000000000E+00 -0.20849873047E+04  0.20849873047E+04  0.00000000000E+00 0.  1.
         24    2    1    2    0    0 -0.18886193759E+01 -0.77452896346E+02 -0.19723164616E+04  0.19755365526E+04  0.81914148095E+02 0.  0.
         25    2    1    2    0    0 -0.91271593933E+01  0.97915184406E+02 -0.26871664360E+02  0.16136850135E+03  0.12508804302E+03 0.  0.
        -24    2    1    2    0    0  0.11015778769E+02 -0.20462288060E+02  0.85927101402E+02  0.11980853088E+03  0.80190801857E+02 0.  0.
        -13    1    3    3    0    0  0.48056587992E+01 -0.93112949032E+02 -0.17899193481E+04  0.17923460571E+04  0.00000000000E+00 0.  1.
         14    1    3    3    0    0 -0.66942781751E+01  0.15660052686E+02 -0.18239711357E+03  0.18319049552E+03  0.00000000000E+00 0. -1.
         13    1    5    5    0    0  0.96128252439E+01  0.13424702027E+02  0.84248218598E+02  0.85850983516E+02  0.00000000000E+00 0. -1.
        -14    1    5    5    0    0  0.14029535252E+01 -0.33886990087E+02  0.16788828039E+01  0.33957547368E+02  0.00000000000E+00 0.  1.
          5    1    4    4  501    0  0.57439552771E+02  0.47945804597E+02 -0.44700033836E+01  0.75070338558E+02  0.41800000000E+01 0. -1.
         -5    1    4    4    0  501 -0.66566712164E+02  0.49969379808E+02 -0.22401660976E+02  0.86298162792E+02  0.41800000000E+01 0. -1.
</event>
<event>
11    1  0.8479398E-009  0.1372138E+03  0.7561462E-02  0.1110710E+00
         22   -1    0    0    0    0  0.00000000000E+00  0.00000000000E+00  0.10301919976E+04  0.10301919976E+04  0.00000000000E+00 0.  1.
         22   -1    0    0    0    0 -0.00000000000E+00 -0.00000000000E+00 -0.89817063753E+02  0.89817063753E+02  0.00000000000E+00 0. -1.
         24    2    1    2    0    0  0.15685139754E+02 -0.86366540217E+01 -0.15478998447E+02  0.83900959741E+02  0.80493206240E+02 0.  0.
         25    2    1    2    0    0 -0.66297080053E+02  0.30833534137E+02  0.10199610295E+03  0.17719217258E+03  0.12509137202E+03 0.  0.
        -24    2    1    2    0    0  0.50611940298E+02 -0.22196880115E+02  0.85385782935E+03  0.85891592903E+03  0.74893994599E+02 0.  0.
        -11    1    3    3    0    0 -0.16196930144E+02  0.46046881744E+01  0.25350107457E+02  0.30433068320E+02  0.00000000000E+00 0.  1.
         12    1    3    3    0    0  0.31882069898E+02 -0.13241342196E+02 -0.40829105904E+02  0.53467891421E+02  0.00000000000E+00 0. -1.
         11    1    5    5    0    0 -0.88627400994E+01  0.15900847024E+02  0.30333431814E+03  0.30388006460E+03  0.00000000000E+00 0. -1.
        -12    1    5    5    0    0  0.59474680398E+02 -0.38097727139E+02  0.55052351120E+03  0.55503586443E+03  0.00000000000E+00 0.  1.
          5    1    4    4  501    0  0.23159217174E+02 -0.20194476517E+02 -0.16052648018E+01  0.31051819544E+02  0.41800000000E+01 0. -1.
         -5    1    4    4    0  501 -0.89456297227E+02  0.51028010653E+02  0.10360136775E+03  0.14614035303E+03  0.41800000000E+01 0. -1.
</event>
<event>
11    1  0.8479398E-009  0.1346045E+03  0.7561462E-02  0.1113737E+00
         22   -1    0    0    0    0  0.00000000000E+00  0.00000000000E+00  0.15918883310E+04  0.15918883310E+04  0.00000000000E+00 0.  1.
         22   -1    0    0    0    0 -0.00000000000E+00 -0.00000000000E+00 -0.43493646167E+03  0.43493646167E+03  0.00000000000E+00 0.  1.
         24    2    1    2    0    0 -0.43797602754E+02  0.35752893920E+02 -0.17325470165E+03  0.19828251028E+03  0.78116981567E+02 0.  0.
         25    2    1    2    0    0  0.48303251108E+02  0.13973401802E+02 -0.22909723812E+03  0.26582118924E+03  0.12508756976E+03 0.  0.
        -24    2    1    2    0    0 -0.45056483543E+01 -0.49726295722E+02  0.15593038091E+04  0.15627210931E+04  0.90420354727E+02 0.  0.
        -11    1    3    3    0    0 -0.58500772524E+02  0.42444252389E+02 -0.16501258904E+03  0.18014718840E+03  0.00000000000E+00 0.  1.
         12    1    3    3    0    0  0.14703169771E+02 -0.66913584692E+01 -0.82421126104E+01  0.18135321882E+02  0.00000000000E+00 0. -1.
         13    1    5    5    0    0  0.70284645194E+01  0.23200224276E+02  0.20917896012E+03  0.21057893313E+03  0.00000000000E+00 0. -1.
        -14    1    5    5    0    0 -0.11534112874E+02 -0.72926519998E+02  0.13501248490E+04  0.13521421600E+04  0.00000000000E+00 0.  1.
          5    1    4    4  501    0 -0.18164597623E+02  0.34847078740E+02 -0.16949505407E+03  0.17404113668E+03  0.41800000000E+01 0. -1.
         -5    1    4    4    0  501  0.66467848731E+02 -0.20873676938E+02 -0.59602184049E+02  0.91780052557E+02  0.41800000000E+01 0. -1.
</event>
<event>
11    1  0.8479398E-009  0.1507313E+03  0.7561462E-02  0.1096134E+00
         22   -1    0    0    0    0  0.00000000000E+00  0.00000000000E+00  0.16354575881E+04  0.16354575881E+04  0.00000000000E+00 0. -1.
         22   -1    0    0    0    0 -0.00000000000E+00 -0.00000000000E+00 -0.89461209236E+03  0.89461209236E+03  0.00000000000E+00 0.  1.
        -24    2    1    2    0    0  0.45530842945E+02 -0.70874795032E+02 -0.88043598525E+03  0.88836760977E+03  0.83265789681E+02 0.  0.
         25    2    1    2    0    0 -0.49918107429E+02  0.42618263796E+02  0.58234271483E+03  0.59923185011E+03  0.12509052247E+03 0.  0.
         24    2    1    2    0    0  0.43872644842E+01  0.28256531236E+02  0.10389387661E+04  0.10424702206E+04  0.80825251788E+02 0.  0.
        -13    1    5    5    0    0  0.32714736489E+02  0.33288404181E+02  0.37277778494E+03  0.37568823349E+03  0.00000000000E+00 0.  1.
         14    1    5    5    0    0 -0.28327472005E+02 -0.50318729457E+01  0.66616098119E+03  0.66678198706E+03  0.00000000000E+00 0. -1.
         13    1    3    3    0    0  0.61290037315E+01 -0.24506095816E+02 -0.53157417131E+02  0.58854264204E+02  0.00000000000E+00 0. -1.
        -14    1    3    3    0    0  0.39401839214E+02 -0.46368699216E+02 -0.82727856812E+03  0.82951334556E+03  0.00000000000E+00 0.  1.
          5    1    4    4  501    0  0.29625484187E+02  0.52894021076E+02  0.23587844981E+03  0.24358070996E+03  0.41800000000E+01 0.  1.
         -5    1    4    4    0  501 -0.79543591617E+02 -0.10275757279E+02  0.34646426501E+03  0.35565114015E+03  0.41800000000E+01 0.  1.
</event>
<event>
11    1  0.8479398E-009  0.2209904E+03  0.7561462E-02  0.1040599E+00
         22   -1    0    0    0    0  0.00000000000E+00  0.00000000000E+00  0.77567847088E+03  0.77567847088E+03  0.00000000000E+00 0.  1.
         22   -1    0    0    0    0 -0.00000000000E+00 -0.00000000000E+00 -0.56504921095E+03  0.56504921095E+03  0.00000000000E+00 0. -1.
        -24    2    1    2    0    0  0.18312730141E+03  0.26699592091E+02 -0.44490655139E+03  0.48869468896E+03  0.81438214661E+02 0.  0.
         25    2    1    2    0    0 -0.15919331913E+03 -0.59935502821E+02  0.22212416508E+02  0.21230845903E+03  0.12508682175E+03 0.  0.
         24    2    1    2    0    0 -0.23933982287E+02  0.33235910730E+02  0.63332339481E+03  0.63972453385E+03  0.80445606056E+02 0.  0.
        -13    1    5    5    0    0  0.10630398617E+02  0.11113910986E+02  0.49981253791E+03  0.50004909504E+03  0.00000000000E+00 0.  1.
         14    1    5    5    0    0 -0.34564380904E+02  0.22121999744E+02  0.13351085689E+03  0.13967543881E+03  0.00000000000E+00 0. -1.
         11    1    3    3    0    0  0.16621184376E+03  0.36437456643E+02 -0.32148975797E+03  0.36374404425E+03  0.00000000000E+00 0. -1.
        -12    1    3    3    0    0  0.16915457653E+02 -0.97378645515E+01 -0.12341679342E+03  0.12495064470E+03  0.00000000000E+00 0.  1.
          5    1    4    4  501    0 -0.13014132152E+03  0.75973943749E+01  0.40243973858E+02  0.13649737653E+03  0.41800000000E+01 0.  1.
         -5    1    4    4    0  501 -0.29051997604E+02 -0.67532897196E+02 -0.18031557350E+02  0.75811082494E+02  0.41800000000E+01 0.  1.
</event>
<event>
11    1  0.8479398E-009  0.1558210E+03  0.7561462E-02  0.1091075E+00
         22   -1    0    0    0    0  0.00000000000E+00  0.00000000000E+00  0.23229357946E+03  0.23229357946E+03  0.00000000000E+00 0. -1.
         22   -1    0    0    0    0 -0.00000000000E+00 -0.00000000000E+00 -0.56338667040E+03  0.56338667040E+03  0.00000000000E+00 0.  1.
         24    2    1    2    0    0 -0.20299029219E+02  0.31529127432E+02 -0.26848644701E+03  0.28277774029E+03  0.80449622205E+02 0.  0.
         25    2    1    2    0    0  0.62999315050E+02  0.52366707104E+02 -0.24771707315E+03  0.28935198817E+03  0.12509851727E+03 0.  0.
        -24    2    1    2    0    0 -0.42700285831E+02 -0.83895834536E+02  0.18511042921E+03  0.22355052140E+03  0.82747441983E+02 0.  0.
        -11    1    3    3    0    0 -0.24714014294E+02  0.53967073149E+02 -0.23390602344E+03  0.24131981951E+03  0.00000000000E+00 0.  1.
         12    1    3    3    0    0  0.44149850758E+01 -0.22437945717E+02 -0.34580423564E+02  0.41457920776E+02  0.00000000000E+00 0. -1.
         13    1    5    5    0    0 -0.53799283637E+02 -0.53055431368E+02  0.67032824383E+02  0.10100812473E+03  0.00000000000E+00 0. -1.
        -14    1    5    5    0    0  0.11098997805E+02 -0.30840403168E+02  0.11807760483E+03  0.12254239667E+03  0.00000000000E+00 0.  1.
          5    1    4    4  501    0  0.94593266959E+02  0.49444546436E+02 -0.13482458283E+03  0.17201101669E+03  0.41800000000E+01 0.  1.
         -5    1    4    4    0  501 -0.31593951909E+02  0.29221606677E+01 -0.11289249031E+03  0.11734097148E+03  0.41800000000E+01 0.  1.
</event>
<event>
11    1  0.8479398E-009  0.1327446E+03  0.7561462E-02  0.1115942E+00
         22   -1    0    0    0    0  0.00000000000E+00  0.00000000000E+00  0.30202026115E+04  0.30202026115E+04  0.00000000000E+00 0. -1.
         22   -1    0    0    0    0 -0.00000000000E+00 -0.00000000000E+00 -0.27718615004E+03  0.27718615004E+03  0.00000000000E+00 0.  1.
         24    2    1    2    0    0  0.28686843699E+00  0.18797299194E+01 -0.21820595492E+03  0.23202140135E+03  0.78844633574E+02 0.  0.
         25    2    1    2    0    0  0.44111362601E+02 -0.35625692064E+01  0.34688892690E+02  0.13714676905E+03  0.12508961897E+03 0.  0.
        -24    2    1    2    0    0 -0.44398231038E+02  0.16828392870E+01  0.29265335237E+04  0.29282205912E+04  0.88900676720E+02 0.  0.
        -13    1    3    3    0    0  0.32253319759E+02  0.20450583463E+02 -0.14586143093E+03  0.15077818155E+03  0.00000000000E+00 0.  1.
         14    1    3    3    0    0 -0.31966451322E+02 -0.18570853544E+02 -0.72344523988E+02  0.81243219795E+02  0.00000000000E+00 0. -1.
         11    1    5    5    0    0 -0.39496002311E+02  0.17395203237E+02  0.28274458507E+04  0.28277751972E+04  0.00000000000E+00 0. -1.
        -12    1    5    5    0    0 -0.49022287274E+01 -0.15712363950E+02  0.99087673080E+02  0.10044539404E+03  0.00000000000E+00 0.  1.
          5    1    4    4  501    0  0.68837845886E+02  0.40358749385E+02  0.89726329542E+01  0.80408073104E+02  0.41800000000E+01 0.  1.
         -5    1    4    4    0  501 -0.24726483285E+02 -0.43921318591E+02  0.25716259736E+02  0.56738695942E+02  0.41800000000E+01 0.  1.
</event>
<event>
11    1  0.8479398E-009  0.1595732E+03  0.7561462E-02  0.1087479E+00
         22   -1    0    0    0    0  0.00000000000E+00  0.00000000000E+00  0.23502044525E+04  0.23502044525E+04  0.00000000000E+00 0. -1.
         22   -1    0    0    0    0 -0.00000000000E+00 -0.00000000000E+00 -0.43427372882E+02  0.43427372882E+02  0.00000000000E+00 0. -1.
         24    2    1    2    0    0  0.32589232764E+02 -0.11570633311E+03  0.22943556071E+03  0.27555768146E+03  0.94028430155E+02 0.  0.
         25    2    1    2    0    0 -0.81621512013E+02  0.40859282460E+02  0.30870955108E+03  0.34537067839E+03  0.12509103237E+03 0.  0.
        -24    2    1    2    0    0  0.49032279250E+02  0.74847050645E+02  0.17686319678E+04  0.17727034655E+04  0.80076798721E+02 0.  0.
        -13    1    3    3    0    0 -0.27695528466E+02 -0.35524854183E+02  0.11426927478E+03  0.12282721490E+03  0.00000000000E+00 0.  1.
         14    1    3    3    0    0  0.60284761229E+02 -0.80181478922E+02  0.11516628593E+03  0.15273046655E+03  0.00000000000E+00 0. -1.
         11    1    5    5    0    0  0.44492053334E+02  0.53821304578E+02  0.16817210574E+04  0.16831702203E+04  0.00000000000E+00 0. -1.
        -12    1    5    5    0    0  0.45402259159E+01  0.21025746068E+02  0.86910910472E+02  0.89533245268E+02  0.00000000000E+00 0.  1.
          5    1    4    4  501    0 -0.80711614333E+02  0.52993496224E+02  0.31609237840E+03  0.33053674442E+03  0.41800000000E+01 0.  1.
         -5    1    4    4    0  501 -0.90989768031E+00 -0.12134213765E+02 -0.73828273284E+01  0.14833933964E+02  0.41800000000E+01 0.  1.
</event>
<event>
11    1  0.8479398E-009  0.1357151E+03  0.7561462E-02  0.1112440E+00
         22   -1    0    0    0    0  0.00000000000E+00  0.00000000000E+00  0.30967452129E+03  0.30967452129E+03  0.00000000000E+00 0.  1.
         22   -1    0    0    0    0 -0.00000000000E+00 -0.00000000000E+00 -0.13535389662E+03  0.13535389662E+03  0.00000000000E+00 0. -1.
        -24    2    1    2    0    0  0.12856965485E+02  0.41810219938E+02 -0.22756302648E+02  0.93806044984E+02  0.79801808956E+02 0.  0.
         25    2    1    2    0    0  0.64753268382E+01 -0.75692851532E+02  0.14032443928E+02  0.14702285468E+03  0.12508985845E+03 0.  0.
         24    2    1    2    0    0 -0.19332292323E+02  0.33882631594E+02  0.18304448339E+03  0.20419951824E+03  0.81672456199E+02 0.  0.
        -11    1    5    5    0    0  0.31453782770E+02  0.21848832189E+02  0.75324998515E+02  0.84501877611E+02  0.00000000000E+00 0.  1.
         12    1    5    5    0    0 -0.50786075092E+02  0.12033799405E+02  0.10771948487E+03  0.11969764063E+03  0.00000000000E+00 0. -1.
         13    1    3    3    0    0  0.35914405826E+02  0.16814477257E+02 -0.39438508624E+02  0.55928232171E+02  0.00000000000E+00 0. -1.
        -14    1    3    3    0    0 -0.23057440341E+02  0.24995742681E+02  0.16682205976E+02  0.37877812813E+02  0.00000000000E+00 0.  1.
          5    1    4    4  501    0  0.13122914877E+02 -0.10065772536E+03 -0.20550962681E+02  0.10365328281E+03  0.41800000000E+01 0.  1.
         -5    1    4    4    0  501 -0.66475880391E+01  0.24964873828E+02  0.34583406609E+02  0.43369571876E+02  0.41800000000E+01 0.  1.
</event>
<event>
11    1  0.8479398E-009  0.1531337E+03  0.7561462E-02  0.1093719E+00
         22   -1    0    0    0    0  0.00000000000E+00  0.00000000000E+00  0.51093280182E+03  0.51093280182E+03  0.00000000000E+00 0. -1.
         22   -1    0    0    0    0 -0.00000000000E+00 -0.00000000000E+00 -0.44439565158E+03  0.44439565158E+03  0.00000000000E+00 0. -1.
        -24    2    1    2    0    0 -0.31779413871E+02  0.80967518856E+02 -0.37043348577E+03  0.38900835087E+03  0.80875579800E+02 0.  0.
         25    2    1    2    0    0  0.39244739443E+02 -0.97033219642E+02  0.51547268962E+02  0.17105024556E+03  0.12508185432E+03 0.  0.
         24    2    1    2    0    0 -0.74653255717E+01  0.16065700787E+02  0.38542336705E+03  0.39526985696E+03  0.85867631441E+02 0.  0.
        -11    1    5    5    0    0 -0.11904592890E+02  0.46714020399E+02  0.14369177044E+03  0.15156267326E+03  0.00000000000E+00 0.  1.
         12    1    5    5    0    0  0.44392673184E+01 -0.30648319613E+02  0.24173159661E+03  0.24370718371E+03  0.00000000000E+00 0. -1.
         13    1    3    3    0    0 -0.30656398102E+02 -0.10598604232E+01 -0.53901017680E+02  0.62018205034E+02  0.00000000000E+00 0. -1.
        -14    1    3    3    0    0 -0.11230157692E+01  0.82027379279E+02 -0.31653246809E+03  0.32699014584E+03  0.00000000000E+00 0.  1.
          5    1    4    4  501    0  0.61342265459E+02 -0.96180506506E+02 -0.70675903999E+00  0.11415575006E+03  0.41800000000E+01 0. -1.
         -5    1    4    4    0  501 -0.22097526016E+02 -0.85271313627E+00  0.52254028002E+02  0.56894495500E+02  0.41800000000E+01 0. -1.
</event>
<event>
11    1  0.8479398E-009  0.3051252E+03  0.7561462E-02  0.9980452E-01
         22   -1    0    0    0    0  0.00000000000E+00  0.00000000000E+00  0.15292758906E+04  0.15292758906E+04  0.00000000000E+00 0.  1.
         22   -1    0    0    0    0 -0.00000000000E+00 -0.00000000000E+00 -0.94529468262E+03  0.94529468262E+03  0.00000000000E+00 0. -1.
        -24    2    1    2    0    0 -0.46530385536E+01 -0.10893689805E+02 -0.78792484617E+03  0.79268586581E+03  0.85935995938E+02 0.  0.
         25    2    1    2    0    0  0.23777505368E+03  0.16111445929E+03  0.36162113568E+02  0.31535681782E+03  0.12508948373E+03 0.  0.
         24    2    1    2    0    0 -0.23312201513E+03 -0.15022076948E+03  0.13357439406E+04  0.13665278896E+04  0.79211392349E+02 0.  0.
        -13    1    5    5    0    0 -0.22768999292E+03 -0.14629861415E+03  0.11799500219E+04  0.12105899684E+04  0.00000000000E+00 0.  1.
         14    1    5    5    0    0 -0.54320222062E+01 -0.39221553321E+01  0.15579391867E+03  0.15593792118E+03  0.00000000000E+00 0. -1.
         13    1    3    3    0    0 -0.37961982817E+02 -0.21283348346E+02 -0.59807118206E+03  0.59965259265E+03  0.00000000000E+00 0. -1.
        -14    1    3    3    0    0  0.33308944264E+02  0.10389658541E+02 -0.18985366411E+03  0.19303327317E+03  0.00000000000E+00 0.  1.
          5    1    4    4  501    0  0.20986577247E+03  0.79899542909E+02  0.74930538337E+01  0.22472471530E+03  0.41800000000E+01 0.  1.
         -5    1    4    4    0  501  0.27909281209E+02  0.81214916377E+02  0.28669059734E+02  0.90632102512E+02  0.41800000000E+01 0.  1.
</event>
<event>
11    1  0.8479398E-009  0.1670800E+03  0.7561462E-02  0.1080601E+00
         22   -1    0    0    0    0  0.00000000000E+00  0.00000000000E+00  0.30816901962E+04  0.30816901962E+04  0.00000000000E+00 0. -1.
         22   -1    0    0    0    0 -0.00000000000E+00 -0.00000000000E+00 -0.87497627256E+02  0.87497627256E+02  0.00000000000E+00 0.  1.
         24    2    1    2    0    0  0.49935415612E+02 -0.10725685681E+02 -0.19913623491E+02  0.97775898759E+02  0.80962879840E+02 0.  0.
         25    2    1    2    0    0 -0.74300557512E+02  0.11742021470E+03  0.29738945805E+03  0.35127770911E+03  0.12508980573E+03 0.  0.
        -24    2    1    2    0    0  0.24365141900E+02 -0.10669452902E+03  0.27167167344E+04  0.27201342155E+04  0.81258557818E+02 0.  0.
        -13    1    3    3    0    0  0.23872046282E+02 -0.33177694592E+02 -0.40619634711E+02  0.57624549770E+02  0.00000000000E+00 0.  1.
         14    1    3    3    0    0  0.26063369329E+02  0.22452008912E+02  0.20706011220E+02  0.40151348989E+02  0.00000000000E+00 0. -1.
         13    1    5    5    0    0  0.43345123633E+02 -0.10335671890E+03  0.25158321090E+04  0.25183273440E+04  0.00000000000E+00 0. -1.
        -14    1    5    5    0    0 -0.18979981733E+02 -0.33378101205E+01  0.20088462535E+03  0.20180687150E+03  0.00000000000E+00 0.  1.
          5    1    4    4  501    0 -0.10474837391E+02  0.11176791326E+03  0.24069606540E+03  0.26561976009E+03  0.41800000000E+01 0. -1.
         -5    1    4    4    0  501 -0.63825720121E+02  0.56523014345E+01  0.56693392647E+02  0.85657949020E+02  0.41800000000E+01 0. -1.
</event>
<event>
11    1  0.8479398E-009  0.1426750E+03  0.7561462E-02  0.1104608E+00
         22   -1    0    0    0    0  0.00000000000E+00  0.00000000000E+00  0.21412921523E+04  0.21412921523E+04  0.00000000000E+00 0.  1.
         22   -1    0    0    0    0 -0.00000000000E+00 -0.00000000000E+00 -0.12343241836E+03  0.12343241836E+03  0.00000000000E+00 0. -1.
         24    2    1    2    0    0  0.41926759340E+02 -0.54384037405E+02 -0.91969070767E+02  0.14028021209E+03  0.80652038123E+02 0.  0.
         25    2    1    2    0    0  0.25026432716E+01  0.84470808441E+02  0.15039129213E+04  0.15114703972E+04  0.12508839247E+03 0.  0.
        -24    2    1    2    0    0 -0.44429402612E+02 -0.30086771035E+02  0.60591588340E+03  0.61297396140E+03  0.75656024123E+02 0.  0.
        -13    1    3    3    0    0  0.13244478931E+02 -0.15644711041E+02  0.13344995487E+02  0.24459397177E+02  0.00000000000E+00 0.  1.
         14    1    3    3    0    0  0.28682280410E+02 -0.38739326364E+02 -0.10531406625E+03  0.11582081491E+03  0.00000000000E+00 0. -1.
         13    1    5    5    0    0 -0.15008596022E+02 -0.25969175476E+02  0.69005953764E+02  0.75242791577E+02  0.00000000000E+00 0. -1.
        -14    1    5    5    0    0 -0.29420806590E+02 -0.41175955592E+01  0.53690992964E+03  0.53773116982E+03  0.00000000000E+00 0.  1.
          5    1    4    4  501    0 -0.53821892819E+02  0.38845750515E+02  0.43074383736E+03  0.43584804038E+03  0.41800000000E+01 0. -1.
         -5    1    4    4    0  501  0.56324536090E+02  0.45625057926E+02  0.10731690840E+04  0.10756223568E+04  0.41800000000E+01 0. -1.
</event>
<event>
11    1  0.8479398E-009  0.1530541E+03  0.7561462E-02  0.1093798E+00
         22   -1    0    0    0    0  0.00000000000E+00  0.00000000000E+00  0.59104929575E+03  0.59104929575E+03  0.00000000000E+00 0. -1.
         22   -1    0    0    0    0 -0.00000000000E+00 -0.00000000000E+00 -0.46438719467E+03  0.46438719467E+03  0.00000000000E+00 0. -1.
        -24    2    1    2    0    0  0.82449474274E+02  0.26903344116E+02 -0.39390311630E+03  0.41141745751E+03  0.81135402754E+02 0.  0.
         25    2    1    2    0    0 -0.93878336610E+02 -0.58938483252E+02  0.61140289552E+02  0.17798100468E+03  0.12510881714E+03 0.  0.
         24    2    1    2    0    0  0.11428862336E+02  0.32035139136E+02  0.45942492783E+03  0.46603802823E+03  0.70450765884E+02 0.  0.
        -11    1    5    5    0    0 -0.26439622492E+02  0.25634947831E+02  0.16136333817E+03  0.16551232912E+03  0.00000000000E+00 0.  1.
         12    1    5    5    0    0  0.37868484828E+02  0.64001913046E+01  0.29806158967E+03  0.30052569911E+03  0.00000000000E+00 0. -1.
         13    1    3    3    0    0  0.96671634432E+02  0.24616127480E+02 -0.37244178255E+03  0.38557001961E+03  0.00000000000E+00 0. -1.
        -14    1    3    3    0    0 -0.14222160158E+02  0.22872166356E+01 -0.21461333756E+02  0.25847437901E+02  0.00000000000E+00 0.  1.
          5    1    4    4  501    0 -0.24521457061E+02 -0.60721543852E+02  0.82363596348E+02  0.10530736986E+03  0.41800000000E+01 0.  1.
         -5    1    4    4    0  501 -0.69356879549E+02  0.17830605999E+01 -0.21223306796E+02  0.72673634815E+02  0.41800000000E+01 0.  1.
</event>
<event>
11    1  0.8479398E-009  0.2119711E+03  0.7561462E-02  0.1046367E+00
         22   -1    0    0    0    0  0.00000000000E+00  0.00000000000E+00  0.43848443354E+03  0.43848443354E+03  0.00000000000E+00 0. -1.
         22   -1    0    0    0    0 -0.00000000000E+00 -0.00000000000E+00 -0.26864156592E+03  0.26864156592E+03  0.00000000000E+00 0.  1.
        -24    2    1    2    0    0 -0.89622902972E+02  0.46602727924E+02 -0.13400664804E+03  0.18512896452E+03  0.78172071728E+02 0.  0.
         25    2    1    2    0    0  0.18075018841E+03  0.88902121591E+02  0.13009107919E+03  0.27045462143E+03  0.12509114891E+03 0.  0.
         24    2    1    2    0    0 -0.91127285442E+02 -0.13550484952E+03  0.17375843647E+03  0.25154241351E+03  0.80098971007E+02 0.  0.
        -13    1    5    5    0    0  0.13013145693E+02 -0.37413961950E+01  0.89096705869E+01  0.16208708656E+02  0.00000000000E+00 0.  1.
         14    1    5    5    0    0 -0.10414043113E+03 -0.13176345332E+03  0.16484876588E+03  0.23533370485E+03  0.00000000000E+00 0. -1.
         13    1    3    3    0    0  0.17957237109E+01  0.22909462839E+02 -0.23443042261E+01  0.23099001570E+02  0.00000000000E+00 0. -1.
        -14    1    3    3    0    0 -0.91418626683E+02  0.23693265085E+02 -0.13166234381E+03  0.16202996295E+03  0.00000000000E+00 0.  1.
          5    1    4    4  501    0  0.11023370847E+03  0.56081067554E+02  0.59410966963E+01  0.12389239545E+03  0.41800000000E+01 0.  1.
         -5    1    4    4    0  501  0.70516479943E+02  0.32821054037E+02  0.12414998249E+03  0.14656222598E+03  0.41800000000E+01 0.  1.
</event>
<event>
11    1  0.8479398E-009  0.1299407E+03  0.7561462E-02  0.1119342E+00
         22   -1    0    0    0    0  0.00000000000E+00  0.00000000000E+00  0.18838268846E+03  0.18838268846E+03  0.00000000000E+00 0. -1.
         22   -1    0    0    0    0 -0.00000000000E+00 -0.00000000000E+00 -0.98017457588E+03  0.98017457588E+03  0.00000000000E+00 0. -1.
        -24    2    1    2    0    0  0.15546629664E+02 -0.16445050993E+02 -0.83543808517E+03  0.83973815708E+03  0.81800005592E+02 0.  0.
         25    2    1    2    0    0  0.12812284257E+02  0.37538337158E+02 -0.97289697493E+02  0.16335962069E+03  0.12509116295E+03 0.  0.
         24    2    1    2    0    0 -0.28358913920E+02 -0.21093286165E+02  0.14093589523E+03  0.16545948658E+03  0.79150239499E+02 0.  0.
        -13    1    5    5    0    0  0.26530676461E+02 -0.14035917703E+02  0.63983521536E+02  0.70673720770E+02  0.00000000000E+00 0.  1.
         14    1    5    5    0    0 -0.54889590382E+02 -0.70573684622E+01  0.76952373698E+02  0.94785765807E+02  0.00000000000E+00 0. -1.
         13    1    3    3    0    0  0.29754079641E+02  0.51775527467E+01 -0.74656622172E+03  0.74717684368E+03  0.00000000000E+00 0. -1.
        -14    1    3    3    0    0 -0.14207449977E+02 -0.21622603740E+02 -0.88871863443E+02  0.92561313404E+02  0.00000000000E+00 0.  1.
          5    1    4    4  501    0 -0.39940962204E+01 -0.33979824052E+02  0.75382074220E+01  0.35282831779E+02  0.41800000000E+01 0. -1.
         -5    1    4    4    0  501  0.16806380477E+02  0.71518161210E+02 -0.10482790491E+03  0.12807678891E+03  0.41800000000E+01 0. -1.
</event>
<event>
11    1  0.8479398E-009  0.1693390E+03  0.7561462E-02  0.1078608E+00
         22   -1    0    0    0    0  0.00000000000E+00  0.00000000000E+00  0.22084018268E+03  0.22084018268E+03  0.00000000000E+00 0. -1.
         22   -1    0    0    0    0 -0.00000000000E+00 -0.00000000000E+00 -0.78549776168E+03  0.78549776168E+03  0.00000000000E+00 0.  1.
         24    2    1    2    0    0  0.69712788391E+02  0.85471800860E+02 -0.48503269749E+03  0.50499166989E+03  0.87146815304E+02 0.  0.
         25    2    1    2    0    0 -0.42533576190E+02 -0.12430836441E+03 -0.24883497901E+03  0.30794228367E+03  0.12509168130E+03 0.  0.
        -24    2    1    2    0    0 -0.27179212202E+02  0.38836563546E+02  0.16921009749E+03  0.19340399080E+03  0.80784022674E+02 0.  0.
        -13    1    3    3    0    0  0.12674308096E+02  0.81524587439E+02 -0.31385712513E+03  0.32451993997E+03  0.00000000000E+00 0.  1.
         14    1    3    3    0    0  0.57038480296E+02  0.39472134209E+01 -0.17117557236E+03  0.18047172992E+03  0.00000000000E+00 0. -1.
         11    1    5    5    0    0 -0.52490494394E+02  0.37958180917E+02  0.14283865181E+03  0.15684054307E+03  0.00000000000E+00 0. -1.
        -12    1    5    5    0    0  0.25311282192E+02  0.87838262873E+00  0.26371445683E+02  0.36563447727E+02  0.00000000000E+00 0.  1.
          5    1    4    4  501    0 -0.27659529547E+02 -0.14932651840E+03 -0.21181273393E+03  0.26066370159E+03  0.41800000000E+01 0. -1.
         -5    1    4    4    0  501 -0.14874046643E+02  0.25018153996E+02 -0.37022245075E+02  0.47278582078E+02  0.41800000000E+01 0. -1.
</event>
<event>
11    1  0.8479398E-009  0.1506361E+03  0.7561462E-02  0.1096231E+00
         22   -1    0    0    0    0  0.00000000000E+00  0.00000000000E+00  0.50978124520E+03  0.50978124520E+03  0.00000000000E+00 0.  1.
         22   -1    0    0    0    0 -0.00000000000E+00 -0.00000000000E+00 -0.92033848473E+03  0.92033848473E+03  0.00000000000E+00 0.  1.
         24    2    1    2    0    0  0.79064983144E+02  0.28989205879E+02 -0.83217830577E+03  0.84021267236E+03  0.79655235710E+02 0.  0.
         25    2    1    2    0    0 -0.90277082511E+02  0.19784211078E+02 -0.20664231324E+01  0.15553618007E+03  0.12508343844E+03 0.  0.
        -24    2    1    2    0    0  0.11212099367E+02 -0.48773416957E+02  0.42368748937E+03  0.43437087750E+03  0.81623606858E+02 0.  0.
        -13    1    3    3    0    0  0.44544037965E+02  0.53146473940E+02 -0.62193457530E+03  0.62578857049E+03  0.00000000000E+00 0.  1.
         14    1    3    3    0    0  0.34520945179E+02 -0.24157268061E+02 -0.21024373047E+03  0.21442410186E+03  0.00000000000E+00 0. -1.
         11    1    5    5    0    0  0.25575938120E+02 -0.17329754851E+02  0.47913201697E+02  0.57009858014E+02  0.00000000000E+00 0. -1.
        -12    1    5    5    0    0 -0.14363838754E+02 -0.31443662107E+02  0.37577428767E+03  0.37736101948E+03  0.00000000000E+00 0.  1.
          5    1    4    4  501    0  0.92479819081E+01  0.37720735105E+02 -0.31442493372E+02  0.50144609039E+02  0.41800000000E+01 0. -1.
         -5    1    4    4    0  501 -0.99525064419E+02 -0.17936524027E+02  0.29376070240E+02  0.10539157103E+03  0.41800000000E+01 0. -1.
</event>
<event>
11    1  0.8479398E-009  0.1702501E+03  0.7561462E-02  0.1077814E+00
         22   -1    0    0    0    0  0.00000000000E+00  0.00000000000E+00  0.57564566563E+02  0.57564566563E+02  0.00000000000E+00 0.  1.
         22   -1    0    0    0    0 -0.00000000000E+00 -0.00000000000E+00 -0.23755611139E+04  0.23755611139E+04  0.00000000000E+00 0. -1.
        -24    2    1    2    0    0  0.10515249458E+03 -0.58900994639E+02 -0.17720228229E+04  0.17776941349E+04  0.74867737017E+02 0.  0.
         25    2    1    2    0    0 -0.10352077826E+03  0.41670396929E+01 -0.53841589673E+03  0.56238242600E+03  0.12509356287E+03 0.  0.
         24    2    1    2    0    0 -0.16317163117E+01  0.54733954946E+02 -0.75578276907E+01  0.93049119558E+02  0.74850180821E+02 0.  0.
        -13    1    5    5    0    0 -0.46797114132E+01 -0.94739038004E+01  0.20382881522E+02  0.22959015904E+02  0.00000000000E+00 0.  1.
         14    1    5    5    0    0  0.30479951015E+01  0.64207858746E+02 -0.27940709213E+02  0.70090103654E+02  0.00000000000E+00 0. -1.
         11    1    3    3    0    0  0.11611838862E+03 -0.59848701980E+02 -0.16597919557E+04  0.16649248282E+04  0.00000000000E+00 0. -1.
        -12    1    3    3    0    0 -0.10965894038E+02  0.94770734102E+00 -0.11223086719E+03  0.11276930669E+03  0.00000000000E+00 0.  1.
          5    1    4    4  501    0 -0.11772074663E+02  0.53876906634E+02 -0.14058439702E+03  0.15107199573E+03  0.41800000000E+01 0. -1.
         -5    1    4    4    0  501 -0.91748703602E+02 -0.49709866941E+02 -0.39783149971E+03  0.41131043026E+03  0.41800000000E+01 0. -1.
</event>
<event>
11    1  0.8479398E-009  0.1387059E+03  0.7561462E-02  0.1109012E+00
         22   -1    0    0    0    0  0.00000000000E+00  0.00000000000E+00  0.63660864237E+03  0.63660864237E+03  0.00000000000E+00 0. -1.
         22   -1    0    0    0    0 -0.00000000000E+00 -0.00000000000E+00 -0.15968350262E+03  0.15968350262E+03  0.00000000000E+00 0. -1.
        -24    2    1    2    0    0  0.45744071672E+02 -0.71517521722E+00 -0.10158919125E+03  0.13726539366E+03  0.80177259558E+02 0.  0.
         25    2    1    2    0    0 -0.18651159608E+01  0.47115654603E+02  0.93017195580E+02  0.16285886790E+03  0.12508976223E+03 0.  0.
         24    2    1    2    0    0 -0.43878955711E+02 -0.46400479386E+02  0.48549713541E+03  0.49616788342E+03  0.79979577417E+02 0.  0.
        -11    1    5    5    0    0 -0.22847931617E+02  0.94214015318E+01  0.42428076229E+02  0.49101246812E+02  0.00000000000E+00 0.  1.
         12    1    5    5    0    0 -0.21031024094E+02 -0.55821880917E+02  0.44306905918E+03  0.44706663661E+03  0.00000000000E+00 0. -1.
         13    1    3    3    0    0  0.31335781747E+02  0.38624505111E+01 -0.11363221302E+03  0.11793697290E+03  0.00000000000E+00 0. -1.
        -14    1    3    3    0    0  0.14408289925E+02 -0.45776257283E+01  0.12043021769E+02  0.19328420763E+02  0.00000000000E+00 0.  1.
          5    1    4    4  501    0  0.59866335654E+01 -0.33891725045E+01 -0.29215600078E+02  0.30304289459E+02  0.41800000000E+01 0. -1.
         -5    1    4    4    0  501 -0.78517495262E+01  0.50504827107E+02  0.12223279566E+03  0.13255457844E+03  0.41800000000E+01 0. -1.
</event>
<event>
11    1  0.8479398E-009  0.1761983E+03  0.7561462E-02  0.1072760E+00
         22   -1    0    0    0    0  0.00000000000E+00  0.00000000000E+00  0.12177881932E+03  0.12177881932E+03  0.00000000000E+00 0.  1.
         22   -1    0    0    0    0 -0.00000000000E+00 -0.00000000000E+00 -0.81916911468E+03  0.81916911468E+03  0.00000000000E+00 0.  1.
         24    2    1    2    0    0  0.60394332953E+02  0.42104923656E+02 -0.48592729325E+03  0.49801260807E+03  0.80442050067E+02 0.  0.
         25    2    1    2    0    0  0.39179910040E+01  0.79250150250E+02 -0.23891607232E+03  0.28111283154E+03  0.12509035725E+03 0.  0.
        -24    2    1    2    0    0 -0.64312323957E+02 -0.12135507391E+03  0.27453070205E+02  0.16182249439E+03  0.81053807134E+02 0.  0.
        -11    1    3    3    0    0 -0.79741496742E+01  0.36966752476E+02 -0.12361073639E+03  0.12926616728E+03  0.00000000000E+00 0.  1.
         12    1    3    3    0    0  0.68368482627E+02  0.51381711796E+01 -0.36231655686E+03  0.36874644079E+03  0.00000000000E+00 0. -1.
         13    1    5    5    0    0  0.23398698096E+01 -0.47266867056E+02 -0.20081494333E+02  0.51409124936E+02  0.00000000000E+00 0. -1.
        -14    1    5    5    0    0 -0.66652193767E+02 -0.74088206849E+02  0.47534564537E+02  0.11041336945E+03  0.00000000000E+00 0.  1.
          5    1    4    4  501    0 -0.52070701672E+02  0.44903940592E+02 -0.63238709408E+02  0.93511114959E+02  0.41800000000E+01 0.  1.
         -5    1    4    4    0  501  0.55988692676E+02  0.34346209658E+02 -0.17567736291E+03  0.18760171658E+03  0.41800000000E+01 0.  1.
</event>
<event>
11    1  0.8479398E-009  0.1788161E+03  0.7561462E-02  0.1070604E+00
         22   -1    0    0    0    0  0.00000000000E+00  0.00000000000E+00  0.36441270004E+03  0.36441270004E+03  0.00000000000E+00 0. -1.
         22   -1    0    0    0    0 -0.00000000000E+00 -0.00000000000E+00 -0.16027002914E+04  0.16027002914E+04  0.00000000000E+00 0. -1.
        -24    2    1    2    0    0  0.45508815465E+02 -0.20266500875E+02 -0.14751185820E+04  0.14782171845E+04  0.81666579424E+02 0.  0.
         25    2    1    2    0    0 -0.96236044871E+02 -0.96829121661E+02 -0.24888142906E+02  0.18682699919E+03  0.12509057852E+03 0.  0.
         24    2    1    2    0    0  0.50727229407E+02  0.11709562254E+03  0.26171913356E+03  0.30206880776E+03  0.80399148823E+02 0.  0.
        -13    1    5    5    0    0 -0.25346594673E+01  0.15419507973E+02 -0.70288497798E+00  0.15642243191E+02  0.00000000000E+00 0.  1.
         14    1    5    5    0    0  0.53261888874E+02  0.10167611456E+03  0.26242201854E+03  0.28642656457E+03  0.00000000000E+00 0. -1.
         11    1    3    3    0    0  0.44695040737E+02 -0.12284922154E+02 -0.14626884639E+04  0.14634227374E+04  0.00000000000E+00 0. -1.
        -12    1    3    3    0    0  0.81377472799E+00 -0.79815787209E+01 -0.12430118175E+02  0.14794447135E+02  0.00000000000E+00 0.  1.
          5    1    4    4  501    0  0.28506544049E+02 -0.48538645341E+01 -0.10791893557E+02  0.31146756188E+02  0.41800000000E+01 0.  1.
         -5    1    4    4    0  501 -0.12474258892E+03 -0.91975257127E+02 -0.14096249349E+02  0.15568024300E+03  0.41800000000E+01 0.  1.
</event>
<event>
11    1  0.8479398E-009  0.1289930E+03  0.7561462E-02  0.1120512E+00
         22   -1    0    0    0    0  0.00000000000E+00  0.00000000000E+00  0.85008571413E+03  0.85008571413E+03  0.00000000000E+00 0.  1.
         22   -1    0    0    0    0 -0.00000000000E+00 -0.00000000000E+00 -0.83695666984E+03  0.83695666984E+03  0.00000000000E+00 0. -1.
        -24    2    1    2    0    0  0.15669043817E+01 -0.24045478147E+01 -0.69957930494E+03  0.70398009535E+03  0.78540013427E+02 0.  0.
         25    2    1    2    0    0 -0.11089756846E+02  0.32384187810E+02 -0.10122618021E+03  0.16451509721E+03  0.12508700701E+03 0.  0.
         24    2    1    2    0    0  0.95228524642E+01 -0.29979639995E+02  0.81393452944E+03  0.81854719142E+03  0.80874117167E+02 0.  0.
        -11    1    5    5    0    0  0.14632151533E+02 -0.55532374943E+02  0.65258225144E+03  0.65510422027E+03  0.00000000000E+00 0.  1.
         12    1    5    5    0    0 -0.51092990685E+01  0.25552734948E+02  0.16135227800E+03  0.16344297114E+03  0.00000000000E+00 0. -1.
         11    1    3    3    0    0 -0.20724129866E+02 -0.10612302844E+02 -0.63051834215E+03  0.63094808845E+03  0.00000000000E+00 0. -1.
        -12    1    3    3    0    0  0.22291034248E+02  0.82077550289E+01 -0.69060962789E+02  0.73032006900E+02  0.00000000000E+00 0.  1.
          5    1    4    4  501    0 -0.99467116012E+01 -0.37035058160E+02  0.35676259683E+01  0.38739294775E+02  0.41800000000E+01 0. -1.
         -5    1    4    4    0  501 -0.11430452447E+01  0.69419245970E+02 -0.10479380618E+03  0.12577580243E+03  0.41800000000E+01 0. -1.
</event>
<event>
11    1  0.8479398E-009  0.1330350E+03  0.7561462E-02  0.1115595E+00
         22   -1    0    0    0    0  0.00000000000E+00  0.00000000000E+00  0.19121971825E+04  0.19121971825E+04  0.00000000000E+00 0. -1.
         22   -1    0    0    0    0 -0.00000000000E+00 -0.00000000000E+00 -0.31273946786E+04  0.31273946786E+04  0.00000000000E+00 0. -1.
         24    2    1    2    0    0 -0.26787277368E+02  0.37032632178E+01 -0.27481259317E+04  0.27494305140E+04  0.80254237758E+02 0.  0.
         25    2    1    2    0    0  0.66177429983E+02 -0.25872611629E+02 -0.36381864824E+03  0.39123078341E+03  0.12509465539E+03 0.  0.
        -24    2    1    2    0    0 -0.39390152614E+02  0.22169348411E+02  0.18967470838E+04  0.18989305637E+04  0.79023552563E+02 0.  0.
        -13    1    3    3    0    0  0.13037643004E+02 -0.73903457816E+01 -0.11407947229E+03  0.11505965124E+03  0.00000000000E+00 0.  1.
         14    1    3    3    0    0 -0.39824920373E+02  0.11093608999E+02 -0.26340464594E+04  0.26343708628E+04  0.00000000000E+00 0. -1.
         11    1    5    5    0    0 -0.98630010523E+01 -0.12889872982E+02  0.13949334978E+04  0.13950279176E+04  0.00000000000E+00 0. -1.
        -12    1    5    5    0    0 -0.29527151562E+02  0.35059221392E+02  0.50181358599E+03  0.50390264612E+03  0.00000000000E+00 0.  1.
          5    1    4    4  501    0 -0.32285760307E+02 -0.22106035496E+02 -0.16051645583E+03  0.16526963458E+03  0.41800000000E+01 0.  1.
         -5    1    4    4    0  501  0.98463190289E+02 -0.37665761330E+01 -0.20330219241E+03  0.22596114882E+03  0.41800000000E+01 0.  1.
</event>
<event>
11    1  0.8479398E-009  0.1393568E+03  0.7561462E-02  0.1108279E+00
         22   -1    0    0    0    0  0.00000000000E+00  0.00000000000E+00  0.88456902566E+02  0.88456902566E+02  0.00000000000E+00 0.  1.
         22   -1    0    0    0    0 -0.00000000000E+00 -0.00000000000E+00 -0.16118151862E+04  0.16118151862E+04  0.00000000000E+00 0.  1.
        -24    2    1    2    0    0  0.32886277582E+02 -0.26244379342E+02 -0.13857948160E+04  0.13887215691E+04  0.79687198851E+02 0.  0.
         25    2    1    2    0    0  0.20385893102E+02  0.60893116444E+02 -0.15202566159E+03  0.20708413697E+03  0.12509389167E+03 0.  0.
         24    2    1    2    0    0 -0.53272170684E+02 -0.34648737102E+02  0.14462193998E+02  0.10446638268E+03  0.81643192631E+02 0.  0.
        -11    1    5    5    0    0 -0.17576921324E+02 -0.58077691888E+02  0.64159828517E+01  0.61017467124E+02  0.00000000000E+00 0.  1.
         12    1    5    5    0    0 -0.35695249360E+02  0.23428954786E+02  0.80462111467E+01  0.43448915556E+02  0.00000000000E+00 0. -1.
         13    1    3    3    0    0  0.49030772351E+02  0.11696659037E+00 -0.50259586551E+03  0.50498181586E+03  0.00000000000E+00 0. -1.
        -14    1    3    3    0    0 -0.16144494769E+02 -0.26361345932E+02 -0.88319895049E+03  0.88373975322E+03  0.00000000000E+00 0.  1.
          5    1    4    4  501    0  0.54620892298E+02  0.76968851199E+02 -0.13646121446E+03  0.16597223076E+03  0.41800000000E+01 0. -1.
         -5    1    4    4    0  501 -0.34234999196E+02 -0.16075734756E+02 -0.15564447129E+02  0.41111906211E+02  0.41800000000E+01 0. -1.
</event>
<event>
11    1  0.8479398E-009  0.1726922E+03  0.7561462E-02  0.1075712E+00
         22   -1    0    0    0    0  0.00000000000E+00  0.00000000000E+00  0.48491781674E+03  0.48491781674E+03  0.00000000000E+00 0.  1.
         22   -1    0    0    0    0 -0.00000000000E+00 -0.00000000000E+00 -0.42310913623E+03  0.42310913623E+03  0.00000000000E+00 0. -1.
        -24    2    1    2    0    0  0.66396862727E+02 -0.93688652465E+02 -0.29194377788E+03  0.32400840977E+03  0.81019585142E+02 0.  0.
         25    2    1    2    0    0 -0.23930311146E+02  0.15587733773E+03 -0.12348947573E+02  0.20166667279E+03  0.12508615510E+03 0.  0.
         24    2    1    2    0    0 -0.42466551580E+02 -0.62188685266E+02  0.36610140597E+03  0.38235187041E+03  0.80572158838E+02 0.  0.
        -11    1    5    5    0    0  0.21743779495E+02 -0.28773315649E+02  0.15656014152E+03  0.16066042933E+03  0.00000000000E+00 0.  1.
         12    1    5    5    0    0 -0.64210331075E+02 -0.33415369617E+02  0.20954126445E+03  0.22169144109E+03  0.00000000000E+00 0. -1.
         11    1    3    3    0    0  0.22577793053E+02 -0.43146661547E+02 -0.22179605366E+03  0.22707901832E+03  0.00000000000E+00 0. -1.
        -12    1    3    3    0    0  0.43819069674E+02 -0.50541990919E+02 -0.70147724216E+02  0.96929391445E+02  0.00000000000E+00 0.  1.
          5    1    4    4  501    0 -0.77909984615E+01  0.78145266499E+02  0.56227261491E+02  0.96676572488E+02  0.41800000000E+01 0.  1.
         -5    1    4    4    0  501 -0.16139312685E+02  0.77732071232E+02 -0.68576209065E+02  0.10499010030E+03  0.41800000000E+01 0.  1.
</event>
<event>
11    1  0.8479398E-009  0.1647344E+03  0.7561462E-02  0.1082707E+00
         22   -1    0    0    0    0  0.00000000000E+00  0.00000000000E+00  0.11065648696E+04  0.11065648696E+04  0.00000000000E+00 0.  1.
         22   -1    0    0    0    0 -0.00000000000E+00 -0.00000000000E+00 -0.17305013984E+03  0.17305013984E+03  0.00000000000E+00 0. -1.
         24    2    1    2    0    0 -0.86246337285E+01 -0.10076010019E+02 -0.10255009303E+03  0.13014512029E+03  0.79027340012E+02 0.  0.
         25    2    1    2    0    0 -0.77216270337E+02  0.74349230489E+02  0.78398117305E+02  0.18245068106E+03  0.12510725696E+03 0.  0.
        -24    2    1    2    0    0  0.85840904065E+02 -0.64273220471E+02  0.95766670554E+03  0.96701920813E+03  0.80628297300E+02 0.  0.
        -11    1    3    3    0    0  0.32407879853E+02 -0.16149644347E+02 -0.63919761774E+02  0.73463035837E+02  0.00000000000E+00 0.  1.
         12    1    3    3    0    0 -0.41032513581E+02  0.60736343285E+01 -0.38630331256E+02  0.56682084451E+02  0.00000000000E+00 0. -1.
         13    1    5    5    0    0 -0.15650872032E+02 -0.92169937599E+01  0.10313565081E+03  0.10472280190E+03  0.00000000000E+00 0. -1.
        -14    1    5    5    0    0  0.10149177610E+03 -0.55056226711E+02  0.85453105473E+03  0.86229640624E+03  0.00000000000E+00 0.  1.
          5    1    4    4  501    0  0.15358962513E+02 -0.24496769376E+02  0.15489011442E+02  0.33066165710E+02  0.41800000000E+01 0.  1.
         -5    1    4    4    0  501 -0.92575232850E+02  0.98845999865E+02  0.62909105864E+02  0.14938451535E+03  0.41800000000E+01 0.  1.
</event>
<event>
11    1  0.8479398E-009  0.1509472E+03  0.7561462E-02  0.1095915E+00
         22   -1    0    0    0    0  0.00000000000E+00  0.00000000000E+00  0.20360280908E+04  0.20360280908E+04  0.00000000000E+00 0.  1.
         22   -1    0    0    0    0 -0.00000000000E+00 -0.00000000000E+00 -0.11970730675E+04  0.11970730675E+04  0.00000000000E+00 0. -1.
         24    2    1    2    0    0  0.83916052725E+02 -0.27442829795E+01 -0.11594219977E+04  0.11651650955E+04  0.79378182506E+02 0.  0.
         25    2    1    2    0    0 -0.13072134153E+03 -0.17368516808E+02  0.21414042492E+03  0.28087777041E+03  0.12508583379E+03 0.  0.
        -24    2    1    2    0    0  0.46805288804E+02  0.20112799787E+02  0.17842365961E+04  0.17870582925E+04  0.86497688162E+02 0.  0.
        -13    1    3    3    0    0  0.13810542578E+02  0.33666170186E+02 -0.39453888351E+03  0.39621341813E+03  0.00000000000E+00 0.  1.
         14    1    3    3    0    0  0.70105510148E+02 -0.36410453166E+02 -0.76488311424E+03  0.76895167735E+03  0.00000000000E+00 0. -1.
         11    1    5    5    0    0  0.16750926080E+00 -0.26597389279E+02  0.25182158437E+03  0.25322235196E+03  0.00000000000E+00 0. -1.
        -12    1    5    5    0    0  0.46637779544E+02  0.46710189066E+02  0.15324150118E+04  0.15338359405E+04  0.00000000000E+00 0.  1.
          5    1    4    4  501    0 -0.12683541965E+03 -0.52439449401E+02  0.20007800932E+03  0.24266396879E+03  0.41800000000E+01 0. -1.
         -5    1    4    4    0  501 -0.38859218744E+01  0.35070932593E+02  0.14062415596E+02  0.38213801619E+02  0.41800000000E+01 0. -1.
</event>
<event>
11    1  0.8479398E-009  0.1355292E+03  0.7561462E-02  0.1112656E+00
         22   -1    0    0    0    0  0.00000000000E+00  0.00000000000E+00  0.11776769196E+03  0.11776769196E+03  0.00000000000E+00 0. -1.
         22   -1    0    0    0    0 -0.00000000000E+00 -0.00000000000E+00 -0.42854681708E+03  0.42854681708E+03  0.00000000000E+00 0. -1.
         24    2    1    2    0    0  0.72246480210E+01 -0.31135912261E+01 -0.63847965064E+02  0.10307299087E+03  0.80533153518E+02 0.  0.
         25    2    1    2    0    0 -0.11368044158E+02  0.54823582526E+02 -0.30293124790E+03  0.33248849209E+03  0.12508556587E+03 0.  0.
        -24    2    1    2    0    0  0.41433961370E+01 -0.51709991300E+02  0.56000087845E+02  0.11075302607E+03  0.80244202359E+02 0.  0.
        -11    1    3    3    0    0 -0.70456217218E+01 -0.35623571242E+02 -0.84655305159E+01  0.37287327880E+02  0.00000000000E+00 0.  1.
         12    1    3    3    0    0  0.14270269743E+02  0.32509980016E+02 -0.55382434548E+02  0.65785662995E+02  0.00000000000E+00 0. -1.
         11    1    5    5    0    0  0.33506222291E+02 -0.16351359379E+02  0.52859256600E+02  0.64684889225E+02  0.00000000000E+00 0. -1.
        -12    1    5    5    0    0 -0.29362826154E+02 -0.35358631921E+02  0.31408312449E+01  0.46068136841E+02  0.00000000000E+00 0.  1.
          5    1    4    4  501    0 -0.67000781718E+01  0.54736074572E+02 -0.31450333159E+03  0.31932858765E+03  0.41800000000E+01 0.  1.
         -5    1    4    4    0  501 -0.46679659862E+01  0.87507954280E-01  0.11572083689E+02  0.13159904444E+02  0.41800000000E+01 0.  1.
</event>
<event>
11    1  0.8479398E-009  0.1778920E+03  0.7561462E-02  0.1071361E+00
         22   -1    0    0    0    0  0.00000000000E+00  0.00000000000E+00  0.98397915926E+03  0.98397915926E+03  0.00000000000E+00 0.  1.
         22   -1    0    0    0    0 -0.00000000000E+00 -0.00000000000E+00 -0.96704009259E+03  0.96704009259E+03  0.00000000000E+00 0. -1.
        -24    2    1    2    0    0 -0.38124792953E+02  0.12055145518E+03 -0.89464541713E+03  0.90716503027E+03  0.81066741392E+02 0.  0.
         25    2    1    2    0    0  0.33520297880E+02 -0.12307967689E+03  0.60034905929E+02  0.18847639425E+03  0.12508774531E+03 0.  0.
         24    2    1    2    0    0  0.46044950727E+01  0.25282217147E+01  0.85154957788E+03  0.85537782733E+03  0.80665671842E+02 0.  0.
        -13    1    5    5    0    0 -0.13536195196E+02  0.37404284568E+02  0.51659682901E+03  0.51812603952E+03  0.00000000000E+00 0.  1.
         14    1    5    5    0    0  0.18140690269E+02 -0.34876062853E+02  0.33495274888E+03  0.33725178781E+03  0.00000000000E+00 0. -1.
         11    1    3    3    0    0 -0.47681826504E+02  0.96328641598E+02 -0.83746699203E+03  0.84433626388E+03  0.00000000000E+00 0. -1.
        -12    1    3    3    0    0  0.95570335515E+01  0.24222813577E+02 -0.57178425105E+02  0.62828766384E+02  0.00000000000E+00 0.  1.
          5    1    4    4  501    0  0.79135430683E+02 -0.95224690175E+02  0.51617828154E+02  0.13420890653E+03  0.41800000000E+01 0. -1.
         -5    1    4    4    0  501 -0.45615132803E+02 -0.27854986715E+02  0.84170777751E+01  0.54267487724E+02  0.41800000000E+01 0. -1.
</event>
<event>
11    1  0.8479398E-009  0.1456517E+03  0.7561462E-02  0.1101406E+00
         22   -1    0    0    0    0  0.00000000000E+00  0.00000000000E+00  0.17081370175E+04  0.17081370175E+04  0.00000000000E+00 0.  1.
         22   -1    0    0    0    0 -0.00000000000E+00 -0.00000000000E+00 -0.53009910340E+02  0.53009910340E+02  0.00000000000E+00 0. -1.
        -24    2    1    2    0    0 -0.20966364613E+01  0.76994980992E+02  0.32774977437E+02  0.11579597269E+03  0.80011781397E+02 0.  0.
         25    2    1    2    0    0  0.18834383460E+01 -0.59029060095E+02  0.46750446574E+03  0.48754171011E+03  0.12509402998E+03 0.  0.
         24    2    1    2    0    0  0.21319811528E+00 -0.17965920896E+02  0.11548476640E+04  0.11578092450E+04  0.80785525454E+02 0.  0.
        -13    1    5    5    0    0  0.17878937197E+02 -0.46008583523E+02  0.64561749890E+03  0.64750166103E+03  0.00000000000E+00 0.  1.
         14    1    5    5    0    0 -0.17665739082E+02  0.28042662626E+02  0.50923016505E+03  0.51030758398E+03  0.00000000000E+00 0. -1.
         11    1    3    3    0    0  0.15468600564E+02  0.48131569578E+02 -0.18968705441E+02  0.53997568274E+02  0.00000000000E+00 0. -1.
        -12    1    3    3    0    0 -0.17565237025E+02  0.28863411414E+02  0.51743682878E+02  0.61798404413E+02  0.00000000000E+00 0.  1.
          5    1    4    4  501    0 -0.24880660463E+02 -0.72858388512E+02  0.43945506221E+03  0.44616769958E+03  0.41800000000E+01 0.  1.
         -5    1    4    4    0  501  0.26764098809E+02  0.13829328417E+02  0.28049403525E+02  0.41374010534E+02  0.41800000000E+01 0.  1.
</event>
<event>
11    1  0.8479398E-009  0.1465200E+03  0.7561462E-02  0.1100489E+00
         22   -1    0    0    0    0  0.00000000000E+00  0.00000000000E+00  0.34363938813E+04  0.34363938813E+04  0.00000000000E+00 0. -1.
         22   -1    0    0    0    0 -0.00000000000E+00 -0.00000000000E+00 -0.15172249162E+02  0.15172249162E+02  0.00000000000E+00 0. -1.
        -24    2    1    2    0    0  0.34788002480E+02  0.23502966450E+02  0.21693866472E+03  0.23496302422E+03  0.79891451061E+02 0.  0.
         25    2    1    2    0    0  0.45846618044E+02  0.70577887459E+01  0.95103396046E+03  0.96034623160E+03  0.12509023076E+03 0.  0.
         24    2    1    2    0    0 -0.80634620525E+02 -0.30560755196E+02  0.22532490069E+04  0.22562568746E+04  0.78282151339E+02 0.  0.
        -13    1    5    5    0    0 -0.64033125802E+02 -0.50785604428E+02  0.12512365134E+04  0.12539027998E+04  0.00000000000E+00 0.  1.
         14    1    5    5    0    0 -0.16601494722E+02  0.20224849232E+02  0.10020124935E+04  0.10023540748E+04  0.00000000000E+00 0. -1.
         11    1    3    3    0    0  0.46798738736E+02  0.24121351629E+02  0.70288144334E+02  0.87820184386E+02  0.00000000000E+00 0. -1.
        -12    1    3    3    0    0 -0.12010736255E+02 -0.61838517920E+00  0.14665052039E+03  0.14714283984E+03  0.00000000000E+00 0.  1.
          5    1    4    4  501    0 -0.10292641996E+02 -0.30049720877E+02  0.72919401543E+02  0.79646944232E+02  0.41800000000E+01 0.  1.
         -5    1    4    4    0  501  0.56139260041E+02  0.37107509623E+02  0.87811455892E+03  0.88069928737E+03  0.41800000000E+01 0.  1.
</event>
<event>
11    1  0.8479398E-009  0.1555120E+03  0.7561462E-02  0.1091376E+00
         22   -1    0    0    0    0  0.00000000000E+00  0.00000000000E+00  0.74697559599E+03  0.74697559599E+03  0.00000000000E+00 0.  1.
         22   -1    0    0    0    0 -0.00000000000E+00 -0.00000000000E+00 -0.37533647640E+03  0.37533647640E+03  0.00000000000E+00 0. -1.
         24    2    1    2    0    0  0.62041024379E+02 -0.54700442053E+02 -0.22893116102E+03  0.25992258529E+03  0.91153973004E+02 0.  0.
         25    2    1    2    0    0 -0.11329960026E+03  0.73362693556E+02 -0.60949714158E+02  0.19385930787E+03  0.12509068458E+03 0.  0.
        -24    2    1    2    0    0  0.51258575881E+02 -0.18662251504E+02  0.66151999477E+03  0.66853017922E+03  0.79675440504E+02 0.  0.
        -11    1    3    3    0    0 -0.16955796659E+02 -0.36966338907E+02 -0.58617492482E+02  0.71344373831E+02  0.00000000000E+00 0.  1.
         12    1    3    3    0    0  0.78996821038E+02 -0.17734103146E+02 -0.17031366853E+03  0.18857821146E+03  0.00000000000E+00 0. -1.
         13    1    5    5    0    0  0.76794684954E+01 -0.24088147752E+02  0.51377236876E+03  0.51439407072E+03  0.00000000000E+00 0. -1.
        -14    1    5    5    0    0  0.43579107386E+02  0.54258962485E+01  0.14774762601E+03  0.15413610850E+03  0.00000000000E+00 0.  1.
          5    1    4    4  501    0  0.96505869135E+01  0.55454222227E+02 -0.36338483584E+02  0.67128700120E+02  0.41800000000E+01 0.  1.
         -5    1    4    4    0  501 -0.12295018717E+03  0.17908471329E+02 -0.24611230574E+02  0.12673060775E+03  0.41800000000E+01 0.  1.
</event>
<event>
11    1  0.8479398E-009  0.1442834E+03  0.7561462E-02  0.1102867E+00
         22   -1    0    0    0    0  0.00000000000E+00  0.00000000000E+00  0.54037511242E+03  0.54037511242E+03  0.00000000000E+00 0.  1.
         22   -1    0    0    0    0 -0.00000000000E+00 -0.00000000000E+00 -0.16660143253E+03  0.16660143253E+03  0.00000000000E+00 0. -1.
         24    2    1    2    0    0  0.13794931516E+02  0.18156623902E+02 -0.75058743569E+02  0.11181743685E+03  0.79682878152E+02 0.  0.
         25    2    1    2    0    0 -0.15403600514E+02  0.55401383398E+02  0.52181255293E+01  0.13777079050E+03  0.12508787986E+03 0.  0.
        -24    2    1    2    0    0  0.16086689981E+01 -0.73558007301E+02  0.44361429793E+03  0.45738831760E+03  0.83648427915E+02 0.  0.
        -13    1    3    3    0    0  0.36050651853E+02  0.34404796470E+02 -0.27670757119E+02  0.57000090515E+02  0.00000000000E+00 0.  1.
         14    1    3    3    0    0 -0.22255720338E+02 -0.16248172567E+02 -0.47387986449E+02  0.54817346335E+02  0.00000000000E+00 0. -1.
         13    1    5    5    0    0  0.29316784296E+02 -0.34593792503E+01  0.65655650127E+02  0.71986842824E+02  0.00000000000E+00 0. -1.
        -14    1    5    5    0    0 -0.27708115298E+02 -0.70098628051E+02  0.37795864781E+03  0.38540147478E+03  0.00000000000E+00 0.  1.
          5    1    4    4  501    0 -0.33825903302E+02  0.35352817014E+02 -0.53677656695E+02  0.72751471691E+02  0.41800000000E+01 0.  1.
         -5    1    4    4    0  501  0.18422302788E+02  0.20048566385E+02  0.58895782224E+02  0.65019318806E+02  0.41800000000E+01 0.  1.
</event>
<event>
11    1  0.8479398E-009  0.1347059E+03  0.7561462E-02  0.1113618E+00
         22   -1    0    0    0    0  0.00000000000E+00  0.00000000000E+00  0.10924258751E+04  0.10924258751E+04  0.00000000000E+00 0. -1.
         22   -1    0    0    0    0 -0.00000000000E+00 -0.00000000000E+00 -0.83364170640E+02  0.83364170640E+02  0.00000000000E+00 0. -1.
         24    2    1    2    0    0 -0.14293906764E+02 -0.51774296481E+02 -0.23017849336E+02  0.10506965848E+03  0.87320777590E+02 0.  0.
         25    2    1    2    0    0 -0.75057426236E+01  0.30332721758E+02  0.22949335368E+03  0.26323233145E+03  0.12509057021E+03 0.  0.
        -24    2    1    2    0    0  0.21799649388E+02  0.21441574723E+02  0.80258620017E+03  0.80748805586E+03  0.83410945417E+02 0.  0.
        -13    1    3    3    0    0  0.11481861856E+02  0.70548317345E+01  0.22584092916E+02  0.26299145524E+02  0.00000000000E+00 0.  1.
         14    1    3    3    0    0 -0.25775768620E+02 -0.58829128216E+02 -0.45601942252E+02  0.78770512958E+02  0.00000000000E+00 0. -1.
         13    1    5    5    0    0  0.53385986406E+02  0.20629609026E+02  0.51161442701E+03  0.51480575584E+03  0.00000000000E+00 0. -1.
        -14    1    5    5    0    0 -0.31586337018E+02  0.81196569680E+00  0.29097177315E+03  0.29268230002E+03  0.00000000000E+00 0.  1.
          5    1    4    4  501    0 -0.64923353969E+02  0.58618712399E+01  0.10036304242E+03  0.11974813614E+03  0.41800000000E+01 0.  1.
         -5    1    4    4    0  501  0.57417611346E+02  0.24470850518E+02  0.12913031126E+03  0.14348419531E+03  0.41800000000E+01 0.  1.
</event>
<event>
11    1  0.1585145E-008  0.1534479E+03  0.7561462E-02  0.1093407E+00
         22   -1    0    0    0    0  0.00000000000E+00  0.00000000000E+00  0.16444020354E+04  0.16444020354E+04  0.00000000000E+00 0. -1.
         22   -1    0    0    0    0 -0.00000000000E+00 -0.00000000000E+00 -0.47555589982E+03  0.47555589982E+03  0.00000000000E+00 0. -1.
         24    2    1    2    0    0  0.79415299770E+02 -0.10821681489E+02 -0.36849996883E+03  0.38574771914E+03  0.81149104534E+02 0.  0.
         25    2    1    2    0    0 -0.67865238773E+02  0.98914661930E+02 -0.18031706221E+02  0.17424766937E+03  0.12508919566E+03 0.  0.
        -24    2    1    2    0    0 -0.11550060997E+02 -0.88092980441E+02  0.15553778107E+04  0.15599625467E+04  0.79932697888E+02 0.  0.
        -13    1    3    3    0    0  0.12269498776E+02 -0.10244057725E+02 -0.59870020779E+01  0.17068260391E+02  0.00000000000E+00 0.  1.
         14    1    3    3    0    0  0.67145800993E+02 -0.57762376345E+00 -0.36251296675E+03  0.36867945875E+03  0.00000000000E+00 0. -1.
         11    1    5    5    0    0 -0.16538295399E+02 -0.51182944598E+02  0.35919550324E+03  0.36320052117E+03  0.00000000000E+00 0. -1.
        -12    1    5    5    0    0  0.49882344022E+01 -0.36910035843E+02  0.11961823074E+04  0.11967620256E+04  0.00000000000E+00 0.  1.
          5    1    4    4  501    0 -0.89179856708E+02  0.10593743174E+03  0.90420486251E+01  0.13883449618E+03  0.41800000000E+01 0.  1.
         -5    1    4    4    0  501  0.21314617935E+02 -0.70227698122E+01 -0.27073754847E+02  0.35413173185E+02  0.41800000000E+01 0.  1.
</event>
<event>
11    1  0.8479398E-009  0.2521705E+03  0.7561462E-02  0.1022749E+00
         22   -1    0    0    0    0  0.00000000000E+00  0.00000000000E+00  0.39765695118E+03  0.39765695118E+03  0.00000000000E+00 0.  1.
         22   -1    0    0    0    0 -0.00000000000E+00 -0.00000000000E+00 -0.45422569073E+03  0.45422569073E+03  0.00000000000E+00 0.  1.
         24    2    1    2    0    0 -0.16087272752E+03 -0.14949807708E+03 -0.30311823699E+03  0.38291824221E+03  0.80721775952E+02 0.  0.
         25    2    1    2    0    0  0.13175824434E+03  0.17506209427E+03  0.56371091521E+02  0.25851903657E+03  0.12508964989E+03 0.  0.
        -24    2    1    2    0    0  0.29114483180E+02 -0.25564017188E+02  0.19017840592E+03  0.21044536312E+03  0.81352643934E+02 0.  0.
        -11    1    3    3    0    0 -0.14383674750E+03 -0.11348505285E+03 -0.28578529661E+03  0.33947179987E+03  0.00000000000E+00 0.  1.
         12    1    3    3    0    0 -0.17035980020E+02 -0.36013024239E+02 -0.17332940385E+02  0.43446442345E+02  0.00000000000E+00 0. -1.
         11    1    5    5    0    0  0.35403903247E+02  0.11722540413E+02  0.36500451508E+02  0.52183687865E+02  0.00000000000E+00 0. -1.
        -12    1    5    5    0    0 -0.62894200674E+01 -0.37286557602E+02  0.15367795441E+03  0.15826167525E+03  0.00000000000E+00 0.  1.
          5    1    4    4  501    0  0.96434081364E+02  0.85160626683E+02  0.88983135030E+02  0.15648429667E+03  0.41800000000E+01 0. -1.
         -5    1    4    4    0  501  0.35324162976E+02  0.89901467590E+02 -0.32612043509E+02  0.10203473990E+03  0.41800000000E+01 0. -1.
</event>
<event>
11    1  0.8479398E-009  0.1787675E+03  0.7561462E-02  0.1070644E+00
         22   -1    0    0    0    0  0.00000000000E+00  0.00000000000E+00  0.28191146634E+04  0.28191146634E+04  0.00000000000E+00 0. -1.
         22   -1    0    0    0    0 -0.00000000000E+00 -0.00000000000E+00 -0.16315947520E+03  0.16315947520E+03  0.00000000000E+00 0.  1.
         24    2    1    2    0    0  0.75303046223E+02  0.10496173229E+03 -0.11558734793E+03  0.19122772958E+03  0.80747108577E+02 0.  0.
         25    2    1    2    0    0 -0.60578956517E+02 -0.79209094426E+02  0.71129242224E+03  0.72906056016E+03  0.12509396401E+03 0.  0.
        -24    2    1    2    0    0 -0.14724089706E+02 -0.25752637861E+02  0.20602501139E+04  0.20619858489E+04  0.79215603990E+02 0.  0.
        -11    1    3    3    0    0  0.69431469883E+02  0.85711081763E+02 -0.12690086408E+03  0.16813966769E+03  0.00000000000E+00 0.  1.
         12    1    3    3    0    0  0.58715763402E+01  0.19250650525E+02  0.11313516145E+02  0.23088061892E+02  0.00000000000E+00 0. -1.
         13    1    5    5    0    0  0.80669871172E+01 -0.20646532761E+02  0.18912018610E+04  0.18913317622E+04  0.00000000000E+00 0. -1.
        -14    1    5    5    0    0 -0.22791076823E+02 -0.51061051002E+01  0.16904825292E+03  0.17065408670E+03  0.00000000000E+00 0.  1.
          5    1    4    4  501    0 -0.38273516853E+02 -0.11257316034E+03  0.55833078553E+03  0.57086628644E+03  0.41800000000E+01 0. -1.
         -5    1    4    4    0  501 -0.22305439664E+02  0.33364065916E+02  0.15296163671E+03  0.15819427372E+03  0.41800000000E+01 0. -1.
</event>
<event>
11    1  0.8479398E-009  0.1400196E+03  0.7561462E-02  0.1107537E+00
         22   -1    0    0    0    0  0.00000000000E+00  0.00000000000E+00  0.18276803737E+03  0.18276803737E+03  0.00000000000E+00 0. -1.
         22   -1    0    0    0    0 -0.00000000000E+00 -0.00000000000E+00 -0.22573921255E+04  0.22573921255E+04  0.00000000000E+00 0.  1.
        -24    2    1    2    0    0  0.61891447936E+02 -0.99850984229E+01 -0.21305251011E+04  0.21329922171E+04  0.81168579056E+02 0.  0.
         25    2    1    2    0    0 -0.62894705739E+02  0.64623399381E+02 -0.50908063100E+02  0.16239171043E+03  0.12509000348E+03 0.  0.
         24    2    1    2    0    0  0.10032578035E+01 -0.54638300958E+02  0.10680907609E+03  0.14477623533E+03  0.81028569801E+02 0.  0.
        -13    1    5    5    0    0  0.91116070745E+01 -0.40682858840E+02  0.53397499111E+01  0.42031289726E+02  0.00000000000E+00 0.  1.
         14    1    5    5    0    0 -0.81083492710E+01 -0.13955442118E+02  0.10146932618E+03  0.10274494560E+03  0.00000000000E+00 0. -1.
         13    1    3    3    0    0  0.49966471721E+02  0.31698595566E+02 -0.12555007772E+04  0.12568944470E+04  0.00000000000E+00 0. -1.
        -14    1    3    3    0    0  0.11924976214E+02 -0.41683693989E+02 -0.87502432395E+03  0.87609777017E+03  0.00000000000E+00 0.  1.
          5    1    4    4  501    0 -0.47773639151E+02  0.23462798748E+02 -0.89245778019E+02  0.10399569615E+03  0.41800000000E+01 0.  1.
         -5    1    4    4    0  501 -0.15121066588E+02  0.41160600633E+02  0.38337714919E+02  0.58396014286E+02  0.41800000000E+01 0.  1.
</event>
<event>
11    1  0.8479398E-009  0.1618619E+03  0.7561462E-02  0.1085339E+00
         22   -1    0    0    0    0  0.00000000000E+00  0.00000000000E+00  0.45861579766E+03  0.45861579766E+03  0.00000000000E+00 0.  1.
         22   -1    0    0    0    0 -0.00000000000E+00 -0.00000000000E+00 -0.22164150638E+03  0.22164150638E+03  0.00000000000E+00 0.  1.
         24    2    1    2    0    0  0.14149613757E+02 -0.11592960585E+03 -0.10556813166E+03  0.17518373681E+03  0.76842866549E+02 0.  0.
         25    2    1    2    0    0 -0.17539807444E+02  0.72538592434E+02 -0.48485182603E+01  0.14574143003E+03  0.12509022368E+03 0.  0.
        -24    2    1    2    0    0  0.33901936877E+01  0.43391013415E+02  0.34739094120E+03  0.35933213721E+03  0.80900218450E+02 0.  0.
        -11    1    3    3    0    0 -0.79788202301E+01 -0.45841492922E+02 -0.88107931854E+02  0.99639910182E+02  0.00000000000E+00 0.  1.
         12    1    3    3    0    0  0.22128433987E+02 -0.70088112926E+02 -0.17460199802E+02  0.75543826627E+02  0.00000000000E+00 0. -1.
         13    1    5    5    0    0  0.37654447790E+02  0.36412674210E+02  0.25963320310E+03  0.26486438121E+03  0.00000000000E+00 0. -1.
        -14    1    5    5    0    0 -0.34264254102E+02  0.69783392047E+01  0.87757738100E+02  0.94467756000E+02  0.00000000000E+00 0.  1.
          5    1    4    4  501    0 -0.51334522236E+02  0.11280440955E+02 -0.41083990304E+02  0.66841964219E+02  0.41800000000E+01 0. -1.
         -5    1    4    4    0  501  0.33794714792E+02  0.61258151479E+02  0.36235472044E+02  0.78899465808E+02  0.41800000000E+01 0. -1.
</event>
<event>
11    1  0.8479398E-009  0.1463638E+03  0.7561462E-02  0.1100653E+00
         22   -1    0    0    0    0  0.00000000000E+00  0.00000000000E+00  0.12196303965E+04  0.12196303965E+04  0.00000000000E+00 0. -1.
         22   -1    0    0    0    0 -0.00000000000E+00 -0.00000000000E+00 -0.39941458719E+03  0.39941458719E+03  0.00000000000E+00 0. -1.
         24    2    1    2    0    0 -0.22277927954E+02 -0.55145025807E+02 -0.37148375347E+03  0.38496714211E+03  0.81622554886E+02 0.  0.
         25    2    1    2    0    0  0.56707182721E+02 -0.19922002054E+02  0.25598715638E+03  0.29118017708E+03  0.12507549942E+03 0.  0.
        -24    2    1    2    0    0 -0.34429254767E+02  0.75067027861E+02  0.93571240641E+03  0.94289766449E+03  0.81718210614E+02 0.  0.
        -13    1    3    3    0    0 -0.12034852941E+02 -0.42585993711E+02 -0.68508108374E+02  0.81558356154E+02  0.00000000000E+00 0.  1.
         14    1    3    3    0    0 -0.10243075013E+02 -0.12559032097E+02 -0.30297564510E+03  0.30340878596E+03  0.00000000000E+00 0. -1.
         13    1    5    5    0    0 -0.34151509323E+02  0.63521736747E+02  0.36438680075E+03  0.37145535020E+03  0.00000000000E+00 0. -1.
        -14    1    5    5    0    0 -0.27774544426E+00  0.11545291114E+02  0.57132560565E+03  0.57144231429E+03  0.00000000000E+00 0.  1.
          5    1    4    4  501    0  0.38853342390E+02  0.35527773585E+02  0.36862255770E+02  0.64405770015E+02  0.41800000000E+01 0. -1.
         -5    1    4    4    0  501  0.17853840331E+02 -0.55449775639E+02  0.21912490061E+03  0.22677440707E+03  0.41800000000E+01 0. -1.
</event>
<event>
11    1  0.8479398E-009  0.1308445E+03  0.7561462E-02  0.1118236E+00
         22   -1    0    0    0    0  0.00000000000E+00  0.00000000000E+00  0.12708585384E+04  0.12708585384E+04  0.00000000000E+00 0. -1.
         22   -1    0    0    0    0 -0.00000000000E+00 -0.00000000000E+00 -0.13816468460E+03  0.13816468460E+03  0.00000000000E+00 0.  1.
        -24    2    1    2    0    0  0.39418216344E+02 -0.12006301674E+02 -0.84884066983E+02  0.12204111717E+03  0.77400144661E+02 0.  0.
         25    2    1    2    0    0 -0.20504925945E+02  0.95957518866E+00  0.88132532698E+02  0.15438887701E+03  0.12508880546E+03 0.  0.
         24    2    1    2    0    0 -0.18913290399E+02  0.11046726485E+02  0.11294453881E+04  0.11325932288E+04  0.81491070601E+02 0.  0.
        -11    1    5    5    0    0 -0.48883688875E+02  0.89324338548E+01  0.50876932755E+03  0.51119040686E+03  0.00000000000E+00 0.  1.
         12    1    5    5    0    0  0.29970398476E+02  0.21142926304E+01  0.62067606056E+03  0.62140282199E+03  0.00000000000E+00 0. -1.
         11    1    3    3    0    0 -0.48809603659E+01 -0.53563693336E+01  0.12725054711E+02  0.14643820674E+02  0.00000000000E+00 0. -1.
        -12    1    3    3    0    0  0.44299176710E+02 -0.66499323402E+01 -0.97609121694E+02  0.10739729650E+03  0.00000000000E+00 0.  1.
          5    1    4    4  501    0  0.35654408097E+02 -0.14138393692E+02 -0.10345894148E+02  0.39945474321E+02  0.41800000000E+01 0.  1.
         -5    1    4    4    0  501 -0.56159334043E+02  0.15097968881E+02  0.98478426846E+02  0.11444340269E+03  0.41800000000E+01 0.  1.
</event>
<event>
11    1  0.8479398E-009  0.1677697E+03  0.7561462E-02  0.1079989E+00
         22   -1    0    0    0    0  0.00000000000E+00  0.00000000000E+00  0.16133759743E+04  0.16133759743E+04  0.00000000000E+00 0. -1.
         22   -1    0    0    0    0 -0.00000000000E+00 -0.00000000000E+00 -0.17874593642E+03  0.17874593642E+03  0.00000000000E+00 0. -1.
         24    2    1    2    0    0 -0.10179159835E+03  0.45634192742E+02 -0.13134728316E+03  0.18980004712E+03  0.79548350380E+02 0.  0.
         25    2    1    2    0    0  0.99919284863E+02 -0.58904273293E+02  0.41088549491E+03  0.44489250783E+03  0.12509547033E+03 0.  0.
        -24    2    1    2    0    0  0.18723134915E+01  0.13270080551E+02  0.11550918261E+04  0.11574293558E+04  0.72290982802E+02 0.  0.
        -13    1    3    3    0    0 -0.63828734438E+02  0.40368870857E+02 -0.29675263025E+02  0.81144157582E+02  0.00000000000E+00 0.  1.
         14    1    3    3    0    0 -0.37962863917E+02  0.52653218844E+01 -0.10167202014E+03  0.10865588953E+03  0.00000000000E+00 0. -1.
         13    1    5    5    0    0 -0.30877803756E+02  0.19778286168E+02  0.42674108088E+03  0.42831363448E+03  0.00000000000E+00 0. -1.
        -14    1    5    5    0    0  0.32750117247E+02 -0.65082056161E+01  0.72835074527E+03  0.72911572130E+03  0.00000000000E+00 0.  1.
          5    1    4    4  501    0  0.11977263520E+03 -0.53430848052E+02  0.40050924232E+03  0.42145636221E+03  0.41800000000E+01 0.  1.
         -5    1    4    4    0  501 -0.19853350340E+02 -0.54734252412E+01  0.10376252594E+02  0.23436145619E+02  0.41800000000E+01 0.  1.
</event>
<event>
11    1  0.8479398E-009  0.1351133E+03  0.7561462E-02  0.1113141E+00
         22   -1    0    0    0    0  0.00000000000E+00  0.00000000000E+00  0.23403911992E+03  0.23403911992E+03  0.00000000000E+00 0. -1.
         22   -1    0    0    0    0 -0.00000000000E+00 -0.00000000000E+00 -0.25048870108E+04  0.25048870108E+04  0.00000000000E+00 0.  1.
        -24    2    1    2    0    0 -0.27527117966E+02 -0.26576850031E+02 -0.19998426614E+04  0.20018063432E+04  0.79961830025E+02 0.  0.
         25    2    1    2    0    0  0.76201028712E+02  0.39141140365E+02 -0.47994630449E+03  0.50332121828E+03  0.12508064574E+03 0.  0.
         24    2    1    2    0    0 -0.48673910747E+02 -0.12564290335E+02  0.20894107501E+03  0.23379856920E+03  0.92078157854E+02 0.  0.
        -13    1    5    5    0    0 -0.50966633896E+02 -0.46921609744E+02  0.12216790926E+03  0.14044298944E+03  0.00000000000E+00 0.  1.
         14    1    5    5    0    0  0.22927231492E+01  0.34357319410E+02  0.86773165753E+02  0.93355579754E+02  0.00000000000E+00 0. -1.
         11    1    3    3    0    0  0.18689038835E+02  0.15441364105E+02 -0.39031628436E+03  0.39106843101E+03  0.00000000000E+00 0. -1.
        -12    1    3    3    0    0 -0.46216156800E+02 -0.42018214135E+02 -0.16095263771E+04  0.16107379122E+04  0.00000000000E+00 0.  1.
          5    1    4    4  501    0 -0.17353672083E+02  0.52934372769E+02 -0.20802638794E+03  0.21539649077E+03  0.41800000000E+01 0.  1.
         -5    1    4    4    0  501  0.93554700795E+02 -0.13793232403E+02 -0.27191991655E+03  0.28792472752E+03  0.41800000000E+01 0.  1.
</event>
<event>
11    1  0.8479398E-009  0.1539441E+03  0.7561462E-02  0.1092915E+00
         22   -1    0    0    0    0  0.00000000000E+00  0.00000000000E+00  0.11072083570E+04  0.11072083570E+04  0.00000000000E+00 0. -1.
         22   -1    0    0    0    0 -0.00000000000E+00 -0.00000000000E+00 -0.67240246380E+02  0.67240246380E+02  0.00000000000E+00 0. -1.
        -24    2    1    2    0    0  0.84684575032E+02 -0.69112832259E+02  0.45950423717E+02  0.14357254495E+03  0.80954143770E+02 0.  0.
         25    2    1    2    0    0 -0.32005723300E+02 -0.69294200899E+00  0.30039922749E+03  0.32697429818E+03  0.12509056439E+03 0.  0.
         24    2    1    2    0    0 -0.52678851732E+02  0.69805774268E+02  0.69361845942E+03  0.70390176026E+03  0.81995202914E+02 0.  0.
        -13    1    5    5    0    0  0.13202262294E+02  0.23520610243E+02  0.68493120443E+02  0.73612678147E+02  0.00000000000E+00 0.  1.
         14    1    5    5    0    0 -0.65881114025E+02  0.46285164025E+02  0.62512533898E+03  0.63028908211E+03  0.00000000000E+00 0. -1.
         13    1    3    3    0    0  0.25242776458E+02 -0.31136005731E+02 -0.21919897401E+02  0.45685123598E+02  0.00000000000E+00 0. -1.
        -14    1    3    3    0    0  0.59441798574E+02 -0.37976826529E+02  0.67870321118E+02  0.97887421355E+02  0.00000000000E+00 0.  1.
          5    1    4    4  501    0  0.12073953036E+02 -0.55271864123E+02  0.16398056655E+03  0.17351616038E+03  0.41800000000E+01 0.  1.
         -5    1    4    4    0  501 -0.44079676337E+02  0.54578922114E+02  0.13641866094E+03  0.15345813780E+03  0.41800000000E+01 0.  1.
</event>
<event>
11    1  0.8479398E-009  0.1290775E+03  0.7561462E-02  0.1120408E+00
         22   -1    0    0    0    0  0.00000000000E+00  0.00000000000E+00  0.61027905360E+03  0.61027905360E+03  0.00000000000E+00 0. -1.
         22   -1    0    0    0    0 -0.00000000000E+00 -0.00000000000E+00 -0.91569403996E+03  0.91569403996E+03  0.00000000000E+00 0. -1.
         24    2    1    2    0    0 -0.52671185279E+01 -0.12570461223E+02 -0.70718190535E+03  0.71189313901E+03  0.80621554665E+02 0.  0.
         25    2    1    2    0    0 -0.11073658556E+02 -0.15011470972E+02 -0.18320642164E+03  0.22261930179E+03  0.12508713133E+03 0.  0.
        -24    2    1    2    0    0  0.16340777084E+02  0.27581932195E+02  0.58497334063E+03  0.59146065276E+03  0.81265678690E+02 0.  0.
        -13    1    3    3    0    0 -0.28487991994E+02 -0.27808128339E+02 -0.19845351336E+03  0.20240715070E+03  0.00000000000E+00 0.  1.
         14    1    3    3    0    0  0.23220873466E+02  0.15237667116E+02 -0.50872839199E+03  0.50948598830E+03  0.00000000000E+00 0. -1.
         11    1    5    5    0    0 -0.25158665089E+02  0.24569170194E+02  0.13280206999E+03  0.13737900985E+03  0.00000000000E+00 0. -1.
        -12    1    5    5    0    0  0.41499442172E+02  0.30127620010E+01  0.45217127064E+03  0.45408164291E+03  0.00000000000E+00 0.  1.
          5    1    4    4  501    0 -0.27991150253E+02  0.49944636893E+02 -0.65858466178E+02  0.87365789725E+02  0.41800000000E+01 0. -1.
         -5    1    4    4    0  501  0.16917491697E+02 -0.64956107865E+02 -0.11734795547E+03  0.13525351207E+03  0.41800000000E+01 0. -1.
</event>
<event>
11    1  0.8479398E-009  0.1338725E+03  0.7561462E-02  0.1114600E+00
         22   -1    0    0    0    0  0.00000000000E+00  0.00000000000E+00  0.16970489409E+04  0.16970489409E+04  0.00000000000E+00 0. -1.
         22   -1    0    0    0    0 -0.00000000000E+00 -0.00000000000E+00 -0.37996962976E+04  0.37996962976E+04  0.00000000000E+00 0.  1.
         24    2    1    2    0    0  0.37197736272E+02 -0.68928742772E+01 -0.36494764216E+04  0.36505484047E+04  0.79964491359E+02 0.  0.
         25    2    1    2    0    0 -0.43775994234E+02  0.54004719718E+02 -0.11389000876E+03  0.18290137766E+03  0.12509649248E+03 0.  0.
        -24    2    1    2    0    0  0.65782579624E+01 -0.47111845440E+02  0.16607190738E+04  0.16632954561E+04  0.79379675134E+02 0.  0.
        -13    1    3    3    0    0  0.52232007767E+02 -0.30480266516E+02 -0.25268958905E+04  0.25276194473E+04  0.00000000000E+00 0.  1.
         14    1    3    3    0    0 -0.15034271495E+02  0.23587392239E+02 -0.11225805312E+04  0.11229289574E+04  0.00000000000E+00 0. -1.
         11    1    5    5    0    0  0.38414673896E+02 -0.39973330452E+02  0.12727567595E+04  0.12739636271E+04  0.00000000000E+00 0. -1.
        -12    1    5    5    0    0 -0.31836415933E+02 -0.71385149886E+01  0.38796231423E+03  0.38933182895E+03  0.00000000000E+00 0.  1.
          5    1    4    4  501    0  0.10353223130E+01 -0.38658495483E+02 -0.42226695773E+02  0.57411822835E+02  0.41800000000E+01 0. -1.
         -5    1    4    4    0  501 -0.44811316547E+02  0.92663215201E+02 -0.71663312987E+02  0.12548955483E+03  0.41800000000E+01 0. -1.
</event>
<event>
11    1  0.8479398E-009  0.1339032E+03  0.7561462E-02  0.1114564E+00
         22   -1    0    0    0    0  0.00000000000E+00  0.00000000000E+00  0.27137803912E+03  0.27137803912E+03  0.00000000000E+00 0.  1.
         22   -1    0    0    0    0 -0.00000000000E+00 -0.00000000000E+00 -0.56936850855E+03  0.56936850855E+03  0.00000000000E+00 0. -1.
         24    2    1    2    0    0  0.38320509302E+02  0.44460177841E+02 -0.42100495493E+03  0.43180073527E+03  0.75904769638E+02 0.  0.
         25    2    1    2    0    0 -0.74831760801E+00 -0.88058030812E+01 -0.10357680177E+03  0.16264695598E+03  0.12509107194E+03 0.  0.
        -24    2    1    2    0    0 -0.37572191694E+02 -0.35654374760E+02  0.22659128727E+03  0.24629885642E+03  0.81465398662E+02 0.  0.
        -13    1    3    3    0    0 -0.21907476493E+02  0.51184145824E+01 -0.70994612471E+02  0.74473959839E+02  0.00000000000E+00 0.  1.
         14    1    3    3    0    0  0.60227985794E+02  0.39341763258E+02 -0.35001034246E+03  0.35732677543E+03  0.00000000000E+00 0. -1.
         13    1    5    5    0    0 -0.98418026824E+01 -0.30400191193E+02  0.19800977508E+02  0.37591374208E+02  0.00000000000E+00 0. -1.
        -14    1    5    5    0    0 -0.27730389011E+02 -0.52541835667E+01  0.20679030977E+03  0.20870748221E+03  0.00000000000E+00 0.  1.
          5    1    4    4  501    0  0.90848802213E+01  0.23381844568E+02  0.21346223449E+02  0.33202098723E+02  0.41800000000E+01 0. -1.
         -5    1    4    4    0  501 -0.98331978293E+01 -0.32187647650E+02 -0.12492302522E+03  0.12944485726E+03  0.41800000000E+01 0. -1.
</event>
<event>
11    1  0.8479398E-009  0.3222725E+03  0.7561462E-02  0.9911821E-01
         22   -1    0    0    0    0  0.00000000000E+00  0.00000000000E+00  0.28144469313E+04  0.28144469313E+04  0.00000000000E+00 0.  1.
         22   -1    0    0    0    0 -0.00000000000E+00 -0.00000000000E+00 -0.38048685430E+03  0.38048685430E+03  0.00000000000E+00 0.  1.
         24    2    1    2    0    0  0.28550813224E+03 -0.82043711442E+02 -0.27486380028E+03  0.41456415948E+03  0.89817979636E+02 0.  0.
         25    2    1    2    0    0 -0.28198728518E+03  0.92149901344E+02  0.70724050221E+03  0.77707174843E+03  0.12507174308E+03 0.  0.
        -24    2    1    2    0    0 -0.35208470627E+01 -0.10106189901E+02  0.20015833750E+04  0.20032978776E+04  0.82169629114E+02 0.  0.
        -11    1    3    3    0    0  0.13221886875E+03 -0.84702161279E+02 -0.14059846418E+03  0.21077052334E+03  0.00000000000E+00 0.  1.
         12    1    3    3    0    0  0.15328926349E+03  0.26584498368E+01 -0.13426533609E+03  0.20379363615E+03  0.00000000000E+00 0. -1.
         13    1    5    5    0    0  0.13218941414E+02  0.22463330013E+02  0.25458309678E+03  0.25591384248E+03  0.00000000000E+00 0. -1.
        -14    1    5    5    0    0 -0.16739788477E+02 -0.32569519914E+02  0.17470002782E+04  0.17473840352E+04  0.00000000000E+00 0.  1.
          5    1    4    4  501    0 -0.18014925391E+02  0.37404510529E+02  0.18139438289E+03  0.18613175304E+03  0.41800000000E+01 0.  1.
         -5    1    4    4    0  501 -0.26397235979E+03  0.54745390814E+02  0.52584611932E+03  0.59093999539E+03  0.41800000000E+01 0.  1.
</event>
<event>
11    1  0.8479398E-009  0.1346303E+03  0.7561462E-02  0.1113707E+00
         22   -1    0    0    0    0  0.00000000000E+00  0.00000000000E+00  0.33744713622E+03  0.33744713622E+03  0.00000000000E+00 0.  1.
         22   -1    0    0    0    0 -0.00000000000E+00 -0.00000000000E+00 -0.30966009713E+03  0.30966009713E+03  0.00000000000E+00 0.  1.
        -24    2    1    2    0    0  0.33259414711E+02  0.30873227729E+02 -0.21414734835E+03  0.23298928649E+03  0.79784559631E+02 0.  0.
         25    2    1    2    0    0  0.66690571901E+01  0.59782828990E+01 -0.26673369645E+02  0.12821561642E+03  0.12509020527E+03 0.  0.
         24    2    1    2    0    0 -0.39928471901E+02 -0.36851510628E+02  0.26860775708E+03  0.28590233045E+03  0.81472073075E+02 0.  0.
        -11    1    5    5    0    0 -0.79372498606E+01 -0.46673889587E+02  0.22994337208E+03  0.23476670604E+03  0.00000000000E+00 0.  1.
         12    1    5    5    0    0 -0.31991222040E+02  0.98223789589E+01  0.38664385000E+02  0.51135624407E+02  0.00000000000E+00 0. -1.
         13    1    3    3    0    0 -0.23149267792E+02 -0.41788260225E+01 -0.37467700318E+02  0.44240024337E+02  0.00000000000E+00 0. -1.
        -14    1    3    3    0    0  0.56408682502E+02  0.35052053751E+02 -0.17667964803E+03  0.18874926215E+03  0.00000000000E+00 0.  1.
          5    1    4    4  501    0 -0.49806573093E+02 -0.23990152123E+02 -0.31845815225E+02  0.63936300093E+02  0.41800000000E+01 0. -1.
         -5    1    4    4    0  501  0.56475630283E+02  0.29968435022E+02  0.51724455802E+01  0.64279316322E+02  0.41800000000E+01 0. -1.
</event>
<event>
11    1  0.8479398E-009  0.1370641E+03  0.7561462E-02  0.1110882E+00
         22   -1    0    0    0    0  0.00000000000E+00  0.00000000000E+00  0.15517216236E+04  0.15517216236E+04  0.00000000000E+00 0.  1.
         22   -1    0    0    0    0 -0.00000000000E+00 -0.00000000000E+00 -0.28115866519E+03  0.28115866519E+03  0.00000000000E+00 0. -1.
         24    2    1    2    0    0 -0.52042870376E+02  0.17478607227E+02 -0.25437874469E+03  0.27247440549E+03  0.80745240309E+02 0.  0.
         25    2    1    2    0    0  0.10609389360E+03 -0.35367129088E+02  0.43716341693E+03  0.46826006050E+03  0.12509549582E+03 0.  0.
        -24    2    1    2    0    0 -0.54051023226E+02  0.17888521861E+02  0.10877782861E+04  0.10921458228E+04  0.79242577495E+02 0.  0.
        -11    1    3    3    0    0  0.59145023524E+01 -0.20360113279E+02 -0.24493630586E+02  0.32395269563E+02  0.00000000000E+00 0.  1.
         12    1    3    3    0    0 -0.57957372729E+02  0.37838720506E+02 -0.22988511410E+03  0.24007913593E+03  0.00000000000E+00 0. -1.
         11    1    5    5    0    0 -0.14896371872E+02  0.13493710918E+02  0.54037317094E+02  0.57654260623E+02  0.00000000000E+00 0. -1.
        -12    1    5    5    0    0 -0.39154651354E+02  0.43948109436E+01  0.10337409690E+04  0.10344915621E+04  0.00000000000E+00 0.  1.
          5    1    4    4  501    0  0.58767333670E+02 -0.73420415707E+02  0.17073954790E+03  0.19497082491E+03  0.41800000000E+01 0.  1.
         -5    1    4    4    0  501  0.47326559932E+02  0.38053286618E+02  0.26642386904E+03  0.27328923559E+03  0.41800000000E+01 0.  1.
</event>
<event>
11    1  0.8479398E-009  0.1551256E+03  0.7561462E-02  0.1091754E+00
         22   -1    0    0    0    0  0.00000000000E+00  0.00000000000E+00  0.11284354465E+03  0.11284354465E+03  0.00000000000E+00 0. -1.
         22   -1    0    0    0    0 -0.00000000000E+00 -0.00000000000E+00 -0.58877626915E+03  0.58877626915E+03  0.00000000000E+00 0.  1.
        -24    2    1    2    0    0 -0.14682279953E+02  0.90574524479E+02 -0.40754633627E+03  0.42548702970E+03  0.80782933881E+02 0.  0.
         25    2    1    2    0    0  0.10257421350E+01 -0.92500620805E+02 -0.10464204415E+03  0.18749739880E+03  0.12509156709E+03 0.  0.
         24    2    1    2    0    0  0.13656537818E+02  0.19260963253E+01  0.36255655915E+02  0.88635385300E+02  0.79696600111E+02 0.  0.
        -13    1    5    5    0    0  0.31739951305E+02  0.15575342851E+02 -0.10328976529E+02  0.36833457208E+02  0.00000000000E+00 0.  1.
         14    1    5    5    0    0 -0.18083413488E+02 -0.13649246525E+02  0.46584632443E+02  0.51801928091E+02  0.00000000000E+00 0. -1.
         11    1    3    3    0    0  0.14456039225E+02  0.23774097502E+02 -0.29783130424E+02  0.40758062270E+02  0.00000000000E+00 0. -1.
        -12    1    3    3    0    0 -0.29138319178E+02  0.66800426977E+02 -0.37776320585E+03  0.38472896743E+03  0.00000000000E+00 0.  1.
          5    1    4    4  501    0 -0.53358800363E+02 -0.42370612364E+02 -0.12719432608E+02  0.69438366442E+02  0.41800000000E+01 0. -1.
         -5    1    4    4    0  501  0.54384542498E+02 -0.50130008441E+02 -0.91922611542E+02  0.11805903236E+03  0.41800000000E+01 0. -1.
</event>
<event>
11    1  0.8479398E-009  0.1450135E+03  0.7561462E-02  0.1102086E+00
         22   -1    0    0    0    0  0.00000000000E+00  0.00000000000E+00  0.12126048079E+04  0.12126048079E+04  0.00000000000E+00 0.  1.
         22   -1    0    0    0    0 -0.00000000000E+00 -0.00000000000E+00 -0.49094032952E+03  0.49094032952E+03  0.00000000000E+00 0.  1.
         24    2    1    2    0    0  0.63543464285E+02 -0.37127536809E+02 -0.42948987371E+03  0.44295496289E+03  0.79569602782E+02 0.  0.
         25    2    1    2    0    0 -0.28282485064E+01  0.80786090674E+02  0.54723611051E+02  0.15867055782E+03  0.12508909176E+03 0.  0.
        -24    2    1    2    0    0 -0.60715215779E+02 -0.43658553865E+02  0.10964307410E+04  0.11019196167E+04  0.80461574874E+02 0.  0.
        -11    1    3    3    0    0  0.51616947928E+02 -0.49940032323E+02 -0.41198948414E+03  0.41820288280E+03  0.00000000000E+00 0.  1.
         12    1    3    3    0    0  0.11926516357E+02  0.12812495514E+02 -0.17500389578E+02  0.24752080096E+02  0.00000000000E+00 0. -1.
         11    1    5    5    0    0 -0.16723718651E+02  0.12952528423E+02  0.73604213558E+02  0.76583490463E+02  0.00000000000E+00 0. -1.
        -12    1    5    5    0    0 -0.43991497128E+02 -0.56611082288E+02  0.10228265274E+04  0.10253361262E+04  0.00000000000E+00 0.  1.
          5    1    4    4  501    0 -0.77580319530E+01 -0.10484097249E+02  0.65155185958E+02  0.66579080889E+02  0.41800000000E+01 0. -1.
         -5    1    4    4    0  501  0.49297834466E+01  0.91270187923E+02 -0.10431574907E+02  0.92091476931E+02  0.41800000000E+01 0. -1.
</event>
<event>
11    1  0.8479398E-009  0.1311633E+03  0.7561462E-02  0.1117848E+00
         22   -1    0    0    0    0  0.00000000000E+00  0.00000000000E+00  0.22636805888E+03  0.22636805888E+03  0.00000000000E+00 0. -1.
         22   -1    0    0    0    0 -0.00000000000E+00 -0.00000000000E+00 -0.66043754610E+03  0.66043754610E+03  0.00000000000E+00 0.  1.
         24    2    1    2    0    0  0.97719721260E+01 -0.51629810384E+00 -0.56773427002E+03  0.57290386348E+03  0.76163491519E+02 0.  0.
         25    2    1    2    0    0 -0.18916787961E+02 -0.37601809266E+02 -0.22662863334E+02  0.13391267800E+03  0.12508900442E+03 0.  0.
        -24    2    1    2    0    0  0.91448158353E+01  0.38118107370E+02  0.15632764613E+03  0.17998906350E+03  0.80131843040E+02 0.  0.
        -13    1    3    3    0    0 -0.40775606201E+01  0.56587855885E+01 -0.54786444192E+03  0.54790883829E+03  0.00000000000E+00 0.  1.
         14    1    3    3    0    0  0.13849532746E+02 -0.61750836923E+01 -0.19869828096E+02  0.24995025195E+02  0.00000000000E+00 0. -1.
         13    1    5    5    0    0 -0.96379482846E+01  0.59758764010E+02  0.10787219697E+03  0.12369482932E+03  0.00000000000E+00 0. -1.
        -14    1    5    5    0    0  0.18782764120E+02 -0.21640656641E+02  0.48455449167E+02  0.56294234179E+02  0.00000000000E+00 0.  1.
          5    1    4    4  501    0  0.38862350412E+02 -0.51350289871E+02 -0.34546863630E+02  0.73198994092E+02  0.41800000000E+01 0. -1.
         -5    1    4    4    0  501 -0.57779138374E+02  0.13748480606E+02  0.11884000295E+02  0.60713683904E+02  0.41800000000E+01 0. -1.
</event>
<event>
11    1  0.8479398E-009  0.1316167E+03  0.7561462E-02  0.1117298E+00
         22   -1    0    0    0    0  0.00000000000E+00  0.00000000000E+00  0.47609543543E+03  0.47609543543E+03  0.00000000000E+00 0.  1.
         22   -1    0    0    0    0 -0.00000000000E+00 -0.00000000000E+00 -0.19490989726E+04  0.19490989726E+04  0.00000000000E+00 0. -1.
         24    2    1    2    0    0  0.19201249801E+02  0.25718114923E+02 -0.16672796291E+04  0.16694678799E+04  0.79192998260E+02 0.  0.
         25    2    1    2    0    0 -0.20030617407E+02 -0.66182432638E+02 -0.25727197917E+03  0.29430876694E+03  0.12508972383E+03 0.  0.
        -24    2    1    2    0    0  0.82936760685E+00  0.40464317715E+02  0.45154807109E+03  0.46141776120E+03  0.85864084380E+02 0.  0.
        -13    1    3    3    0    0 -0.92138593657E+01  0.23673348991E+02 -0.16729196809E+03  0.16920970789E+03  0.00000000000E+00 0.  1.
         14    1    3    3    0    0  0.28415109166E+02  0.20447659320E+01 -0.14999876610E+04  0.15002581720E+04  0.00000000000E+00 0. -1.
         13    1    5    5    0    0  0.24800877105E+02 -0.17545397197E+02  0.19195427319E+03  0.19434342660E+03  0.00000000000E+00 0. -1.
        -14    1    5    5    0    0 -0.23971509498E+02  0.58009714912E+02  0.25959379790E+03  0.26707433460E+03  0.00000000000E+00 0.  1.
          5    1    4    4  501    0  0.17024332319E+02  0.32608626898E+02 -0.58518871349E+02  0.69246524412E+02  0.41800000000E+01 0.  1.
         -5    1    4    4    0  501 -0.37054949726E+02 -0.98791059536E+02 -0.19875310782E+03  0.22506224253E+03  0.41800000000E+01 0.  1.
</event>
<event>
11    1  0.8479398E-009  0.1321933E+03  0.7561462E-02  0.1116603E+00
         22   -1    0    0    0    0  0.00000000000E+00  0.00000000000E+00  0.30463860714E+03  0.30463860714E+03  0.00000000000E+00 0. -1.
         22   -1    0    0    0    0 -0.00000000000E+00 -0.00000000000E+00 -0.10156543082E+04  0.10156543082E+04  0.00000000000E+00 0. -1.
        -24    2    1    2    0    0 -0.37253778942E+02 -0.22004954495E+02 -0.93601866667E+03  0.94076159572E+03  0.83841359440E+02 0.  0.
         25    2    1    2    0    0  0.93307957585E+01  0.40688707238E+02 -0.64723798249E+01  0.13202971783E+03  0.12508924831E+03 0.  0.
         24    2    1    2    0    0  0.27922983183E+02 -0.18683752743E+02  0.23147534541E+03  0.24750160182E+03  0.80916202114E+02 0.  0.
        -11    1    5    5    0    0 -0.19334073241E+01  0.12449614735E+02  0.58071792441E+00  0.12612224397E+02  0.00000000000E+00 0.  1.
         12    1    5    5    0    0  0.29856390507E+02 -0.31133367478E+02  0.23089462748E+03  0.23488937742E+03  0.00000000000E+00 0. -1.
         13    1    3    3    0    0  0.37706312025E+01 -0.26110931453E+02 -0.73921548414E+03  0.73968610261E+03  0.00000000000E+00 0. -1.
        -14    1    3    3    0    0 -0.41024410144E+02  0.41059769579E+01 -0.19680318254E+03  0.20107549312E+03  0.00000000000E+00 0.  1.
          5    1    4    4  501    0 -0.55423342328E+02  0.12238245501E+02  0.13350328445E+02  0.58457037192E+02  0.41800000000E+01 0.  1.
         -5    1    4    4    0  501  0.64754138086E+02  0.28450461737E+02 -0.19822708270E+02  0.73572680633E+02  0.41800000000E+01 0.  1.
</event>
<event>
11    1  0.8479398E-009  0.1495165E+03  0.7561462E-02  0.1097374E+00
         22   -1    0    0    0    0  0.00000000000E+00  0.00000000000E+00  0.11469872353E+04  0.11469872353E+04  0.00000000000E+00 0. -1.
         22   -1    0    0    0    0 -0.00000000000E+00 -0.00000000000E+00 -0.13542462485E+03  0.13542462485E+03  0.00000000000E+00 0. -1.
         24    2    1    2    0    0  0.86877969912E+02 -0.40967517403E+02 -0.20883405096E+02  0.12682118000E+03  0.80133488316E+02 0.  0.
         25    2    1    2    0    0 -0.70932745817E+02 -0.53183263900E+02  0.44322161379E+02  0.15960023710E+03  0.12509143738E+03 0.  0.
        -24    2    1    2    0    0 -0.15945224095E+02  0.94150781303E+02  0.98812385412E+03  0.99599044300E+03  0.80558002018E+02 0.  0.
        -11    1    3    3    0    0  0.87678789694E+02 -0.58154853562E+02 -0.83666985396E+01  0.10554410831E+03  0.00000000000E+00 0.  1.
         12    1    3    3    0    0 -0.80081978241E+00  0.17187336158E+02 -0.12516706556E+02  0.21277071687E+02  0.00000000000E+00 0. -1.
         13    1    5    5    0    0 -0.40397500367E+02  0.20679314460E+02  0.28123831637E+03  0.28487643405E+03  0.00000000000E+00 0. -1.
        -14    1    5    5    0    0  0.24452276272E+02  0.73471466843E+02  0.70688553775E+03  0.71111400896E+03  0.00000000000E+00 0.  1.
          5    1    4    4  501    0 -0.94754738862E+02 -0.39598806039E+02  0.67907993877E+02  0.12318885505E+03  0.41800000000E+01 0.  1.
         -5    1    4    4    0  501  0.23821993045E+02 -0.13584457861E+02 -0.23585832498E+02  0.36411382048E+02  0.41800000000E+01 0.  1.
</event>
<event>
11    1  0.8479398E-009  0.1540225E+03  0.7561462E-02  0.1092838E+00
         22   -1    0    0    0    0  0.00000000000E+00  0.00000000000E+00  0.18608037073E+04  0.18608037073E+04  0.00000000000E+00 0.  1.
         22   -1    0    0    0    0 -0.00000000000E+00 -0.00000000000E+00 -0.20336765124E+03  0.20336765124E+03  0.00000000000E+00 0.  1.
         24    2    1    2    0    0  0.15897967574E+01  0.87616595423E+02 -0.13951552976E+03  0.18219827071E+03  0.77797375003E+02 0.  0.
         25    2    1    2    0    0  0.43910336037E+02 -0.10799974355E+03  0.13637711760E+03  0.21871935361E+03  0.12508946886E+03 0.  0.
        -24    2    1    2    0    0 -0.45500132794E+02  0.20383148129E+02  0.16605744682E+04  0.16632537343E+04  0.80122937640E+02 0.  0.
        -13    1    3    3    0    0  0.15348360754E+02  0.78775631362E+02 -0.14433585606E+03  0.16514845327E+03  0.00000000000E+00 0.  1.
         14    1    3    3    0    0 -0.13758563997E+02  0.88409640612E+01  0.48203263025E+01  0.17049817431E+02  0.00000000000E+00 0. -1.
         11    1    5    5    0    0 -0.55243578502E+02  0.26719827140E+02  0.72083554567E+03  0.72344293902E+03  0.00000000000E+00 0. -1.
        -12    1    5    5    0    0  0.97434457082E+01 -0.63366790111E+01  0.93973892257E+03  0.93981079523E+03  0.00000000000E+00 0.  1.
          5    1    4    4  501    0  0.40149622002E+02  0.18419867654E+02  0.32498623487E+02  0.54999241812E+02  0.41800000000E+01 0.  1.
         -5    1    4    4    0  501  0.37607140346E+01 -0.12641961121E+03  0.10387849411E+03  0.16372011180E+03  0.41800000000E+01 0.  1.
</event>
<event>
11    1  0.8479398E-009  0.1314945E+03  0.7561462E-02  0.1117446E+00
         22   -1    0    0    0    0  0.00000000000E+00  0.00000000000E+00  0.10248297518E+04  0.10248297518E+04  0.00000000000E+00 0.  1.
         22   -1    0    0    0    0 -0.00000000000E+00 -0.00000000000E+00 -0.12538083471E+04  0.12538083471E+04  0.00000000000E+00 0.  1.
         24    2    1    2    0    0 -0.53973665235E+02 -0.48270377343E+01 -0.58387152756E+03  0.59116501427E+03  0.75057688346E+02 0.  0.
         25    2    1    2    0    0  0.91594324623E+02  0.19546474737E+02 -0.65495614449E+03  0.67333826173E+03  0.12508108783E+03 0.  0.
        -24    2    1    2    0    0 -0.37620659388E+02 -0.14719437003E+02  0.10098490768E+04  0.10141348229E+04  0.83918444182E+02 0.  0.
        -13    1    3    3    0    0 -0.35135629669E+02 -0.21511126536E+02 -0.12520475983E+03  0.13180847060E+03  0.00000000000E+00 0.  1.
         14    1    3    3    0    0 -0.18838035565E+02  0.16684088802E+02 -0.45866676773E+03  0.45935654368E+03  0.00000000000E+00 0. -1.
         11    1    5    5    0    0 -0.47046918270E+02  0.24307726033E+02  0.56137187923E+03  0.56386404820E+03  0.00000000000E+00 0. -1.
        -12    1    5    5    0    0  0.94262588814E+01 -0.39027163036E+02  0.44847719758E+03  0.45027077472E+03  0.00000000000E+00 0.  1.
          5    1    4    4  501    0  0.71762181927E+02 -0.28470786101E+02 -0.55736055252E+03  0.56269765800E+03  0.41800000000E+01 0.  1.
         -5    1    4    4    0  501  0.19832142696E+02  0.48017260838E+02 -0.97595591974E+02  0.11064060374E+03  0.41800000000E+01 0.  1.
</event>
<event>
11    1  0.8479398E-009  0.2339973E+03  0.7561462E-02  0.1032787E+00
         22   -1    0    0    0    0  0.00000000000E+00  0.00000000000E+00  0.12978893194E+03  0.12978893194E+03  0.00000000000E+00 0. -1.
         22   -1    0    0    0    0 -0.00000000000E+00 -0.00000000000E+00 -0.31092715098E+04  0.31092715098E+04  0.00000000000E+00 0. -1.
         24    2    1    2    0    0  0.57045516939E+02  0.10916200884E+03 -0.44350516147E+03  0.46687832432E+03  0.78153734997E+02 0.  0.
         25    2    1    2    0    0  0.11165106760E+03  0.17314725437E+01 -0.25492922308E+04  0.25548007643E+04  0.12508840183E+03 0.  0.
        -24    2    1    2    0    0 -0.16869658454E+03 -0.11089348138E+03  0.13314814462E+02  0.21738135308E+03  0.79507650798E+02 0.  0.
        -11    1    3    3    0    0 -0.44839567777E+00 -0.83063327017E+01 -0.60343089479E+01  0.10276629122E+02  0.00000000000E+00 0.  1.
         12    1    3    3    0    0  0.57493912617E+02  0.11746834154E+03 -0.43747085252E+03  0.45660169520E+03  0.00000000000E+00 0. -1.
         11    1    5    5    0    0 -0.15434265884E+03 -0.83120452636E+02 -0.14009220038E+02  0.17586052493E+03  0.00000000000E+00 0. -1.
        -12    1    5    5    0    0 -0.14353925700E+02 -0.27773028749E+02  0.27324034500E+02  0.41520828150E+02  0.00000000000E+00 0.  1.
          5    1    4    4  501    0  0.11501383234E+03  0.13488750146E+02 -0.12302473114E+04  0.12356925377E+04  0.41800000000E+01 0.  1.
         -5    1    4    4    0  501 -0.33627647417E+01 -0.11757277603E+02 -0.13190449194E+04  0.13191082266E+04  0.41800000000E+01 0.  1.
</event>
<event>
11    1  0.8479398E-009  0.1402897E+03  0.7561462E-02  0.1107235E+00
         22   -1    0    0    0    0  0.00000000000E+00  0.00000000000E+00  0.52083827101E+02  0.52083827101E+02  0.00000000000E+00 0.  1.
         22   -1    0    0    0    0 -0.00000000000E+00 -0.00000000000E+00 -0.92586939618E+03  0.92586939618E+03  0.00000000000E+00 0.  1.
        -24    2    1    2    0    0  0.52116008511E+02  0.24725511786E+02 -0.51518056601E+03  0.52456103364E+03  0.80161294504E+02 0.  0.
         25    2    1    2    0    0 -0.61724662355E+02 -0.63989036873E+02 -0.32559242665E+03  0.35994764039E+03  0.12508934706E+03 0.  0.
         24    2    1    2    0    0  0.96086538446E+01  0.39263525087E+02 -0.33012576414E+02  0.93444549252E+02  0.77511953610E+02 0.  0.
        -13    1    5    5    0    0  0.25894599087E+02  0.56425606366E+02 -0.31800163943E+02  0.69754066136E+02  0.00000000000E+00 0.  1.
         14    1    5    5    0    0 -0.16285945243E+02 -0.17162081279E+02 -0.12124124710E+01  0.23690483116E+02  0.00000000000E+00 0. -1.
         13    1    3    3    0    0 -0.67147167553E+01  0.24566060971E+02 -0.31191585370E+03  0.31295379621E+03  0.00000000000E+00 0. -1.
        -14    1    3    3    0    0  0.58830725266E+02  0.15945081587E+00 -0.20326471232E+03  0.21160723743E+03  0.00000000000E+00 0.  1.
          5    1    4    4  501    0 -0.26104406741E+02 -0.99523354761E+02 -0.21723039791E+03  0.24040144835E+03  0.41800000000E+01 0.  1.
         -5    1    4    4    0  501 -0.35620255614E+02  0.35534317888E+02 -0.10836202875E+03  0.11954619204E+03  0.41800000000E+01 0.  1.
</event>
<event>
11    1  0.8479398E-009  0.1528306E+03  0.7561462E-02  0.1094021E+00
         22   -1    0    0    0    0  0.00000000000E+00  0.00000000000E+00  0.17488304184E+03  0.17488304184E+03  0.00000000000E+00 0. -1.
         22   -1    0    0    0    0 -0.00000000000E+00 -0.00000000000E+00 -0.58511933613E+03  0.58511933613E+03  0.00000000000E+00 0. -1.
        -24    2    1    2    0    0 -0.76138894194E+02 -0.30400478434E+02 -0.29882282411E+03  0.32099806874E+03  0.83805486858E+02 0.  0.
         25    2    1    2    0    0  0.11318754932E+03 -0.24882364326E+02 -0.22713917308E+03  0.28402569025E+03  0.12509130824E+03 0.  0.
         24    2    1    2    0    0 -0.37048655131E+02  0.55282842760E+02  0.11572570290E+03  0.15497861898E+03  0.78721905963E+02 0.  0.
        -13    1    5    5    0    0 -0.13772576531E+02  0.56536813328E+02  0.28695494736E+02  0.64880864234E+02  0.00000000000E+00 0.  1.
         14    1    5    5    0    0 -0.23276078600E+02 -0.12539705672E+01  0.87030208164E+02  0.90097754746E+02  0.00000000000E+00 0. -1.
         13    1    3    3    0    0 -0.93775927488E+02 -0.31414142904E+02 -0.26473013068E+03  0.28260009738E+03  0.00000000000E+00 0. -1.
        -14    1    3    3    0    0  0.17637033294E+02  0.10136644695E+01 -0.34092693433E+02  0.38397971360E+02  0.00000000000E+00 0.  1.
          5    1    4    4  501    0  0.38881782102E+02 -0.11103041669E+02 -0.19926294976E+03  0.20336731807E+03  0.41800000000E+01 0.  1.
         -5    1    4    4    0  501  0.74305767223E+02 -0.13779322657E+02 -0.27876223319E+02  0.80658372175E+02  0.41800000000E+01 0.  1.
</event>
<event>
11    1  0.8479398E-009  0.2074315E+03  0.7561462E-02  0.1049389E+00
         22   -1    0    0    0    0  0.00000000000E+00  0.00000000000E+00  0.20455708351E+04  0.20455708351E+04  0.00000000000E+00 0. -1.
         22   -1    0    0    0    0 -0.00000000000E+00 -0.00000000000E+00 -0.28180054295E+03  0.28180054295E+03  0.00000000000E+00 0.  1.
        -24    2    1    2    0    0 -0.10941987311E+03  0.10172853062E+03 -0.18535348793E+03  0.25068737567E+03  0.78529244613E+02 0.  0.
         25    2    1    2    0    0  0.91156456629E+02 -0.25920732071E+03  0.32751714780E+03  0.44543567285E+03  0.12509005496E+03 0.  0.
         24    2    1    2    0    0  0.18263416476E+02  0.15747879010E+03  0.16216066323E+04  0.16312483295E+04  0.78929848708E+02 0.  0.
        -13    1    5    5    0    0 -0.22138801268E+02  0.25157137234E+02  0.18638122337E+03  0.18936992501E+03  0.00000000000E+00 0.  1.
         14    1    5    5    0    0  0.40402217745E+02  0.13232165286E+03  0.14352254089E+04  0.14418784045E+04  0.00000000000E+00 0. -1.
         13    1    3    3    0    0 -0.80401280062E+01  0.10974094420E+02  0.68216259191E+01  0.15218705164E+02  0.00000000000E+00 0. -1.
        -14    1    3    3    0    0 -0.10137974510E+03  0.90754436195E+02 -0.19217511385E+03  0.23546867050E+03  0.00000000000E+00 0.  1.
          5    1    4    4  501    0 -0.19137520998E+02 -0.12468356695E+03  0.11479788321E+03  0.17061143856E+03  0.41800000000E+01 0.  1.
         -5    1    4    4    0  501  0.11029397763E+03 -0.13452375376E+03  0.21271926459E+03  0.27482423429E+03  0.41800000000E+01 0.  1.
</event>
<event>
11    1  0.8479398E-009  0.1376292E+03  0.7561462E-02  0.1110235E+00
         22   -1    0    0    0    0  0.00000000000E+00  0.00000000000E+00  0.95440075038E+03  0.95440075038E+03  0.00000000000E+00 0. -1.
         22   -1    0    0    0    0 -0.00000000000E+00 -0.00000000000E+00 -0.86910551842E+02  0.86910551842E+02  0.00000000000E+00 0.  1.
        -24    2    1    2    0    0  0.51569021132E+02  0.10856844484E+02 -0.25376167495E+02  0.99912306885E+02  0.81001754164E+02 0.  0.
         25    2    1    2    0    0 -0.85819520819E+02 -0.53428318170E+02  0.28704900973E+03  0.32903718607E+03  0.12509500585E+03 0.  0.
         24    2    1    2    0    0  0.34250499687E+02  0.42571473686E+02  0.60581735630E+03  0.61236180927E+03  0.70617909629E+02 0.  0.
        -13    1    5    5    0    0  0.30593646195E+02 -0.60850486591E+01  0.11602178480E+03  0.12014180601E+03  0.00000000000E+00 0.  1.
         14    1    5    5    0    0  0.36568534913E+01  0.48656522345E+02  0.48979557150E+03  0.49222000325E+03  0.00000000000E+00 0. -1.
         11    1    3    3    0    0  0.17229754422E+02 -0.31072425632E+02 -0.28613966068E+02  0.45619284587E+02  0.00000000000E+00 0. -1.
        -12    1    3    3    0    0  0.34339266710E+02  0.41929270116E+02  0.32377985730E+01  0.54293022298E+02  0.00000000000E+00 0.  1.
          5    1    4    4  501    0  0.10935925311E+02  0.83551260378E+01 -0.49843628736E+01  0.15222314764E+02  0.41800000000E+01 0.  1.
         -5    1    4    4    0  501 -0.96755446129E+02 -0.61783444207E+02  0.29203337261E+03  0.31381487130E+03  0.41800000000E+01 0.  1.
</event>
<event>
11    1  0.8479398E-009  0.5416111E+03  0.7561462E-02  0.9305063E-01
         22   -1    0    0    0    0  0.00000000000E+00  0.00000000000E+00  0.26051389365E+03  0.26051389365E+03  0.00000000000E+00 0. -1.
         22   -1    0    0    0    0 -0.00000000000E+00 -0.00000000000E+00 -0.19036294910E+04  0.19036294910E+04  0.00000000000E+00 0.  1.
         24    2    1    2    0    0  0.14655785474E+03 -0.11943704778E+03 -0.97240604408E+03  0.99443117267E+03  0.87036943021E+02 0.  0.
         25    2    1    2    0    0  0.24042712035E+03 -0.12609658091E+03 -0.63666362282E+03  0.70334612056E+03  0.12509855624E+03 0.  0.
        -24    2    1    2    0    0 -0.38698497509E+03  0.24553362869E+03 -0.34045930491E+02  0.46636609145E+03  0.79335188330E+02 0.  0.
        -13    1    3    3    0    0  0.11073681950E+03 -0.12235706301E+03 -0.67589334755E+03  0.69574831032E+03  0.00000000000E+00 0.  1.
         14    1    3    3    0    0  0.35821035238E+02  0.29200152308E+01 -0.29651269653E+03  0.29868286235E+03  0.00000000000E+00 0. -1.
         13    1    5    5    0    0 -0.29291966501E+03  0.21674049465E+03 -0.74621877238E+01  0.36446406739E+03  0.00000000000E+00 0. -1.
        -14    1    5    5    0    0 -0.94065310076E+02  0.28793134036E+02 -0.26583742767E+02  0.10190202406E+03  0.00000000000E+00 0.  1.
          5    1    4    4  501    0  0.13889953920E+03 -0.10989307001E+03 -0.51151905890E+03  0.54133057262E+03  0.41800000000E+01 0.  1.
         -5    1    4    4    0  501  0.10152758115E+03 -0.16203510902E+02 -0.12514456391E+03  0.16201554795E+03  0.41800000000E+01 0.  1.
</event>
<event>
11    1  0.8479398E-009  0.1607857E+03  0.7561462E-02  0.1086341E+00
         22   -1    0    0    0    0  0.00000000000E+00  0.00000000000E+00  0.56321074416E+03  0.56321074416E+03  0.00000000000E+00 0. -1.
         22   -1    0    0    0    0 -0.00000000000E+00 -0.00000000000E+00 -0.32978810956E+04  0.32978810956E+04  0.00000000000E+00 0. -1.
         24    2    1    2    0    0  0.18428444429E+01  0.34941447795E+01 -0.29846138676E+04  0.29856831437E+04  0.79801570937E+02 0.  0.
         25    2    1    2    0    0  0.44083410874E+01 -0.10423398049E+03 -0.28338774299E+03  0.32686485187E+03  0.12509141596E+03 0.  0.
        -24    2    1    2    0    0 -0.62511855303E+01  0.10073983571E+03  0.53333125913E+03  0.54854384423E+03  0.79186648254E+02 0.  0.
        -13    1    3    3    0    0  0.34490088872E+02  0.20695266040E+02 -0.11624912422E+04  0.11631868931E+04  0.00000000000E+00 0.  1.
         14    1    3    3    0    0 -0.32647244429E+02 -0.17201121261E+02 -0.18221226254E+04  0.18224962505E+04  0.00000000000E+00 0. -1.
         13    1    5    5    0    0 -0.30343874362E+02  0.94761710431E+02  0.36208401291E+03  0.37550681070E+03  0.00000000000E+00 0. -1.
        -14    1    5    5    0    0  0.24092688832E+02  0.59781252792E+01  0.17124724622E+03  0.17303703354E+03  0.00000000000E+00 0.  1.
          5    1    4    4  501    0  0.41116706553E+01 -0.13680286313E+02 -0.20919416333E+03  0.20972297547E+03  0.41800000000E+01 0.  1.
         -5    1    4    4    0  501  0.29667043211E+00 -0.90553694177E+02 -0.74193579666E+02  0.11714187640E+03  0.41800000000E+01 0.  1.
</event>
<event>
11    1  0.1149596E-008  0.1765066E+03  0.7561462E-02  0.1072504E+00
         22   -1    0    0    0    0  0.00000000000E+00  0.00000000000E+00  0.65993342462E+03  0.65993342462E+03  0.00000000000E+00 0. -1.
         22   -1    0    0    0    0 -0.00000000000E+00 -0.00000000000E+00 -0.74087733431E+03  0.74087733431E+03  0.00000000000E+00 0.  1.
        -24    2    1    2    0    0 -0.33496771119E+01 -0.14446164224E+02 -0.41703372532E+03  0.42551481781E+03  0.83221512349E+02 0.  0.
         25    2    1    2    0    0 -0.12058005187E+03  0.95934940677E+00 -0.28657987404E+03  0.33513553030E+03  0.12508928894E+03 0.  0.
         24    2    1    2    0    0  0.12392972898E+03  0.13486814817E+02  0.62266968967E+03  0.64016041083E+03  0.80915618119E+02 0.  0.
        -13    1    5    5    0    0  0.86277205115E+02 -0.14323452165E+01  0.23429525803E+03  0.24967994647E+03  0.00000000000E+00 0.  1.
         14    1    5    5    0    0  0.37652523867E+02  0.14919160034E+02  0.38837443164E+03  0.39048046436E+03  0.00000000000E+00 0. -1.
         11    1    3    3    0    0 -0.97894078440E+01  0.22540373962E+02 -0.42416091882E+02  0.49020667222E+02  0.00000000000E+00 0. -1.
        -12    1    3    3    0    0  0.64397307321E+01 -0.36986538187E+02 -0.37461763344E+03  0.37649415059E+03  0.00000000000E+00 0.  1.
          5    1    4    4  501    0 -0.10004035845E+03  0.39366040062E+02 -0.26569710111E+03  0.28665341507E+03  0.41800000000E+01 0. -1.
         -5    1    4    4    0  501 -0.20539693418E+02 -0.38406690655E+02 -0.20882772926E+02  0.48482115237E+02  0.41800000000E+01 0. -1.
</event>
<event>
11    1  0.8479398E-009  0.2531825E+03  0.7561462E-02  0.1022217E+00
         22   -1    0    0    0    0  0.00000000000E+00  0.00000000000E+00  0.48360303382E+03  0.48360303382E+03  0.00000000000E+00 0. -1.
         22   -1    0    0    0    0 -0.00000000000E+00 -0.00000000000E+00 -0.68464046554E+03  0.68464046554E+03  0.00000000000E+00 0.  1.
         24    2    1    2    0    0  0.21928591834E+03 -0.29957147403E+02 -0.53281143678E+03  0.58218424656E+03  0.77889184848E+02 0.  0.
         25    2    1    2    0    0 -0.20573813930E+03  0.69084336720E+02  0.97772584116E+01  0.25068658162E+03  0.12508932760E+03 0.  0.
        -24    2    1    2    0    0 -0.13547779046E+02 -0.39127189318E+02  0.32199674666E+03  0.33537267118E+03  0.84133491886E+02 0.  0.
        -13    1    3    3    0    0  0.20106713818E+03 -0.47824255735E+01 -0.48626999702E+03  0.52622179322E+03  0.00000000000E+00 0.  1.
         14    1    3    3    0    0  0.18218780163E+02 -0.25174721829E+02 -0.46541439758E+02  0.55962453347E+02  0.00000000000E+00 0. -1.
         11    1    5    5    0    0 -0.15623687144E+00 -0.62435019597E+02  0.26639820250E+03  0.27361680938E+03  0.00000000000E+00 0. -1.
        -12    1    5    5    0    0 -0.13391542174E+02  0.23307830279E+02  0.55598544161E+02  0.61755861803E+02  0.00000000000E+00 0.  1.
          5    1    4    4  501    0  0.84888637895E+01  0.14847061915E+02 -0.21137517834E+02  0.27509327802E+02  0.41800000000E+01 0.  1.
         -5    1    4    4    0  501 -0.21422700309E+03  0.54237274806E+02  0.30914776246E+02  0.22317725381E+03  0.41800000000E+01 0.  1.
</event>
<event>
11    1  0.8479398E-009  0.1539328E+03  0.7561462E-02  0.1092927E+00
         22   -1    0    0    0    0  0.00000000000E+00  0.00000000000E+00  0.99706921935E+02  0.99706921935E+02  0.00000000000E+00 0.  1.
         22   -1    0    0    0    0 -0.00000000000E+00 -0.00000000000E+00 -0.14417176844E+04  0.14417176844E+04  0.00000000000E+00 0.  1.
        -24    2    1    2    0    0  0.56758984099E+02 -0.66030187738E+02 -0.11790639656E+04  0.11854754645E+04  0.87055580275E+02 0.  0.
         25    2    1    2    0    0 -0.30237190747E+02  0.14544504694E+03 -0.13360457541E+03  0.23572506019E+03  0.12509025561E+03 0.  0.
         24    2    1    2    0    0 -0.26521793352E+02 -0.79414859203E+02 -0.29342221453E+02  0.12022408161E+03  0.81134077025E+02 0.  0.
        -11    1    5    5    0    0 -0.39286552582E+02 -0.91057992656E+02 -0.27058053971E+02  0.10279654432E+03  0.00000000000E+00 0.  1.
         12    1    5    5    0    0  0.12764759230E+02  0.11643133453E+02 -0.22841674825E+01  0.17427537287E+02  0.00000000000E+00 0. -1.
         11    1    3    3    0    0  0.47426850053E+02 -0.21330986832E+01 -0.27169450537E+03  0.27581109561E+03  0.00000000000E+00 0. -1.
        -12    1    3    3    0    0  0.93321340459E+01 -0.63897089054E+02 -0.90736946020E+03  0.90966436888E+03  0.00000000000E+00 0.  1.
          5    1    4    4  501    0  0.47087996777E+02  0.33374206441E+02 -0.36122763636E+02  0.68216153136E+02  0.41800000000E+01 0. -1.
         -5    1    4    4    0  501 -0.77325187525E+02  0.11207084050E+03 -0.97481811777E+02  0.16750890706E+03  0.41800000000E+01 0. -1.
</event>
<event>
11    1  0.8479398E-009  0.1442501E+03  0.7561462E-02  0.1102903E+00
         22   -1    0    0    0    0  0.00000000000E+00  0.00000000000E+00  0.47229726259E+03  0.47229726259E+03  0.00000000000E+00 0. -1.
         22   -1    0    0    0    0 -0.00000000000E+00 -0.00000000000E+00 -0.11595537374E+04  0.11595537374E+04  0.00000000000E+00 0. -1.
        -24    2    1    2    0    0  0.76520121365E+01 -0.12405726017E+02 -0.10723226485E+04  0.10751563685E+04  0.76634841115E+02 0.  0.
         25    2    1    2    0    0 -0.20645112313E+02 -0.59156468847E+02 -0.16297970716E+02  0.14085778287E+03  0.12509829206E+03 0.  0.
         24    2    1    2    0    0  0.12993100177E+02  0.71562194864E+02  0.40136414448E+03  0.41583684856E+03  0.80852580448E+02 0.  0.
        -13    1    5    5    0    0 -0.12331314429E+02 -0.75993323919E+00  0.72131203869E+01  0.14306219620E+02  0.00000000000E+00 0.  1.
         14    1    5    5    0    0  0.25324414606E+02  0.72322128103E+02  0.39415102409E+03  0.40153062894E+03  0.00000000000E+00 0. -1.
         11    1    3    3    0    0 -0.31400233087E+02 -0.19766930581E+00 -0.67560768802E+03  0.67633701793E+03  0.00000000000E+00 0. -1.
        -12    1    3    3    0    0  0.39052245223E+02 -0.12208056711E+02 -0.39671496053E+03  0.39881935060E+03  0.00000000000E+00 0.  1.
          5    1    4    4  501    0  0.22432343869E+02  0.46426149815E+01  0.39387553947E+02  0.45756045844E+02  0.41800000000E+01 0. -1.
         -5    1    4    4    0  501 -0.43077456182E+02 -0.63799083828E+02 -0.55685524663E+02  0.95101737027E+02  0.41800000000E+01 0. -1.
</event>
<event>
11    1  0.8479398E-009  0.1397465E+03  0.7561462E-02  0.1107842E+00
         22   -1    0    0    0    0  0.00000000000E+00  0.00000000000E+00  0.11353287597E+03  0.11353287597E+03  0.00000000000E+00 0. -1.
         22   -1    0    0    0    0 -0.00000000000E+00 -0.00000000000E+00 -0.64787634799E+03  0.64787634799E+03  0.00000000000E+00 0.  1.
        -24    2    1    2    0    0 -0.28738372748E+02 -0.23139215857E+02 -0.44589133797E+03  0.45511294947E+03  0.83351029520E+02 0.  0.
         25    2    1    2    0    0  0.66554920422E+02  0.65111906357E+02 -0.12933800677E+03  0.20259638053E+03  0.12509138910E+03 0.  0.
         24    2    1    2    0    0 -0.37816547674E+02 -0.41972690500E+02  0.40885872725E+02  0.10369989395E+03  0.76747738668E+02 0.  0.
        -11    1    5    5    0    0  0.19582270298E+02 -0.29588898811E+02  0.79039649957E+01  0.36351628651E+02  0.00000000000E+00 0.  1.
         12    1    5    5    0    0 -0.57398817972E+02 -0.12383791689E+02  0.32981907729E+02  0.67348265298E+02  0.00000000000E+00 0. -1.
         13    1    3    3    0    0  0.62317559371E+01  0.26911379446E+02 -0.94426259783E+02  0.98383818092E+02  0.00000000000E+00 0. -1.
        -14    1    3    3    0    0 -0.34970128685E+02 -0.50050595302E+02 -0.35146507819E+03  0.35672913138E+03  0.00000000000E+00 0.  1.
          5    1    4    4  501    0  0.59369582609E+02  0.59958569694E+02 -0.15422957838E+03  0.17585224669E+03  0.41800000000E+01 0. -1.
         -5    1    4    4    0  501  0.71853378134E+01  0.51533366633E+01  0.24891571605E+02  0.26744133847E+02  0.41800000000E+01 0. -1.
</event>
<event>
11    1  0.8479398E-009  0.1442469E+03  0.7561462E-02  0.1102907E+00
         22   -1    0    0    0    0  0.00000000000E+00  0.00000000000E+00  0.16834349603E+03  0.16834349603E+03  0.00000000000E+00 0.  1.
         22   -1    0    0    0    0 -0.00000000000E+00 -0.00000000000E+00 -0.26466912099E+03  0.26466912099E+03  0.00000000000E+00 0. -1.
        -24    2    1    2    0    0 -0.81052985502E+02 -0.67578012242E+02 -0.64583617223E+01  0.13296292565E+03  0.80629119825E+02 0.  0.
         25    2    1    2    0    0  0.84846680817E+01  0.62091937743E+02 -0.12218236157E+03  0.18575143657E+03  0.12509064068E+03 0.  0.
         24    2    1    2    0    0  0.72568317420E+02  0.54860744992E+01  0.32315098328E+02  0.11429825479E+03  0.81997364362E+02 0.  0.
        -13    1    5    5    0    0  0.90440548270E+02  0.98915720365E+01  0.23949827829E+02  0.94079382554E+02  0.00000000000E+00 0.  1.
         14    1    5    5    0    0 -0.17872230850E+02 -0.44054975373E+01  0.83652704987E+01  0.20218872239E+02  0.00000000000E+00 0. -1.
         11    1    3    3    0    0 -0.30399249438E+02 -0.64617507263E+02 -0.29464361433E+02  0.77250794209E+02  0.00000000000E+00 0. -1.
        -12    1    3    3    0    0 -0.50653736064E+02 -0.29605049792E+01  0.23005999711E+02  0.55712131440E+02  0.00000000000E+00 0.  1.
          5    1    4    4  501    0  0.62393906539E+02  0.48117893026E+02 -0.46139413283E+02  0.91403769400E+02  0.41800000000E+01 0. -1.
         -5    1    4    4    0  501 -0.53909238457E+02  0.13974044716E+02 -0.76042948284E+02  0.94347667170E+02  0.41800000000E+01 0. -1.
</event>
<event>
11    1  0.8479398E-009  0.1568210E+03  0.7561462E-02  0.1090106E+00
         22   -1    0    0    0    0  0.00000000000E+00  0.00000000000E+00  0.26869914789E+03  0.26869914789E+03  0.00000000000E+00 0. -1.
         22   -1    0    0    0    0 -0.00000000000E+00 -0.00000000000E+00 -0.23677915226E+04  0.23677915226E+04  0.00000000000E+00 0. -1.
        -24    2    1    2    0    0 -0.88016413484E+02 -0.51868892286E+02 -0.20954832852E+04  0.20995060853E+04  0.80239221145E+02 0.  0.
         25    2    1    2    0    0  0.33613953923E+02  0.82843520943E+01 -0.24266295300E+03  0.27519452423E+03  0.12509272170E+03 0.  0.
         24    2    1    2    0    0  0.54402459561E+02  0.43584540191E+02  0.23905386356E+03  0.26179006089E+03  0.80796327569E+02 0.  0.
        -11    1    5    5    0    0 -0.19901060143E+02 -0.10308848928E+00  0.34705842483E+02  0.40006978448E+02  0.00000000000E+00 0.  1.
         12    1    5    5    0    0  0.74303519704E+02  0.43687628680E+02  0.20434802108E+03  0.22178308244E+03  0.00000000000E+00 0. -1.
         13    1    3    3    0    0 -0.92716747262E+02 -0.61122397803E+02 -0.15709950543E+04  0.15749151734E+04  0.00000000000E+00 0. -1.
        -14    1    3    3    0    0  0.47003337781E+01  0.92535055176E+01 -0.52448823093E+03  0.52459091194E+03  0.00000000000E+00 0.  1.
          5    1    4    4  501    0 -0.32622884491E+01 -0.54474433175E+02 -0.79912477047E+02  0.96858571038E+02  0.41800000000E+01 0.  1.
         -5    1    4    4    0  501  0.36876242372E+02  0.62758785270E+02 -0.16275047595E+03  0.17833595320E+03  0.41800000000E+01 0.  1.
</event>
<event>
11    1  0.8479398E-009  0.1603510E+03  0.7561462E-02  0.1086748E+00
         22   -1    0    0    0    0  0.00000000000E+00  0.00000000000E+00  0.22710985071E+04  0.22710985071E+04  0.00000000000E+00 0.  1.
         22   -1    0    0    0    0 -0.00000000000E+00 -0.00000000000E+00 -0.31684115371E+02  0.31684115371E+02  0.00000000000E+00 0.  1.
         24    2    1    2    0    0  0.10980799214E+02 -0.15330725151E+02  0.71263895250E+02  0.11065625111E+03  0.82526686943E+02 0.  0.
         25    2    1    2    0    0  0.49503874058E+02 -0.70347395072E+02  0.62456288402E+03  0.64274874192E+03  0.12509100530E+03 0.  0.
        -24    2    1    2    0    0 -0.60484673272E+02  0.85678120223E+02  0.15435876124E+04  0.15493776294E+04  0.83121509211E+02 0.  0.
        -11    1    3    3    0    0  0.97870959053E+01  0.32765936294E+02  0.17178236796E+02  0.38268598706E+02  0.00000000000E+00 0.  1.
         12    1    3    3    0    0  0.11937033083E+01 -0.48096661445E+02  0.54085658454E+02  0.72387652401E+02  0.00000000000E+00 0. -1.
         11    1    5    5    0    0 -0.56172346466E+01 -0.10059998838E+02  0.36954944808E+02  0.38709492988E+02  0.00000000000E+00 0. -1.
        -12    1    5    5    0    0 -0.54867438625E+02  0.95738119061E+02  0.15066326676E+04  0.15106681364E+04  0.00000000000E+00 0.  1.
          5    1    4    4  501    0  0.31311180986E+02 -0.62584800878E+02  0.12937421792E+03  0.14714757225E+03  0.41800000000E+01 0. -1.
         -5    1    4    4    0  501  0.18192693072E+02 -0.77625941945E+01  0.49518866610E+03  0.49560116968E+03  0.41800000000E+01 0. -1.
</event>
<event>
11    1  0.8479398E-009  0.1647842E+03  0.7561462E-02  0.1082662E+00
         22   -1    0    0    0    0  0.00000000000E+00  0.00000000000E+00  0.17084243744E+04  0.17084243744E+04  0.00000000000E+00 0.  1.
         22   -1    0    0    0    0 -0.00000000000E+00 -0.00000000000E+00 -0.63639648760E+03  0.63639648760E+03  0.00000000000E+00 0. -1.
        -24    2    1    2    0    0 -0.15330457792E+02  0.10748829727E+03 -0.57606381996E+03  0.59382874578E+03  0.94838271045E+02 0.  0.
         25    2    1    2    0    0  0.60395627650E+02 -0.79892849665E+02  0.78419878450E+02  0.17840394882E+03  0.12509113619E+03 0.  0.
         24    2    1    2    0    0 -0.45065169857E+02 -0.27595447604E+02  0.15696718283E+04  0.15725881674E+04  0.79821785097E+02 0.  0.
        -13    1    5    5    0    0 -0.36463576958E+02 -0.35062445180E+02  0.15396087855E+04  0.15404396061E+04  0.00000000000E+00 0.  1.
         14    1    5    5    0    0 -0.86015928994E+01  0.74669975767E+01  0.30063042777E+02  0.32148561309E+02  0.00000000000E+00 0. -1.
         11    1    3    3    0    0 -0.31266302303E+02  0.10590021500E+03 -0.56126441802E+03  0.57202288777E+03  0.00000000000E+00 0. -1.
        -12    1    3    3    0    0  0.15935844511E+02  0.15880822705E+01 -0.14799401942E+02  0.21805858007E+02  0.00000000000E+00 0.  1.
          5    1    4    4  501    0  0.81317794462E+02 -0.32101141272E+02  0.42506307117E+01  0.87627662462E+02  0.41800000000E+01 0. -1.
         -5    1    4    4    0  501 -0.20922166812E+02 -0.47791708393E+02  0.74169247738E+02  0.90776286360E+02  0.41800000000E+01 0. -1.
</event>
<event>
11    1  0.8479398E-009  0.1471536E+03  0.7561462E-02  0.1099823E+00
         22   -1    0    0    0    0  0.00000000000E+00  0.00000000000E+00  0.17039552795E+03  0.17039552795E+03  0.00000000000E+00 0.  1.
         22   -1    0    0    0    0 -0.00000000000E+00 -0.00000000000E+00 -0.18199890171E+04  0.18199890171E+04  0.00000000000E+00 0. -1.
        -24    2    1    2    0    0 -0.74410748610E+01 -0.38857437094E+02 -0.16807596509E+04  0.16832055844E+04  0.81625762975E+02 0.  0.
         25    2    1    2    0    0 -0.47212361751E+02  0.87715262518E+02 -0.54059820907E+02  0.16879839914E+03  0.12508981147E+03 0.  0.
         24    2    1    2    0    0  0.54653436612E+02 -0.48857825425E+02  0.85225982663E+02  0.13838056153E+03  0.80694649455E+02 0.  0.
        -11    1    5    5    0    0  0.40498420740E+02 -0.58641311476E+01  0.83611230390E+02  0.93087850786E+02  0.00000000000E+00 0.  1.
         12    1    5    5    0    0  0.14155015872E+02 -0.42993694277E+02  0.16147522728E+01  0.45292710747E+02  0.00000000000E+00 0. -1.
         11    1    3    3    0    0  0.34010453998E+02 -0.33574076563E+02 -0.10275127372E+04  0.10286235243E+04  0.00000000000E+00 0. -1.
        -12    1    3    3    0    0 -0.41451528859E+02 -0.52833605310E+01 -0.65324691369E+03  0.65458206008E+03  0.00000000000E+00 0.  1.
          5    1    4    4  501    0 -0.47361831576E+02 -0.15410180963E+02 -0.41233531348E+02  0.64794237977E+02  0.41800000000E+01 0.  1.
         -5    1    4    4    0  501  0.14946982554E+00  0.10312544348E+03 -0.12826289559E+02  0.10400416116E+03  0.41800000000E+01 0.  1.
</event>
<event>
11    1  0.8479398E-009  0.1737401E+03  0.7561462E-02  0.1074822E+00
         22   -1    0    0    0    0  0.00000000000E+00  0.00000000000E+00  0.20018684135E+04  0.20018684135E+04  0.00000000000E+00 0.  1.
         22   -1    0    0    0    0 -0.00000000000E+00 -0.00000000000E+00 -0.10142992708E+03  0.10142992708E+03  0.00000000000E+00 0. -1.
        -24    2    1    2    0    0  0.42304647599E+02  0.58415714534E+02 -0.48427898159E+02  0.11926715229E+03  0.81714829628E+02 0.  0.
         25    2    1    2    0    0  0.79411519261E+01 -0.15887257034E+03  0.73508405348E+03  0.76243039989E+03  0.12509194012E+03 0.  0.
         24    2    1    2    0    0 -0.50245799525E+02  0.10045685580E+03  0.12137823311E+04  0.12216007884E+04  0.80154343184E+02 0.  0.
        -13    1    5    5    0    0 -0.21336100427E+02  0.79229377105E+02  0.10794122813E+04  0.10825263953E+04  0.00000000000E+00 0.  1.
         14    1    5    5    0    0 -0.28909699098E+02  0.21227478698E+02  0.13437004975E+03  0.13907439312E+03  0.00000000000E+00 0. -1.
         11    1    3    3    0    0  0.38762116148E+02  0.73220446358E+02 -0.58137796562E+02  0.10121135708E+03  0.00000000000E+00 0. -1.
        -12    1    3    3    0    0  0.35425314513E+01 -0.14804731824E+02  0.97098984029E+01  0.18055795204E+02  0.00000000000E+00 0.  1.
          5    1    4    4  501    0 -0.10843659161E+02 -0.16496648789E+03  0.50339585421E+03  0.52986449731E+03  0.41800000000E+01 0. -1.
         -5    1    4    4    0  501  0.18784811087E+02  0.60939175556E+01  0.23168819927E+03  0.23256590258E+03  0.41800000000E+01 0. -1.
</event>
<event>
11    1  0.8479398E-009  0.1359291E+03  0.7561462E-02  0.1112191E+00
         22   -1    0    0    0    0  0.00000000000E+00  0.00000000000E+00  0.26789525972E+04  0.26789525972E+04  0.00000000000E+00 0.  1.
         22   -1    0    0    0    0 -0.00000000000E+00 -0.00000000000E+00 -0.51440280032E+02  0.51440280032E+02  0.00000000000E+00 0. -1.
         24    2    1    2    0    0 -0.49518042524E+02  0.21503734535E+02  0.20299781717E+02  0.10481319834E+03  0.87517302711E+02 0.  0.
         25    2    1    2    0    0  0.40406701470E+02 -0.23766859360E+02  0.52268647499E+03  0.53948571062E+03  0.12508443425E+03 0.  0.
        -24    2    1    2    0    0  0.91113410539E+01  0.22631248252E+01  0.20845260604E+04  0.20860939682E+04  0.80318176578E+02 0.  0.
        -11    1    3    3    0    0 -0.36113295128E+02 -0.76915198386E+01  0.49259399607E+02  0.61561497805E+02  0.00000000000E+00 0.  1.
         12    1    3    3    0    0 -0.13404747396E+02  0.29195254373E+02 -0.28959617889E+02  0.43251700532E+02  0.00000000000E+00 0. -1.
         11    1    5    5    0    0  0.69427199113E+01 -0.29846931417E+02  0.37028600111E+03  0.37155183123E+03  0.00000000000E+00 0. -1.
        -12    1    5    5    0    0  0.21686211425E+01  0.32110056242E+02  0.17142400593E+04  0.17145421370E+04  0.00000000000E+00 0.  1.
          5    1    4    4  501    0 -0.83334758232E+01  0.12178984438E+02  0.22278396046E+01  0.15498714480E+02  0.41800000000E+01 0. -1.
         -5    1    4    4    0  501  0.48740177293E+02 -0.35945843797E+02  0.52045863539E+03  0.52398699614E+03  0.41800000000E+01 0. -1.
</event>
<event>
11    1  0.8479398E-009  0.1520935E+03  0.7561462E-02  0.1094759E+00
         22   -1    0    0    0    0  0.00000000000E+00  0.00000000000E+00  0.56421678501E+03  0.56421678501E+03  0.00000000000E+00 0. -1.
         22   -1    0    0    0    0 -0.00000000000E+00 -0.00000000000E+00 -0.10405736368E+04  0.10405736368E+04  0.00000000000E+00 0. -1.
         24    2    1    2    0    0 -0.19772072827E+02 -0.84447330434E+02 -0.10032124019E+04  0.10102193153E+04  0.81152049948E+02 0.  0.
         25    2    1    2    0    0  0.65349467519E+02  0.59895559887E+02  0.18890785504E+03  0.24329213728E+03  0.12508739092E+03 0.  0.
        -24    2    1    2    0    0 -0.45577394692E+02  0.24551770547E+02  0.33794769503E+03  0.35127896926E+03  0.80673299931E+02 0.  0.
        -13    1    3    3    0    0 -0.22910417125E+02  0.37023066195E+01 -0.39067399184E+03  0.39136269902E+03  0.00000000000E+00 0.  1.
         14    1    3    3    0    0  0.31383442976E+01 -0.88149637053E+02 -0.61253841006E+03  0.61885661629E+03  0.00000000000E+00 0. -1.
         13    1    5    5    0    0 -0.16074476348E+00  0.41827610241E+02  0.21588978689E+03  0.21990446767E+03  0.00000000000E+00 0. -1.
        -14    1    5    5    0    0 -0.45416649928E+02 -0.17275839694E+02  0.12205790814E+03  0.13137450159E+03  0.00000000000E+00 0.  1.
          5    1    4    4  501    0  0.24029828850E+02  0.88851533807E+02  0.75587126306E+02  0.11917597827E+03  0.41800000000E+01 0. -1.
         -5    1    4    4    0  501  0.41319638669E+02 -0.28955973921E+02  0.11332072874E+03  0.12411615901E+03  0.41800000000E+01 0. -1.
</event>
<event>
11    1  0.8479398E-009  0.1326371E+03  0.7561462E-02  0.1116071E+00
         22   -1    0    0    0    0  0.00000000000E+00  0.00000000000E+00  0.16314863847E+04  0.16314863847E+04  0.00000000000E+00 0.  1.
         22   -1    0    0    0    0 -0.00000000000E+00 -0.00000000000E+00 -0.75159184975E+02  0.75159184975E+02  0.00000000000E+00 0.  1.
         24    2    1    2    0    0  0.24929298050E+02 -0.69765386863E+01 -0.22078557847E+02  0.83424530531E+02  0.76171172922E+02 0.  0.
         25    2    1    2    0    0 -0.33811150017E+02 -0.36312647086E+02  0.19584838170E+03  0.23762575918E+03  0.12509040974E+03 0.  0.
        -24    2    1    2    0    0  0.88818519676E+01  0.43289185772E+02  0.13825573758E+04  0.13855952799E+04  0.80352606531E+02 0.  0.
        -13    1    3    3    0    0  0.36237427881E+02 -0.30934027768E+02  0.19127020348E+01  0.47683578751E+02  0.00000000000E+00 0.  1.
         14    1    3    3    0    0 -0.11308129832E+02  0.23957489082E+02 -0.23991259882E+02  0.35740951780E+02  0.00000000000E+00 0. -1.
         13    1    5    5    0    0 -0.32781408233E+02  0.25943403321E+01  0.42666003223E+03  0.42792538419E+03  0.00000000000E+00 0. -1.
        -14    1    5    5    0    0  0.41663260200E+02  0.40694845440E+02  0.95589734359E+03  0.95766989573E+03  0.00000000000E+00 0.  1.
          5    1    4    4  501    0  0.14121612772E+02 -0.40715483513E+02  0.84691693696E+01  0.44117680977E+02  0.41800000000E+01 0.  1.
         -5    1    4    4    0  501 -0.47932762790E+02  0.44028364269E+01  0.18737921233E+03  0.19350807820E+03  0.41800000000E+01 0.  1.
</event>
<event>
11    1  0.8479398E-009  0.1604042E+03  0.7561462E-02  0.1086698E+00
         22   -1    0    0    0    0  0.00000000000E+00  0.00000000000E+00  0.49328231204E+03  0.49328231204E+03  0.00000000000E+00 0. -1.
         22   -1    0    0    0    0 -0.00000000000E+00 -0.00000000000E+00 -0.16462288319E+04  0.16462288319E+04  0.00000000000E+00 0.  1.
         24    2    1    2    0    0  0.35881605301E+02 -0.89674860837E+02 -0.13475384327E+04  0.13533063035E+04  0.79050953549E+02 0.  0.
         25    2    1    2    0    0 -0.47583443520E+02  0.13196644081E+03 -0.26095849958E+03  0.32160999566E+03  0.12511724586E+03 0.  0.
        -24    2    1    2    0    0  0.11701838219E+02 -0.42291579969E+02  0.45555041238E+03  0.46459484480E+03  0.79979252587E+02 0.  0.
        -13    1    3    3    0    0  0.11564233318E+02 -0.89877873295E+02 -0.12268560246E+04  0.12301981421E+04  0.00000000000E+00 0.  1.
         14    1    3    3    0    0  0.24317371983E+02  0.20301245759E+00 -0.12068240807E+03  0.12310816143E+03  0.00000000000E+00 0. -1.
         11    1    5    5    0    0  0.25385313370E+02 -0.48290252823E+02  0.43868130190E+03  0.44206068281E+03  0.00000000000E+00 0. -1.
        -12    1    5    5    0    0 -0.13683475151E+02  0.59986728542E+01  0.16869110480E+02  0.22534161990E+02  0.00000000000E+00 0.  1.
          5    1    4    4  501    0 -0.94538903885E+01 -0.22000917304E+02 -0.13946440356E+02  0.28024846196E+02  0.41800000000E+01 0.  1.
         -5    1    4    4    0  501 -0.38129553131E+02  0.15396735811E+03 -0.24701205922E+03  0.29358514947E+03  0.41800000000E+01 0.  1.
</event>
<event>
11    1  0.8479398E-009  0.2500323E+03  0.7561462E-02  0.1023882E+00
         22   -1    0    0    0    0  0.00000000000E+00  0.00000000000E+00  0.86631045577E+03  0.86631045577E+03  0.00000000000E+00 0.  1.
         22   -1    0    0    0    0 -0.00000000000E+00 -0.00000000000E+00 -0.31939452236E+03  0.31939452236E+03  0.00000000000E+00 0.  1.
         24    2    1    2    0    0  0.42446298014E+02  0.11897815475E+02 -0.22068189665E+03  0.23841349498E+03  0.78722606982E+02 0.  0.
         25    2    1    2    0    0  0.38099866002E+02 -0.21377750406E+03  0.16064953995E+03  0.29766960313E+03  0.12508595809E+03 0.  0.
        -24    2    1    2    0    0 -0.80546164016E+02  0.20187968858E+03  0.60694829011E+03  0.64962188003E+03  0.79870313323E+02 0.  0.
        -13    1    3    3    0    0 -0.18960120052E+02  0.14754378843E+02 -0.10158789221E+03  0.10439002678E+03  0.00000000000E+00 0.  1.
         14    1    3    3    0    0  0.61406418066E+02 -0.28565633679E+01 -0.11909400443E+03  0.13402346819E+03  0.00000000000E+00 0. -1.
         13    1    5    5    0    0  0.53296938537E+01  0.91574371684E+02  0.24663812722E+03  0.26314375726E+03  0.00000000000E+00 0. -1.
        -14    1    5    5    0    0 -0.85875857870E+02  0.11030531690E+03  0.36031016289E+03  0.38647812277E+03  0.00000000000E+00 0.  1.
          5    1    4    4  501    0  0.10312945983E+02 -0.21411961101E+03  0.11303225340E+03  0.24237847962E+03  0.41800000000E+01 0.  1.
         -5    1    4    4    0  501  0.27786920019E+02  0.34210694854E+00  0.47617286545E+02  0.55291123512E+02  0.41800000000E+01 0.  1.
</event>
<event>
11    1  0.8479398E-009  0.2902605E+03  0.7561462E-02  0.1004400E+00
         22   -1    0    0    0    0  0.00000000000E+00  0.00000000000E+00  0.47869244589E+03  0.47869244589E+03  0.00000000000E+00 0.  1.
         22   -1    0    0    0    0 -0.00000000000E+00 -0.00000000000E+00 -0.18102415024E+04  0.18102415024E+04  0.00000000000E+00 0.  1.
        -24    2    1    2    0    0 -0.29559649947E+02  0.39021748892E+02 -0.16074021979E+04  0.16115417387E+04  0.10453937059E+03 0.  0.
         25    2    1    2    0    0 -0.58597668617E+02  0.22170015294E+03 -0.23958471380E+02  0.26230236255E+03  0.12507548308E+03 0.  0.
         24    2    1    2    0    0  0.88157318564E+02 -0.26072190183E+03  0.29981161279E+03  0.41508984701E+03  0.81639175722E+02 0.  0.
        -11    1    5    5    0    0  0.95719129739E+02 -0.23740762188E+03  0.29415042722E+03  0.38993461575E+03  0.00000000000E+00 0.  1.
         12    1    5    5    0    0 -0.75618111746E+01 -0.23314279944E+02  0.56611855776E+01  0.25155231259E+02  0.00000000000E+00 0. -1.
         11    1    3    3    0    0  0.33506138278E+02  0.54077141516E+01 -0.25446502183E+03  0.25671842943E+03  0.00000000000E+00 0. -1.
        -12    1    3    3    0    0 -0.63065788225E+02  0.33614034740E+02 -0.13529371761E+04  0.13548233093E+04  0.00000000000E+00 0.  1.
          5    1    4    4  501    0 -0.24477216399E+02  0.17620582937E+03  0.33811935425E+02  0.18113074781E+03  0.41800000000E+01 0. -1.
         -5    1    4    4    0  501 -0.34120452219E+02  0.45494323569E+02 -0.57770406806E+02  0.81171614738E+02  0.41800000000E+01 0. -1.
</event>
<event>
11    1  0.8479398E-009  0.1436010E+03  0.7561462E-02  0.1103603E+00
         22   -1    0    0    0    0  0.00000000000E+00  0.00000000000E+00  0.69785417313E+02  0.69785417313E+02  0.00000000000E+00 0. -1.
         22   -1    0    0    0    0 -0.00000000000E+00 -0.00000000000E+00 -0.14734383967E+04  0.14734383967E+04  0.00000000000E+00 0. -1.
        -24    2    1    2    0    0 -0.19019046324E+02 -0.40858734484E+01 -0.11846915724E+04  0.11875217865E+04  0.79595559666E+02 0.  0.
         25    2    1    2    0    0 -0.29000509768E+02 -0.51974982770E+02 -0.20423272137E+03  0.24677939193E+03  0.12508651167E+03 0.  0.
         24    2    1    2    0    0  0.48019556092E+02  0.56060856219E+02 -0.14728685578E+02  0.10892263558E+03  0.78730610288E+02 0.  0.
        -11    1    5    5    0    0  0.15400038881E+02 -0.18423138881E+02  0.65145172900E+01  0.24879955372E+02  0.00000000000E+00 0.  1.
         12    1    5    5    0    0  0.32619517211E+02  0.74483995100E+02 -0.21243202868E+02  0.84042680212E+02  0.00000000000E+00 0. -1.
         13    1    3    3    0    0 -0.16778962395E+02 -0.11900753138E+02 -0.11735463682E+04  0.11737266461E+04  0.00000000000E+00 0. -1.
        -14    1    3    3    0    0 -0.22400839294E+01  0.78148796898E+01 -0.11145204258E+02  0.13795140395E+02  0.00000000000E+00 0.  1.
          5    1    4    4  501    0  0.29942339916E+02 -0.67010835842E+02 -0.14053729080E+03  0.15860390394E+03  0.41800000000E+01 0.  1.
         -5    1    4    4    0  501 -0.58942849684E+02  0.15035853071E+02 -0.63695430566E+02  0.88175487985E+02  0.41800000000E+01 0.  1.
</event>
<event>
11    1  0.8479398E-009  0.1405768E+03  0.7561462E-02  0.1106916E+00
         22   -1    0    0    0    0  0.00000000000E+00  0.00000000000E+00  0.17265850492E+03  0.17265850492E+03  0.00000000000E+00 0. -1.
         22   -1    0    0    0    0 -0.00000000000E+00 -0.00000000000E+00 -0.11025489346E+04  0.11025489346E+04  0.00000000000E+00 0.  1.
        -24    2    1    2    0    0  0.74970283415E+01  0.31842434589E+02 -0.29278285652E+03  0.30442602983E+03  0.76702415169E+02 0.  0.
         25    2    1    2    0    0 -0.70832560699E+02 -0.40194914296E+02 -0.78014386438E+03  0.79429637620E+03  0.12509756721E+03 0.  0.
         24    2    1    2    0    0  0.63335532357E+02  0.83524797066E+01  0.14303629119E+03  0.17648503352E+03  0.81279966068E+02 0.  0.
        -13    1    5    5    0    0  0.46258606531E+02 -0.33908137125E+02  0.71502526651E+02  0.91663688334E+02  0.00000000000E+00 0.  1.
         14    1    5    5    0    0  0.17076925827E+02  0.42260616831E+02  0.71533764539E+02  0.84821345190E+02  0.00000000000E+00 0. -1.
         13    1    3    3    0    0 -0.22660515943E+02 -0.15304990015E+02 -0.90135266838E+02  0.94191868174E+02  0.00000000000E+00 0. -1.
        -14    1    3    3    0    0  0.30157544285E+02  0.47147424604E+02 -0.20264758968E+03  0.21023416165E+03  0.00000000000E+00 0.  1.
          5    1    4    4  501    0 -0.10385771015E+03 -0.10840681581E+02 -0.52070538952E+03  0.53108899387E+03  0.41800000000E+01 0. -1.
         -5    1    4    4    0  501  0.33025149451E+02 -0.29354232715E+02 -0.25943847486E+03  0.26320738233E+03  0.41800000000E+01 0. -1.
</event>
<event>
11    1  0.8479398E-009  0.2527902E+03  0.7561462E-02  0.1022423E+00
         22   -1    0    0    0    0  0.00000000000E+00  0.00000000000E+00  0.47066811117E+02  0.47066811117E+02  0.00000000000E+00 0. -1.
         22   -1    0    0    0    0 -0.00000000000E+00 -0.00000000000E+00 -0.41979064295E+04  0.41979064295E+04  0.00000000000E+00 0. -1.
         24    2    1    2    0    0 -0.44016631056E+02 -0.46387613689E+02 -0.21213365721E+04  0.21240469435E+04  0.86123700647E+02 0.  0.
         25    2    1    2    0    0 -0.10603173639E+03  0.20550221538E+03 -0.16838724655E+04  0.17042735087E+04  0.12509125731E+03 0.  0.
        -24    2    1    2    0    0  0.15004836744E+03 -0.15911460169E+03 -0.34563058083E+03  0.41665278843E+03  0.79417118159E+02 0.  0.
        -11    1    3    3    0    0 -0.62402981035E+02 -0.37737033439E+02 -0.10553143360E+04  0.10578310657E+04  0.00000000000E+00 0.  1.
         12    1    3    3    0    0  0.18386349979E+02 -0.86505802495E+01 -0.10660222361E+04  0.10662158778E+04  0.00000000000E+00 0. -1.
         11    1    5    5    0    0  0.21740276234E+02 -0.57904534903E+02 -0.52867066399E+02  0.81366464115E+02  0.00000000000E+00 0. -1.
        -12    1    5    5    0    0  0.12830809121E+03 -0.10121006678E+03 -0.29276351443E+03  0.33528632431E+03  0.00000000000E+00 0.  1.
          5    1    4    4  501    0  0.27795809185E+02  0.24966898813E+02 -0.28238517725E+03  0.28487683967E+03  0.41800000000E+01 0. -1.
         -5    1    4    4    0  501 -0.13382754557E+03  0.18053531656E+03 -0.14014872883E+04  0.14193966690E+04  0.41800000000E+01 0. -1.
</event>
<event>
11    1  0.8479398E-009  0.1837439E+03  0.7561462E-02  0.1066654E+00
         22   -1    0    0    0    0  0.00000000000E+00  0.00000000000E+00  0.19240925877E+03  0.19240925877E+03  0.00000000000E+00 0.  1.
         22   -1    0    0    0    0 -0.00000000000E+00 -0.00000000000E+00 -0.56012783429E+03  0.56012783429E+03  0.00000000000E+00 0. -1.
         24    2    1    2    0    0  0.16117738215E+02 -0.80632063910E+01 -0.27384681548E+03  0.28608643645E+03  0.80799591549E+02 0.  0.
         25    2    1    2    0    0 -0.13222952871E+03  0.70706675503E+02 -0.19888285566E+03  0.27872092540E+03  0.12508749641E+03 0.  0.
        -24    2    1    2    0    0  0.11611179049E+03 -0.62643469112E+02  0.10501109562E+03  0.18772973120E+03  0.82516481138E+02 0.  0.
        -11    1    3    3    0    0 -0.28155894074E+01 -0.39172823708E+02 -0.83344826918E+02  0.92134672274E+02  0.00000000000E+00 0.  1.
         12    1    3    3    0    0  0.18933327622E+02  0.31109617317E+02 -0.19050198856E+03  0.19395176418E+03  0.00000000000E+00 0. -1.
         11    1    5    5    0    0  0.98715118833E+02 -0.10762933178E+02  0.54561287273E+02  0.11330246902E+03  0.00000000000E+00 0. -1.
        -12    1    5    5    0    0  0.17396671661E+02 -0.51880535935E+02  0.50449808348E+02  0.74427262183E+02  0.00000000000E+00 0.  1.
          5    1    4    4  501    0 -0.75536514849E+02  0.88919510675E+02 -0.68590361790E+02  0.13540514977E+03  0.41800000000E+01 0. -1.
         -5    1    4    4    0  501 -0.56693013861E+02 -0.18212835171E+02 -0.13029249387E+03  0.14331577563E+03  0.41800000000E+01 0. -1.
</event>
<event>
11    1  0.1002713E-008  0.1565763E+03  0.7561462E-02  0.1090342E+00
         22   -1    0    0    0    0  0.00000000000E+00  0.00000000000E+00  0.43951553979E+03  0.43951553979E+03  0.00000000000E+00 0.  1.
         22   -1    0    0    0    0 -0.00000000000E+00 -0.00000000000E+00 -0.42405966042E+03  0.42405966042E+03  0.00000000000E+00 0.  1.
        -24    2    1    2    0    0  0.47754962811E+02 -0.11064354128E+02 -0.29501509773E+03  0.31690752110E+03  0.10484995296E+03 0.  0.
         25    2    1    2    0    0 -0.68036709144E+02 -0.80839700937E+02 -0.45401303626E+02  0.16992212245E+03  0.12509275874E+03 0.  0.
         24    2    1    2    0    0  0.20281746334E+02  0.91904055065E+02  0.35587228072E+03  0.37674555666E+03  0.80214897018E+02 0.  0.
        -11    1    5    5    0    0 -0.19599692367E+02  0.72426834967E+02  0.26793289417E+03  0.27824059758E+03  0.00000000000E+00 0.  1.
         12    1    5    5    0    0  0.39881438701E+02  0.19477220098E+02  0.87939386555E+02  0.98504959079E+02  0.00000000000E+00 0. -1.
         11    1    3    3    0    0  0.31658021324E+02  0.78904556895E+01 -0.15206760279E+02  0.35996321525E+02  0.00000000000E+00 0. -1.
        -12    1    3    3    0    0  0.16096941487E+02 -0.18954809818E+02 -0.27980833745E+03  0.28091119958E+03  0.00000000000E+00 0.  1.
          5    1    4    4  501    0  0.17759750065E+02 -0.40821833586E+02 -0.59169923081E+02  0.74164567126E+02  0.41800000000E+01 0.  1.
         -5    1    4    4    0  501 -0.85796459209E+02 -0.40017867351E+02  0.13768619454E+02  0.95757555325E+02  0.41800000000E+01 0.  1.
</event>
<event>
11    1  0.8479398E-009  0.1680546E+03  0.7561462E-02  0.1079737E+00
         22   -1    0    0    0    0  0.00000000000E+00  0.00000000000E+00  0.12816833475E+03  0.12816833475E+03  0.00000000000E+00 0.  1.
         22   -1    0    0    0    0 -0.00000000000E+00 -0.00000000000E+00 -0.43449917525E+03  0.43449917525E+03  0.00000000000E+00 0.  1.
        -24    2    1    2    0    0 -0.26408984645E+02 -0.16733494327E+02 -0.21691508177E+03  0.23293232367E+03  0.78916857577E+02 0.  0.
         25    2    1    2    0    0 -0.67242127361E+02  0.85155628010E+02 -0.79008561565E+02  0.18347199141E+03  0.12508650669E+03 0.  0.
         24    2    1    2    0    0  0.93651112006E+02 -0.68422133683E+02 -0.10407197160E+02  0.14626319492E+03  0.88501374440E+02 0.  0.
        -11    1    5    5    0    0  0.59687261501E+02 -0.38149009840E+02  0.37536336540E+02  0.80167903166E+02  0.00000000000E+00 0.  1.
         12    1    5    5    0    0  0.33963850506E+02 -0.30273123843E+02 -0.47943533700E+02  0.66095291754E+02  0.00000000000E+00 0. -1.
         13    1    3    3    0    0 -0.24261486874E+02  0.12312896111E+02 -0.19730556304E+02  0.33608362174E+02  0.00000000000E+00 0. -1.
        -14    1    3    3    0    0 -0.21474977718E+01 -0.29046390438E+02 -0.19718452547E+03  0.19932396150E+03  0.00000000000E+00 0.  1.
          5    1    4    4  501    0 -0.10149608544E+03  0.80732036477E+02 -0.70436464934E+02  0.14764106836E+03  0.41800000000E+01 0.  1.
         -5    1    4    4    0  501  0.34253958076E+02  0.44235915333E+01 -0.85720966307E+01  0.35830923049E+02  0.41800000000E+01 0.  1.
</event>
<event>
11    1  0.8479398E-009  0.2038312E+03  0.7561462E-02  0.1051847E+00
         22   -1    0    0    0    0  0.00000000000E+00  0.00000000000E+00  0.58036956631E+02  0.58036956631E+02  0.00000000000E+00 0. -1.
         22   -1    0    0    0    0 -0.00000000000E+00 -0.00000000000E+00 -0.13640296533E+04  0.13640296533E+04  0.00000000000E+00 0. -1.
         24    2    1    2    0    0  0.31468924290E+02  0.27331089181E+02 -0.61262433178E+03  0.61930156542E+03  0.80551694035E+02 0.  0.
         25    2    1    2    0    0  0.13955409655E+03 -0.21744701970E+02 -0.48993596226E+03  0.52500750193E+03  0.12508977592E+03 0.  0.
        -24    2    1    2    0    0 -0.17102302084E+03 -0.55863872103E+01 -0.20343240260E+03  0.27775754256E+03  0.80525950099E+02 0.  0.
        -11    1    3    3    0    0  0.18005820272E+02 -0.25883901090E+02 -0.32190094408E+03  0.32344149965E+03  0.00000000000E+00 0.  1.
         12    1    3    3    0    0  0.13463104017E+02  0.53214990271E+02 -0.29072338770E+03  0.29586006577E+03  0.00000000000E+00 0. -1.
         13    1    5    5    0    0 -0.12495825316E+03 -0.29602568271E+02 -0.10275470621E+03  0.16446703843E+03  0.00000000000E+00 0. -1.
        -14    1    5    5    0    0 -0.46064767672E+02  0.24016181060E+02 -0.10067769640E+03  0.11329050413E+03  0.00000000000E+00 0.  1.
          5    1    4    4  501    0  0.36179891578E+02 -0.46328087156E+02 -0.31360132179E+03  0.31909017165E+03  0.41800000000E+01 0.  1.
         -5    1    4    4    0  501  0.10337420497E+03  0.24583385186E+02 -0.17633464047E+03  0.20591733028E+03  0.41800000000E+01 0.  1.
</event>
<event>
11    1  0.8479398E-009  0.1586905E+03  0.7561462E-02  0.1088315E+00
         22   -1    0    0    0    0  0.00000000000E+00  0.00000000000E+00  0.18512787986E+04  0.18512787986E+04  0.00000000000E+00 0.  1.
         22   -1    0    0    0    0 -0.00000000000E+00 -0.00000000000E+00 -0.29283847601E+03  0.29283847601E+03  0.00000000000E+00 0.  1.
         24    2    1    2    0    0  0.41294935470E+02  0.43814468996E+00 -0.22228141402E+03  0.24072779585E+03  0.82676363061E+02 0.  0.
         25    2    1    2    0    0 -0.80470310228E+02  0.88325036203E+02  0.67725755354E+02  0.18577197145E+03  0.12509062551E+03 0.  0.
        -24    2    1    2    0    0  0.39175374759E+02 -0.88763180893E+02  0.17129959813E+04  0.17176175073E+04  0.80256198353E+02 0.  0.
        -13    1    3    3    0    0  0.58151355211E+02  0.14682089610E+02 -0.20213865536E+03  0.21084871320E+03  0.00000000000E+00 0.  1.
         14    1    3    3    0    0 -0.16856419741E+02 -0.14243944920E+02 -0.20142758660E+02  0.29879082647E+02  0.00000000000E+00 0. -1.
         11    1    5    5    0    0  0.13727376934E+02 -0.27889499797E+02  0.14789459179E+03  0.15112602475E+03  0.00000000000E+00 0. -1.
        -12    1    5    5    0    0  0.25447997824E+02 -0.60873681097E+02  0.15651013895E+04  0.15664914826E+04  0.00000000000E+00 0.  1.
          5    1    4    4  501    0  0.29019586568E+02  0.25083698581E+02 -0.64483388765E+01  0.39120094751E+02  0.41800000000E+01 0.  1.
         -5    1    4    4    0  501 -0.10948989680E+03  0.63241337622E+02  0.74174094231E+02  0.14665187670E+03  0.41800000000E+01 0.  1.
</event>
<event>
11    1  0.8479398E-009  0.3167588E+03  0.7561462E-02  0.9933378E-01
         22   -1    0    0    0    0  0.00000000000E+00  0.00000000000E+00  0.80746604033E+03  0.80746604033E+03  0.00000000000E+00 0. -1.
         22   -1    0    0    0    0 -0.00000000000E+00 -0.00000000000E+00 -0.22280177325E+04  0.22280177325E+04  0.00000000000E+00 0.  1.
         24    2    1    2    0    0 -0.52575518024E+01  0.50266532615E+02 -0.20796190230E+04  0.20816992553E+04  0.78116210593E+02 0.  0.
         25    2    1    2    0    0  0.15323792700E+03  0.21315178023E+03  0.89904419560E+02  0.30437586781E+03  0.12508525317E+03 0.  0.
        -24    2    1    2    0    0 -0.14798037519E+03 -0.26341831284E+03  0.56916291135E+03  0.64940864969E+03  0.80608781455E+02 0.  0.
        -13    1    3    3    0    0  0.33703008440E+02  0.25502164362E+02 -0.13217084723E+04  0.13223840361E+04  0.00000000000E+00 0.  1.
         14    1    3    3    0    0 -0.38960560243E+02  0.24764368252E+02 -0.75791055070E+03  0.75931521916E+03  0.00000000000E+00 0. -1.
         11    1    5    5    0    0 -0.43307055938E+02 -0.14369955025E+03  0.32562717513E+03  0.35855002304E+03  0.00000000000E+00 0. -1.
        -12    1    5    5    0    0 -0.10467331925E+03 -0.11971876259E+03  0.24353573622E+03  0.29085862665E+03  0.00000000000E+00 0.  1.
          5    1    4    4  501    0 -0.52874764996E+01  0.21527141520E+02  0.46777381714E+02  0.51932370154E+02  0.41800000000E+01 0.  1.
         -5    1    4    4    0  501  0.15852540349E+03  0.19162463871E+03  0.43127037846E+02  0.25244349765E+03  0.41800000000E+01 0.  1.
</event>
<event>
11    1  0.8479398E-009  0.1400154E+03  0.7561462E-02  0.1107541E+00
         22   -1    0    0    0    0  0.00000000000E+00  0.00000000000E+00  0.33212414353E+03  0.33212414353E+03  0.00000000000E+00 0.  1.
         22   -1    0    0    0    0 -0.00000000000E+00 -0.00000000000E+00 -0.43113731306E+03  0.43113731306E+03  0.00000000000E+00 0. -1.
         24    2    1    2    0    0 -0.13362026870E+02  0.39656275572E+02 -0.26094622845E+03  0.27645068303E+03  0.81122635863E+02 0.  0.
         25    2    1    2    0    0 -0.19230718543E+02 -0.91643567743E+02 -0.11329689650E+03  0.19300839796E+03  0.12509073061E+03 0.  0.
        -24    2    1    2    0    0  0.32592745413E+02  0.51987292171E+02  0.27522995543E+03  0.29380237560E+03  0.82482373507E+02 0.  0.
        -13    1    3    3    0    0 -0.56033555749E+01 -0.22319431610E+01  0.45519787571E+01  0.75564326622E+01  0.00000000000E+00 0.  1.
         14    1    3    3    0    0 -0.77586712950E+01  0.41888218733E+02 -0.26549820721E+03  0.26889425037E+03  0.00000000000E+00 0. -1.
         11    1    5    5    0    0  0.50198329599E+02  0.45515548397E+01  0.16473422366E+03  0.17227290382E+03  0.00000000000E+00 0. -1.
        -12    1    5    5    0    0 -0.17605584186E+02  0.47435737332E+02  0.11049573177E+03  0.12152947178E+03  0.00000000000E+00 0.  1.
          5    1    4    4  501    0  0.16586533049E+02  0.27157788947E+02 -0.24021521030E+02  0.40089455617E+02  0.41800000000E+01 0. -1.
         -5    1    4    4    0  501 -0.35817251592E+02 -0.11880135669E+03 -0.89275375469E+02  0.15291894235E+03  0.41800000000E+01 0. -1.
</event>
<event>
11    1  0.1017821E-008  0.2056916E+03  0.7561462E-02  0.1050570E+00
         22   -1    0    0    0    0  0.00000000000E+00  0.00000000000E+00  0.64220086775E+03  0.64220086775E+03  0.00000000000E+00 0.  1.
         22   -1    0    0    0    0 -0.00000000000E+00 -0.00000000000E+00 -0.86734166798E+03  0.86734166798E+03  0.00000000000E+00 0. -1.
         24    2    1    2    0    0  0.21625230406E+01  0.19977363756E+01 -0.43717184289E+03  0.44477154666E+03  0.81815897244E+02 0.  0.
         25    2    1    2    0    0  0.99853718404E+02  0.12560367854E+03 -0.38885299515E+03  0.43886353456E+03  0.12508997155E+03 0.  0.
        -24    2    1    2    0    0 -0.10201624144E+03 -0.12760141492E+03  0.60088403781E+03  0.62590745452E+03  0.63317297145E+02 0.  0.
        -11    1    3    3    0    0 -0.75574781444E+01  0.21410607259E+02 -0.33227521395E+02  0.40244226383E+02  0.00000000000E+00 0.  1.
         12    1    3    3    0    0  0.97200011850E+01 -0.19412870883E+02 -0.40394432150E+03  0.40452732027E+03  0.00000000000E+00 0. -1.
         11    1    5    5    0    0 -0.22854445615E+02 -0.32255428872E+02  0.66678754955E+02  0.77516415928E+02  0.00000000000E+00 0. -1.
        -12    1    5    5    0    0 -0.79161795830E+02 -0.95345986047E+02  0.53420528285E+03  0.54839103859E+03  0.00000000000E+00 0.  1.
          5    1    4    4  501    0  0.24132865449E+02  0.10593651315E+02 -0.21688123275E+03  0.21851673200E+03  0.41800000000E+01 0. -1.
         -5    1    4    4    0  501  0.75720852955E+02  0.11501002723E+03 -0.17197176240E+03  0.22034680256E+03  0.41800000000E+01 0. -1.
</event>
<event>
11    1  0.1594987E-008  0.1978053E+03  0.7561462E-02  0.1056087E+00
         22   -1    0    0    0    0  0.00000000000E+00  0.00000000000E+00  0.23178248799E+04  0.23178248799E+04  0.00000000000E+00 0.  1.
         22   -1    0    0    0    0 -0.00000000000E+00 -0.00000000000E+00 -0.87620036324E+03  0.87620036324E+03  0.00000000000E+00 0.  1.
        -24    2    1    2    0    0  0.95317069000E+02 -0.28931766372E+02 -0.56112891423E+03  0.57606368266E+03  0.84031644949E+02 0.  0.
         25    2    1    2    0    0 -0.50446111471E+02  0.17544382019E+03 -0.26412484750E+03  0.34457906101E+03  0.12508976782E+03 0.  0.
         24    2    1    2    0    0 -0.44870957529E+02 -0.14651205381E+03  0.22668782784E+04  0.22733824994E+04  0.77792513178E+02 0.  0.
        -13    1    5    5    0    0 -0.58403250631E+02 -0.86270107804E+02  0.16903728096E+04  0.16935801447E+04  0.00000000000E+00 0.  1.
         14    1    5    5    0    0  0.13532293102E+02 -0.60241946009E+02  0.57650546875E+03  0.57980235470E+03  0.00000000000E+00 0. -1.
         11    1    3    3    0    0  0.61128750134E+02 -0.35863703310E+02 -0.18167365286E+03  0.19500832149E+03  0.00000000000E+00 0. -1.
        -12    1    3    3    0    0  0.34188318866E+02  0.69319369380E+01 -0.37945526137E+03  0.38105536117E+03  0.00000000000E+00 0.  1.
          5    1    4    4  501    0 -0.70042627550E+01 -0.19465389686E+01  0.11303976336E+02  0.14074835406E+02  0.41800000000E+01 0.  1.
         -5    1    4    4    0  501 -0.43441848715E+02  0.17739035915E+03 -0.27542882384E+03  0.33050422560E+03  0.41800000000E+01 0.  1.
</event>
<event>
11    1  0.8479398E-009  0.1836433E+03  0.7561462E-02  0.1066733E+00
         22   -1    0    0    0    0  0.00000000000E+00  0.00000000000E+00  0.10085001045E+04  0.10085001045E+04  0.00000000000E+00 0.  1.
         22   -1    0    0    0    0 -0.00000000000E+00 -0.00000000000E+00 -0.40297753658E+03  0.40297753658E+03  0.00000000000E+00 0. -1.
         24    2    1    2    0    0  0.95649105111E+02  0.93851005914E+02 -0.25567400620E+03  0.29884149223E+03  0.77332253368E+02 0.  0.
         25    2    1    2    0    0 -0.79645598701E+02 -0.11215335766E+03 -0.54152477918E+02  0.19365174284E+03  0.12508680831E+03 0.  0.
        -24    2    1    2    0    0 -0.16003506410E+02  0.18302351751E+02  0.91534905205E+03  0.91898440602E+03  0.77957444297E+02 0.  0.
        -11    1    3    3    0    0  0.58419980720E+02  0.88008429192E+02 -0.12927471312E+03  0.16694409007E+03  0.00000000000E+00 0.  1.
         12    1    3    3    0    0  0.37229124391E+02  0.58425767220E+01 -0.12639929308E+03  0.13189740216E+03  0.00000000000E+00 0. -1.
         11    1    5    5    0    0 -0.45869476322E+01  0.31231651452E+02  0.14299531946E+03  0.14643810135E+03  0.00000000000E+00 0. -1.
        -12    1    5    5    0    0 -0.11416558778E+02 -0.12929299701E+02  0.77235373260E+03  0.77254630467E+03  0.00000000000E+00 0.  1.
          5    1    4    4  501    0 -0.66796623353E+02 -0.11256207341E+02  0.16368288900E+02  0.69813210616E+02  0.41800000000E+01 0. -1.
         -5    1    4    4    0  501 -0.12848975348E+02 -0.10089715032E+03 -0.70520766818E+02  0.12383853222E+03  0.41800000000E+01 0. -1.
</event>
<event>
11    1  0.8479398E-009  0.1323059E+03  0.7561462E-02  0.1116468E+00
         22   -1    0    0    0    0  0.00000000000E+00  0.00000000000E+00  0.14899594251E+04  0.14899594251E+04  0.00000000000E+00 0. -1.
         22   -1    0    0    0    0 -0.00000000000E+00 -0.00000000000E+00 -0.42190087000E+03  0.42190087000E+03  0.00000000000E+00 0.  1.
         24    2    1    2    0    0  0.42972550039E+02 -0.29401700495E+01 -0.40544267746E+03  0.41559520813E+03  0.80500482364E+02 0.  0.
         25    2    1    2    0    0 -0.41490185280E+02  0.29662905853E+02  0.46858289719E+03  0.48766836033E+03  0.12509666131E+03 0.  0.
        -24    2    1    2    0    0 -0.14823647597E+01 -0.26722735803E+02  0.10049183353E+04  0.10085967266E+04  0.81793607507E+02 0.  0.
        -13    1    3    3    0    0  0.80667734495E+01 -0.13826299052E+02 -0.34196856685E+03  0.34234301525E+03  0.00000000000E+00 0.  1.
         14    1    3    3    0    0  0.34905776590E+02  0.10886129002E+02 -0.63474110608E+02  0.73252192879E+02  0.00000000000E+00 0. -1.
         11    1    5    5    0    0 -0.24816420042E+02 -0.48549880459E+01  0.85176530382E+03  0.85214057432E+03  0.00000000000E+00 0. -1.
        -12    1    5    5    0    0  0.23334055283E+02 -0.21867747757E+02  0.15315303151E+03  0.15645615228E+03  0.00000000000E+00 0.  1.
          5    1    4    4  501    0 -0.63259695225E+02  0.66615169814E+02  0.31334521317E+03  0.32656096660E+03  0.41800000000E+01 0. -1.
         -5    1    4    4    0  501  0.21769509945E+02 -0.36952263962E+02  0.15523768402E+03  0.16110739373E+03  0.41800000000E+01 0. -1.
</event>
<event>
11    1  0.3513905E-008  0.1849503E+03  0.7561462E-02  0.1065708E+00
         22   -1    0    0    0    0  0.00000000000E+00  0.00000000000E+00  0.49010039382E+03  0.49010039382E+03  0.00000000000E+00 0.  1.
         22   -1    0    0    0    0 -0.00000000000E+00 -0.00000000000E+00 -0.16094529489E+04  0.16094529489E+04  0.00000000000E+00 0.  1.
        -24    2    1    2    0    0  0.35610913294E+02 -0.65129642343E+02 -0.10984589439E+04  0.11040598652E+04  0.82620379870E+02 0.  0.
         25    2    1    2    0    0 -0.86517534659E+02 -0.62569906408E+02 -0.48117007897E+03  0.50849878951E+03  0.12508435975E+03 0.  0.
         24    2    1    2    0    0  0.50906621365E+02  0.12769954875E+03  0.46027646779E+03  0.48699468795E+03  0.80067099606E+02 0.  0.
        -13    1    5    5    0    0  0.65656764533E+02  0.63125890422E+02  0.30147127747E+03  0.31492954754E+03  0.00000000000E+00 0.  1.
         14    1    5    5    0    0 -0.14750143168E+02  0.64573658329E+02  0.15880519032E+03  0.17206514041E+03  0.00000000000E+00 0. -1.
         11    1    3    3    0    0  0.18271466471E+01 -0.26749498770E+01  0.68316678845E-01  0.32401371705E+01  0.00000000000E+00 0. -1.
        -12    1    3    3    0    0  0.33783766647E+02 -0.62454692466E+02 -0.10985272605E+04  0.11008197280E+04  0.00000000000E+00 0.  1.
          5    1    4    4  501    0 -0.78190918693E+02  0.20163478835E+02 -0.22063714240E+03  0.23498639673E+03  0.41800000000E+01 0. -1.
         -5    1    4    4    0  501 -0.83266159662E+01 -0.82733385243E+02 -0.26053293657E+03  0.27351239278E+03  0.41800000000E+01 0. -1.
</event>
<event>
11    1  0.8479398E-009  0.1482462E+03  0.7561462E-02  0.1098684E+00
         22   -1    0    0    0    0  0.00000000000E+00  0.00000000000E+00  0.27636753907E+02  0.27636753907E+02  0.00000000000E+00 0.  1.
         22   -1    0    0    0    0 -0.00000000000E+00 -0.00000000000E+00 -0.29327771766E+04  0.29327771766E+04  0.00000000000E+00 0. -1.
         24    2    1    2    0    0  0.21948805051E+02  0.92123599883E+01 -0.72343807753E+03  0.72827971703E+03  0.80387042523E+02 0.  0.
         25    2    1    2    0    0  0.14405053824E+02 -0.80059956133E+02 -0.20645484019E+04  0.20699346082E+04  0.12510825887E+03 0.  0.
        -24    2    1    2    0    0 -0.36353858874E+02  0.70847596144E+02 -0.11715394328E+03  0.16219960525E+03  0.79010635886E+02 0.  0.
        -11    1    3    3    0    0  0.51848173471E+02 -0.14634609138E+01 -0.42269083121E+03  0.42586137839E+03  0.00000000000E+00 0.  1.
         12    1    3    3    0    0 -0.29899368420E+02  0.10675820902E+02 -0.30074724631E+03  0.30241833865E+03  0.00000000000E+00 0. -1.
         13    1    5    5    0    0 -0.32325451804E+02  0.22681993542E+01 -0.74742647897E+02  0.81464980067E+02  0.00000000000E+00 0. -1.
        -14    1    5    5    0    0 -0.40284070703E+01  0.68579396790E+02 -0.42411295383E+02  0.80734625184E+02  0.00000000000E+00 0.  1.
          5    1    4    4  501    0  0.37939707937E+02 -0.10444269334E+03 -0.13504873462E+04  0.13550576527E+04  0.41800000000E+01 0.  1.
         -5    1    4    4    0  501 -0.23534654113E+02  0.24382737212E+02 -0.71406105570E+03  0.71487695548E+03  0.41800000000E+01 0.  1.
</event>
<event>
11    1  0.8479398E-009  0.1363553E+03  0.7561462E-02  0.1111698E+00
         22   -1    0    0    0    0  0.00000000000E+00  0.00000000000E+00  0.89894942118E+03  0.89894942118E+03  0.00000000000E+00 0. -1.
         22   -1    0    0    0    0 -0.00000000000E+00 -0.00000000000E+00 -0.41393180699E+02  0.41393180699E+02  0.00000000000E+00 0. -1.
         24    2    1    2    0    0  0.48399625489E+02  0.24330037545E+02  0.11492036933E+03  0.14945022803E+03  0.78703271202E+02 0.  0.
         25    2    1    2    0    0 -0.57806696919E+02 -0.18077996143E+01  0.20688975818E+03  0.24858452934E+03  0.12508402712E+03 0.  0.
        -24    2    1    2    0    0  0.94070714307E+01 -0.22522237931E+02  0.53574611297E+03  0.54230784450E+03  0.80486995554E+02 0.  0.
        -11    1    3    3    0    0  0.54670012878E+01 -0.13276480917E+02  0.82643580155E+02  0.83881549756E+02  0.00000000000E+00 0.  1.
         12    1    3    3    0    0  0.42932624201E+02  0.37606518462E+02  0.32276789174E+02  0.65568678277E+02  0.00000000000E+00 0. -1.
         13    1    5    5    0    0  0.39000735865E+02 -0.31487937467E+02  0.25625793855E+03  0.26111430194E+03  0.00000000000E+00 0. -1.
        -14    1    5    5    0    0 -0.29593664435E+02  0.89656995368E+01  0.27948817442E+03  0.28119354257E+03  0.00000000000E+00 0.  1.
          5    1    4    4  501    0 -0.44595125934E+02 -0.32464130803E+01  0.38559693976E+01  0.45073333080E+02  0.41800000000E+01 0.  1.
         -5    1    4    4    0  501 -0.13211570986E+02  0.14386134659E+01  0.20303378878E+03  0.20351119626E+03  0.41800000000E+01 0.  1.
</event>
<event>
11    1  0.8479398E-009  0.1808670E+03  0.7561462E-02  0.1068944E+00
         22   -1    0    0    0    0  0.00000000000E+00  0.00000000000E+00  0.14259467216E+04  0.14259467216E+04  0.00000000000E+00 0.  1.
         22   -1    0    0    0    0 -0.00000000000E+00 -0.00000000000E+00 -0.18141733412E+04  0.18141733412E+04  0.00000000000E+00 0. -1.
         24    2    1    2    0    0  0.23029478480E+01  0.64957226773E+02 -0.14325684661E+04  0.14362420003E+04  0.79460233638E+02 0.  0.
         25    2    1    2    0    0  0.12826893094E+03 -0.59578892985E+02 -0.35189012662E+03  0.39934678554E+03  0.12509448737E+03 0.  0.
        -24    2    1    2    0    0 -0.13057187878E+03 -0.53783337884E+01  0.13962319731E+04  0.14045312770E+04  0.78526704185E+02 0.  0.
        -13    1    3    3    0    0  0.10578684178E+02 -0.10754721292E+02 -0.60194882959E+03  0.60213782977E+03  0.00000000000E+00 0.  1.
         14    1    3    3    0    0 -0.82757363303E+01  0.75711948065E+02 -0.83061963647E+03  0.83410417058E+03  0.00000000000E+00 0. -1.
         11    1    5    5    0    0 -0.34093983365E+01 -0.23607885956E+02  0.24190515217E+03  0.24307829792E+03  0.00000000000E+00 0. -1.
        -12    1    5    5    0    0 -0.12716248045E+03  0.18229552168E+02  0.11543268209E+04  0.11614529790E+04  0.00000000000E+00 0.  1.
          5    1    4    4  501    0  0.91317909365E+02 -0.39634036310E+02 -0.34170840019E+03  0.35593808530E+03  0.41800000000E+01 0. -1.
         -5    1    4    4    0  501  0.36951021572E+02 -0.19944856675E+02 -0.10181726428E+02  0.43408700235E+02  0.41800000000E+01 0. -1.
</event>
<event>
11    1  0.8479398E-009  0.1326163E+03  0.7561462E-02  0.1116096E+00
         22   -1    0    0    0    0  0.00000000000E+00  0.00000000000E+00  0.83055231810E+02  0.83055231810E+02  0.00000000000E+00 0.  1.
         22   -1    0    0    0    0 -0.00000000000E+00 -0.00000000000E+00 -0.26312694279E+04  0.26312694279E+04  0.00000000000E+00 0. -1.
         24    2    1    2    0    0 -0.60966298858E+00 -0.33990963824E+02 -0.24693959982E+04  0.24710381656E+04  0.83410204937E+02 0.  0.
         25    2    1    2    0    0  0.31624071599E+02 -0.14496312733E+02 -0.23930687015E+02  0.13202399797E+03  0.12508970090E+03 0.  0.
        -24    2    1    2    0    0 -0.31014408611E+02  0.48487276557E+02 -0.54887510831E+02  0.11126249616E+03  0.77806135218E+02 0.  0.
        -11    1    3    3    0    0  0.14471115564E+02  0.15715334299E+02 -0.15687892368E+04  0.15689346877E+04  0.00000000000E+00 0.  1.
         12    1    3    3    0    0 -0.15080778552E+02 -0.49706298123E+02 -0.90060676147E+03  0.90210347786E+03  0.00000000000E+00 0. -1.
         13    1    5    5    0    0 -0.22910743376E+02  0.42989701196E+02 -0.74689567580E+02  0.89171453259E+02  0.00000000000E+00 0. -1.
        -14    1    5    5    0    0 -0.81036652345E+01  0.54975753606E+01  0.19802056749E+02  0.22091042903E+02  0.00000000000E+00 0.  1.
          5    1    4    4  501    0 -0.25904393798E+02  0.35224004285E+02 -0.33545027431E+02  0.55267615846E+02  0.41800000000E+01 0. -1.
         -5    1    4    4    0  501  0.57528465397E+02 -0.49720317018E+02  0.96143404157E+01  0.76756382125E+02  0.41800000000E+01 0. -1.
</event>
<event>
11    1  0.8479398E-009  0.1728988E+03  0.7561462E-02  0.1075536E+00
         22   -1    0    0    0    0  0.00000000000E+00  0.00000000000E+00  0.41384292362E+03  0.41384292362E+03  0.00000000000E+00 0. -1.
         22   -1    0    0    0    0 -0.00000000000E+00 -0.00000000000E+00 -0.46111250146E+03  0.46111250146E+03  0.00000000000E+00 0. -1.
        -24    2    1    2    0    0 -0.78389446011E+02 -0.93654066146E+02 -0.31167004267E+03  0.34428647217E+03  0.80492049707E+02 0.  0.
         25    2    1    2    0    0  0.71463920868E+02  0.83830009729E+02 -0.74075014120E+02  0.18239804312E+03  0.12508947158E+03 0.  0.
         24    2    1    2    0    0  0.69255251430E+01  0.98240564174E+01  0.33847547895E+03  0.34827090979E+03  0.81132618417E+02 0.  0.
        -11    1    5    5    0    0 -0.13271528184E+02  0.17823613625E+02  0.22761310419E+02  0.31810248584E+02  0.00000000000E+00 0.  1.
         12    1    5    5    0    0  0.20197053327E+02 -0.79995572075E+01  0.31571416853E+03  0.31646066121E+03  0.00000000000E+00 0. -1.
         11    1    3    3    0    0 -0.77816071447E+02 -0.10645170471E+03 -0.29603089568E+03  0.32407035904E+03  0.00000000000E+00 0. -1.
        -12    1    3    3    0    0 -0.57337456438E+00  0.12797638567E+02 -0.15639146994E+02  0.20216113127E+02  0.00000000000E+00 0.  1.
          5    1    4    4  501    0 -0.21740861786E+02  0.42843362368E+02 -0.63801592347E+02  0.79977086445E+02  0.41800000000E+01 0.  1.
         -5    1    4    4    0  501  0.93204782654E+02  0.40986647361E+02 -0.10273421773E+02  0.10242095668E+03  0.41800000000E+01 0.  1.
</event>
<event>
11    1  0.8479398E-009  0.2144711E+03  0.7561462E-02  0.1044737E+00
         22   -1    0    0    0    0  0.00000000000E+00  0.00000000000E+00  0.13027534157E+04  0.13027534157E+04  0.00000000000E+00 0. -1.
         22   -1    0    0    0    0 -0.00000000000E+00 -0.00000000000E+00 -0.10271751879E+04  0.10271751879E+04  0.00000000000E+00 0. -1.
        -24    2    1    2    0    0 -0.16260268735E+02 -0.20009799997E+02 -0.89330996463E+03  0.89652734234E+03  0.71370821900E+02 0.  0.
         25    2    1    2    0    0 -0.14132894305E+03  0.95085982774E+02 -0.35071865701E+02  0.21422439484E+03  0.12508733475E+03 0.  0.
         24    2    1    2    0    0  0.15758921179E+03 -0.75076182778E+02  0.12039600581E+04  0.12191768665E+04  0.80010107825E+02 0.  0.
        -11    1    5    5    0    0 -0.31852457375E+01  0.84909825070E+01  0.10378144695E+03  0.10417692309E+03  0.00000000000E+00 0.  1.
         12    1    5    5    0    0  0.16077445753E+03 -0.83567165285E+02  0.11001786112E+04  0.11149999434E+04  0.00000000000E+00 0. -1.
         13    1    3    3    0    0 -0.90841384609E+01 -0.46665707366E+02 -0.50265635015E+03  0.50489960998E+03  0.00000000000E+00 0. -1.
        -14    1    3    3    0    0 -0.71761302737E+01  0.26655907369E+02 -0.39065361448E+03  0.39162773235E+03  0.00000000000E+00 0.  1.
          5    1    4    4  501    0 -0.12042825704E+03  0.90898497750E+02  0.22576489909E+02  0.15261937060E+03  0.41800000000E+01 0. -1.
         -5    1    4    4    0  501 -0.20900686018E+02  0.41874850249E+01 -0.57648355610E+02  0.61605024239E+02  0.41800000000E+01 0. -1.
</event>
<event>
11    1  0.8479398E-009  0.1574626E+03  0.7561462E-02  0.1089488E+00
         22   -1    0    0    0    0  0.00000000000E+00  0.00000000000E+00  0.28352118476E+03  0.28352118476E+03  0.00000000000E+00 0. -1.
         22   -1    0    0    0    0 -0.00000000000E+00 -0.00000000000E+00 -0.27447977598E+04  0.27447977598E+04  0.00000000000E+00 0. -1.
        -24    2    1    2    0    0  0.54094649784E+02  0.71014721131E+02 -0.21412464322E+04  0.21444983813E+04  0.77250904347E+02 0.  0.
         25    2    1    2    0    0 -0.12181268364E+03 -0.12196531088E+03 -0.56947786596E+03  0.60800242883E+03  0.12509215278E+03 0.  0.
         24    2    1    2    0    0  0.67718033858E+02  0.50950589753E+02  0.24944772319E+03  0.27581813435E+03  0.81668732846E+02 0.  0.
        -13    1    5    5    0    0  0.12626087910E+02  0.45187806948E+02  0.48930360753E+02  0.67790384246E+02  0.00000000000E+00 0.  1.
         14    1    5    5    0    0  0.55091945948E+02  0.57627828044E+01  0.20051736244E+03  0.20802775011E+03  0.00000000000E+00 0. -1.
         13    1    3    3    0    0  0.56059925872E+02  0.55196417523E+02 -0.20698343386E+04  0.20713289331E+04  0.00000000000E+00 0. -1.
        -14    1    3    3    0    0 -0.19652760876E+01  0.15818303608E+02 -0.71412093650E+02  0.73169448259E+02  0.00000000000E+00 0.  1.
          5    1    4    4  501    0 -0.85579380055E+02 -0.51255934274E+02 -0.47067284370E+03  0.48114592307E+03  0.41800000000E+01 0.  1.
         -5    1    4    4    0  501 -0.36233303587E+02 -0.70709376610E+02 -0.98805022258E+02  0.12685650576E+03  0.41800000000E+01 0.  1.
</event>
<event>
11    1  0.8479398E-009  0.2979353E+03  0.7561462E-02  0.1001069E+00
         22   -1    0    0    0    0  0.00000000000E+00  0.00000000000E+00  0.13782360822E+03  0.13782360822E+03  0.00000000000E+00 0. -1.
         22   -1    0    0    0    0 -0.00000000000E+00 -0.00000000000E+00 -0.14209561712E+04  0.14209561712E+04  0.00000000000E+00 0.  1.
         24    2    1    2    0    0  0.87667235217E+02  0.70950767266E+02 -0.49482508351E+03  0.51416272063E+03  0.82412890405E+02 0.  0.
         25    2    1    2    0    0 -0.55000553478E+02  0.21581772351E+03 -0.67843375116E+03  0.72492577769E+03  0.12507069120E+03 0.  0.
        -24    2    1    2    0    0 -0.32666681739E+02 -0.28676849078E+03 -0.10987372834E+03  0.31969128112E+03  0.82625659724E+02 0.  0.
        -13    1    3    3    0    0  0.34738928072E+02 -0.15571224418E+02 -0.14719653935E+03  0.15203972293E+03  0.00000000000E+00 0.  1.
         14    1    3    3    0    0  0.52928307144E+02  0.86521991685E+02 -0.34762854417E+03  0.36212299770E+03  0.00000000000E+00 0. -1.
         11    1    5    5    0    0 -0.29514932493E+02 -0.23390889896E+03 -0.12186507250E+03  0.26539706131E+03  0.00000000000E+00 0. -1.
        -12    1    5    5    0    0 -0.31517492457E+01 -0.52859591812E+02  0.11991344163E+02  0.54294219809E+02  0.00000000000E+00 0.  1.
          5    1    4    4  501    0 -0.28881182768E+02 -0.75223697797E+01 -0.67944955810E+02  0.74328313483E+02  0.41800000000E+01 0.  1.
         -5    1    4    4    0  501 -0.26119370710E+02  0.22334009329E+03 -0.61048879535E+03  0.65059746421E+03  0.41800000000E+01 0.  1.
</event>
<event>
11    1  0.8479398E-009  0.1870949E+03  0.7561462E-02  0.1064044E+00
         22   -1    0    0    0    0  0.00000000000E+00  0.00000000000E+00  0.16564371318E+04  0.16564371318E+04  0.00000000000E+00 0. -1.
         22   -1    0    0    0    0 -0.00000000000E+00 -0.00000000000E+00 -0.11336857196E+03  0.11336857196E+03  0.00000000000E+00 0.  1.
        -24    2    1    2    0    0 -0.76552554091E+02  0.32437181667E+02 -0.49204145488E+02  0.12595478680E+03  0.80815197164E+02 0.  0.
         25    2    1    2    0    0  0.75424415070E+02  0.11320230689E+03  0.41087798136E+03  0.45052459373E+03  0.12509232318E+03 0.  0.
         24    2    1    2    0    0  0.11281390205E+01 -0.14563948855E+03  0.11813947240E+04  0.11933263233E+04  0.84392455501E+02 0.  0.
        -11    1    5    5    0    0  0.22955080028E+02 -0.20500990834E+01  0.17121730892E+03  0.17276141201E+03  0.00000000000E+00 0.  1.
         12    1    5    5    0    0 -0.21826941008E+02 -0.14358938947E+03  0.10101774151E+04  0.10205649112E+04  0.00000000000E+00 0. -1.
         13    1    3    3    0    0 -0.38014217171E+01 -0.10805246949E+02  0.15605267476E+02  0.19357906439E+02  0.00000000000E+00 0. -1.
        -14    1    3    3    0    0 -0.72751132374E+02  0.43242428615E+02 -0.64809412964E+02  0.10659688036E+03  0.00000000000E+00 0.  1.
          5    1    4    4  501    0  0.10875550996E+03  0.80899715914E+02  0.27007291050E+03  0.30220750217E+03  0.41800000000E+01 0. -1.
         -5    1    4    4    0  501 -0.33331094890E+02  0.32302590974E+02  0.14080507086E+03  0.14831709156E+03  0.41800000000E+01 0. -1.
</event>
<event>
11    1  0.8479398E-009  0.1561399E+03  0.7561462E-02  0.1090765E+00
         22   -1    0    0    0    0  0.00000000000E+00  0.00000000000E+00  0.30179998887E+03  0.30179998887E+03  0.00000000000E+00 0.  1.
         22   -1    0    0    0    0 -0.00000000000E+00 -0.00000000000E+00 -0.73074664681E+03  0.73074664681E+03  0.00000000000E+00 0. -1.
         24    2    1    2    0    0  0.13354770439E+02  0.45296163034E+02 -0.48020577039E+03  0.48946417061E+03  0.82143168392E+02 0.  0.
         25    2    1    2    0    0 -0.80286768263E+02  0.21704431611E+02 -0.20732486099E+03  0.25603071302E+03  0.12510427856E+03 0.  0.
        -24    2    1    2    0    0  0.66931997824E+02 -0.67000594645E+02  0.25858397344E+03  0.28705175205E+03  0.81018917660E+02 0.  0.
        -11    1    3    3    0    0 -0.12880577796E+01 -0.15885432181E+02 -0.23188400567E+02  0.28137305651E+02  0.00000000000E+00 0.  1.
         12    1    3    3    0    0  0.14642828218E+02  0.61181595215E+02 -0.45701736982E+03  0.46132686495E+03  0.00000000000E+00 0. -1.
         11    1    5    5    0    0 -0.12347117004E+02 -0.88097740060E+01  0.65705820352E+01  0.16529850714E+02  0.00000000000E+00 0. -1.
        -12    1    5    5    0    0  0.79279114828E+02 -0.58190820639E+02  0.25201339141E+03  0.27052190134E+03  0.00000000000E+00 0.  1.
          5    1    4    4  501    0 -0.98094966288E+02  0.73021388203E+01 -0.21064058690E+03  0.23251424235E+03  0.41800000000E+01 0. -1.
         -5    1    4    4    0  501  0.17808198025E+02  0.14402292790E+02  0.33157259116E+01  0.23516470672E+02  0.41800000000E+01 0. -1.
</event>
<event>
11    1  0.8479398E-009  0.1813261E+03  0.7561462E-02  0.1068575E+00
         22   -1    0    0    0    0  0.00000000000E+00  0.00000000000E+00  0.13156713146E+03  0.13156713146E+03  0.00000000000E+00 0. -1.
         22   -1    0    0    0    0 -0.00000000000E+00 -0.00000000000E+00 -0.63125206990E+03  0.63125206990E+03  0.00000000000E+00 0.  1.
         24    2    1    2    0    0  0.31101735289E+02  0.17083108183E+02 -0.36524286319E+03  0.37572842696E+03  0.80686747289E+02 0.  0.
         25    2    1    2    0    0 -0.31465240096E+02  0.11860774764E+03 -0.14787239514E+03  0.22928529062E+03  0.12509052768E+03 0.  0.
        -24    2    1    2    0    0  0.36350480765E+00 -0.13569085583E+03  0.13430319889E+02  0.15780548379E+03  0.79435865518E+02 0.  0.
        -11    1    3    3    0    0  0.32682361596E+02 -0.13205830087E+02 -0.31553582921E+03  0.31749864601E+03  0.00000000000E+00 0.  1.
         12    1    3    3    0    0 -0.15806263072E+01  0.30288938270E+02 -0.49707033985E+02  0.58229780942E+02  0.00000000000E+00 0. -1.
         13    1    5    5    0    0  0.23149648297E+02 -0.10564126312E+03  0.35847002658E+02  0.11393414892E+03  0.00000000000E+00 0. -1.
        -14    1    5    5    0    0 -0.22786143490E+02 -0.30049592707E+02 -0.22416682770E+02  0.43871334871E+02  0.00000000000E+00 0.  1.
          5    1    4    4  501    0  0.52118581291E+01  0.35523954380E+02 -0.13217024616E+03  0.13702394378E+03  0.41800000000E+01 0. -1.
         -5    1    4    4    0  501 -0.36677098225E+02  0.83083793265E+02 -0.15702148974E+02  0.92261346836E+02  0.41800000000E+01 0. -1.
</event>
<event>
11    1  0.8479398E-009  0.1314839E+03  0.7561462E-02  0.1117459E+00
         22   -1    0    0    0    0  0.00000000000E+00  0.00000000000E+00  0.28648785817E+02  0.28648785817E+02  0.00000000000E+00 0. -1.
         22   -1    0    0    0    0 -0.00000000000E+00 -0.00000000000E+00 -0.15988471385E+04  0.15988471385E+04  0.00000000000E+00 0.  1.
         24    2    1    2    0    0 -0.30659779966E+02  0.16172640499E+02 -0.89382284218E+03  0.89803767758E+03  0.79692036784E+02 0.  0.
         25    2    1    2    0    0  0.35406673093E+02  0.25712177825E+02 -0.58666028933E+03  0.60144168757E+03  0.12508820842E+03 0.  0.
        -24    2    1    2    0    0 -0.47468931264E+01 -0.41884818324E+02 -0.89715221149E+02  0.12801655915E+03  0.81009551967E+02 0.  0.
        -13    1    3    3    0    0 -0.27689367023E+02  0.47035204723E+02 -0.64132006904E+03  0.64363844081E+03  0.00000000000E+00 0.  1.
         14    1    3    3    0    0 -0.29704129428E+01 -0.30862564224E+02 -0.25250277314E+03  0.25439923677E+03  0.00000000000E+00 0. -1.
         11    1    5    5    0    0  0.19041564379E+02 -0.54129610577E+02 -0.35273713626E+02  0.67356000388E+02  0.00000000000E+00 0. -1.
        -12    1    5    5    0    0 -0.23788457505E+02  0.12244792253E+02 -0.54441507523E+02  0.60660558761E+02  0.00000000000E+00 0.  1.
          5    1    4    4  501    0  0.75275429894E+02  0.31290431019E+02 -0.26614950705E+03  0.27838554905E+03  0.41800000000E+01 0. -1.
         -5    1    4    4    0  501 -0.39868756801E+02 -0.55782531932E+01 -0.32051078228E+03  0.32305613852E+03  0.41800000000E+01 0. -1.
</event>
<event>
11    1  0.8479398E-009  0.1704523E+03  0.7561462E-02  0.1077639E+00
         22   -1    0    0    0    0  0.00000000000E+00  0.00000000000E+00  0.13746207058E+03  0.13746207058E+03  0.00000000000E+00 0. -1.
         22   -1    0    0    0    0 -0.00000000000E+00 -0.00000000000E+00 -0.88391084377E+03  0.88391084377E+03  0.00000000000E+00 0. -1.
        -24    2    1    2    0    0 -0.27740446874E+02 -0.43151343259E+01 -0.60951156552E+03  0.61515761948E+03  0.78271294369E+02 0.  0.
         25    2    1    2    0    0  0.29795633002E+00  0.11713765668E+03 -0.18668064323E+03  0.25341411799E+03  0.12509089994E+03 0.  0.
         24    2    1    2    0    0  0.27442490544E+02 -0.11282252235E+03  0.49743435553E+02  0.15280117689E+03  0.85975452551E+02 0.  0.
        -11    1    5    5    0    0  0.24278241693E+02 -0.39150482976E+00  0.30017852036E+02  0.38609036981E+02  0.00000000000E+00 0.  1.
         12    1    5    5    0    0  0.31642488509E+01 -0.11243101752E+03  0.19725583517E+02  0.11419213991E+03  0.00000000000E+00 0. -1.
         13    1    3    3    0    0 -0.13485659933E+02 -0.30789561101E+02 -0.51231332199E+03  0.51341484200E+03  0.00000000000E+00 0. -1.
        -14    1    3    3    0    0 -0.14254786941E+02  0.26474426775E+02 -0.97198243532E+02  0.10174277748E+03  0.00000000000E+00 0.  1.
          5    1    4    4  501    0 -0.73911706291E+01  0.10965009768E+03 -0.58219667330E+02  0.12443783745E+03  0.41800000000E+01 0.  1.
         -5    1    4    4    0  501  0.76891269591E+01  0.74875589998E+01 -0.12846097590E+03  0.12897628054E+03  0.41800000000E+01 0.  1.
</event>
<event>
11    1  0.8479398E-009  0.2162318E+03  0.7561462E-02  0.1043604E+00
         22   -1    0    0    0    0  0.00000000000E+00  0.00000000000E+00  0.18370570023E+03  0.18370570023E+03  0.00000000000E+00 0. -1.
         22   -1    0    0    0    0 -0.00000000000E+00 -0.00000000000E+00 -0.12055354910E+04  0.12055354910E+04  0.00000000000E+00 0.  1.
         24    2    1    2    0    0 -0.14048018524E+02  0.22544928759E+02 -0.92435292006E+03  0.92799093321E+03  0.77673873782E+02 0.  0.
         25    2    1    2    0    0  0.16440457017E+03  0.69256020869E+02 -0.14567069917E+03  0.26209228283E+03  0.12508858063E+03 0.  0.
        -24    2    1    2    0    0 -0.15035655164E+03 -0.91800949628E+02  0.48193828420E+02  0.19915797523E+03  0.79415030222E+02 0.  0.
        -11    1    3    3    0    0 -0.16959353347E+02 -0.16313080159E+02 -0.69148343416E+03  0.69188371564E+03  0.00000000000E+00 0.  1.
         12    1    3    3    0    0  0.29113348230E+01  0.38858008918E+02 -0.23286948589E+03  0.23610721757E+03  0.00000000000E+00 0. -1.
         13    1    5    5    0    0 -0.99817365970E+02 -0.26332516404E+02  0.53518623748E+02  0.11628048442E+03  0.00000000000E+00 0. -1.
        -14    1    5    5    0    0 -0.50539185673E+02 -0.65468433225E+02 -0.53247953284E+01  0.82877490808E+02  0.00000000000E+00 0.  1.
          5    1    4    4  501    0 -0.17121798734E+02  0.19029800596E+01  0.29537730298E+01  0.17971491316E+02  0.41800000000E+01 0. -1.
         -5    1    4    4    0  501  0.18152636890E+03  0.67353040810E+02 -0.14862447220E+03  0.24412079152E+03  0.41800000000E+01 0. -1.
</event>
<event>
11    1  0.8479398E-009  0.1874839E+03  0.7561462E-02  0.1063745E+00
         22   -1    0    0    0    0  0.00000000000E+00  0.00000000000E+00  0.30065733213E+03  0.30065733213E+03  0.00000000000E+00 0.  1.
         22   -1    0    0    0    0 -0.00000000000E+00 -0.00000000000E+00 -0.53926101088E+03  0.53926101088E+03  0.00000000000E+00 0. -1.
        -24    2    1    2    0    0 -0.68268278064E+01  0.41379765541E+01 -0.42547322688E+03  0.43249579886E+03  0.77210237784E+02 0.  0.
         25    2    1    2    0    0 -0.13236595295E+03  0.24491853363E+02  0.39471226198E+02  0.18795248634E+03  0.12509021960E+03 0.  0.
         24    2    1    2    0    0  0.13919278076E+03 -0.28629829917E+02  0.14739832193E+03  0.21947005780E+03  0.79035078201E+02 0.  0.
        -13    1    5    5    0    0  0.92347206206E+02  0.39255013999E+01  0.13060362160E+03  0.16000225633E+03  0.00000000000E+00 0.  1.
         14    1    5    5    0    0  0.46845574555E+02 -0.32555331317E+02  0.16794700326E+02  0.59467801469E+02  0.00000000000E+00 0. -1.
         11    1    3    3    0    0 -0.80313664610E+01 -0.51950813990E+01 -0.42252650948E+03  0.42263476304E+03  0.00000000000E+00 0. -1.
        -12    1    3    3    0    0  0.12045386546E+01  0.93330579531E+01 -0.29467174000E+01  0.98610358260E+01  0.00000000000E+00 0.  1.
          5    1    4    4  501    0 -0.11553418746E+03  0.35378663078E+01 -0.24684731333E+02  0.11826864897E+03  0.41800000000E+01 0. -1.
         -5    1    4    4    0  501 -0.16831765499E+02  0.20953987055E+02  0.64155957531E+02  0.69683837365E+02  0.41800000000E+01 0. -1.
</event>
<event>
11    1  0.8479398E-009  0.1565012E+03  0.7561462E-02  0.1090415E+00
         22   -1    0    0    0    0  0.00000000000E+00  0.00000000000E+00  0.21182692972E+03  0.21182692972E+03  0.00000000000E+00 0. -1.
         22   -1    0    0    0    0 -0.00000000000E+00 -0.00000000000E+00 -0.52238709153E+03  0.52238709153E+03  0.00000000000E+00 0.  1.
        -24    2    1    2    0    0  0.76142098804E+01 -0.49948158773E+02 -0.18201982055E+03  0.20509901247E+03  0.79884886456E+02 0.  0.
         25    2    1    2    0    0 -0.82314504616E+02 -0.97409992578E+01 -0.28894827827E+03  0.32560201635E+03  0.12511994567E+03 0.  0.
         24    2    1    2    0    0  0.74700294735E+02  0.59689158031E+02  0.16040793700E+03  0.20351299242E+03  0.80894389245E+02 0.  0.
        -13    1    5    5    0    0  0.33888691340E+02  0.13842699656E+01  0.73302897910E+01  0.34700039661E+02  0.00000000000E+00 0.  1.
         14    1    5    5    0    0  0.40811603395E+02  0.58304888065E+02  0.15307764721E+03  0.16881295276E+03  0.00000000000E+00 0. -1.
         13    1    3    3    0    0  0.19752652300E+02 -0.39342539973E+02 -0.32517278220E+02  0.54730029300E+02  0.00000000000E+00 0. -1.
        -14    1    3    3    0    0 -0.12138442420E+02 -0.10605618800E+02 -0.14950254233E+03  0.15036898317E+03  0.00000000000E+00 0.  1.
          5    1    4    4  501    0 -0.86799994331E+02 -0.39172359290E+02 -0.27752990273E+03  0.29344340520E+03  0.41800000000E+01 0. -1.
         -5    1    4    4    0  501  0.44854897148E+01  0.29431360033E+02 -0.11418375539E+02  0.32158611153E+02  0.41800000000E+01 0. -1.
</event>
<event>
11    1  0.8479398E-009  0.1816508E+03  0.7561462E-02  0.1068315E+00
         22   -1    0    0    0    0  0.00000000000E+00  0.00000000000E+00  0.11404151968E+04  0.11404151968E+04  0.00000000000E+00 0.  1.
         22   -1    0    0    0    0 -0.00000000000E+00 -0.00000000000E+00 -0.17388844466E+04  0.17388844466E+04  0.00000000000E+00 0. -1.
         24    2    1    2    0    0 -0.54094368856E+02 -0.38243220466E+02 -0.15230698815E+04  0.15266554026E+04  0.80908032414E+02 0.  0.
         25    2    1    2    0    0  0.15619600810E+03  0.11874893277E+03 -0.14367290874E+03  0.27347930955E+03  0.12510206260E+03 0.  0.
        -24    2    1    2    0    0 -0.10210163924E+03 -0.80505712303E+02  0.10682735404E+04  0.10791649312E+04  0.80515073444E+02 0.  0.
        -11    1    3    3    0    0  0.64903014465E+01 -0.33281031230E+01 -0.12533065407E+02  0.14500965891E+02  0.00000000000E+00 0.  1.
         12    1    3    3    0    0 -0.60584670303E+02 -0.34915117343E+02 -0.15105368161E+04  0.15121544367E+04  0.00000000000E+00 0. -1.
         11    1    5    5    0    0  0.31326849152E+01  0.12184089795E+02  0.10033732190E+03  0.10112291493E+03  0.00000000000E+00 0. -1.
        -12    1    5    5    0    0 -0.10523432416E+03 -0.92689802097E+02  0.96793621853E+03  0.97804201625E+03  0.00000000000E+00 0.  1.
          5    1    4    4  501    0  0.31938368683E+02  0.23597627026E+02  0.21954928502E+02  0.45567517827E+02  0.41800000000E+01 0. -1.
         -5    1    4    4    0  501  0.12425763942E+03  0.95151305743E+02 -0.16562783724E+03  0.22791179172E+03  0.41800000000E+01 0. -1.
</event>
<event>
11    1  0.8479398E-009  0.1303066E+03  0.7561462E-02  0.1118893E+00
         22   -1    0    0    0    0  0.00000000000E+00  0.00000000000E+00  0.13452386708E+04  0.13452386708E+04  0.00000000000E+00 0. -1.
         22   -1    0    0    0    0 -0.00000000000E+00 -0.00000000000E+00 -0.16369385652E+03  0.16369385652E+03  0.00000000000E+00 0.  1.
         24    2    1    2    0    0 -0.41646703611E+02  0.99765121802E+01 -0.10023874119E+03  0.13518502945E+03  0.79957540210E+02 0.  0.
         25    2    1    2    0    0  0.73811970450E+01  0.18329639683E+02  0.46142011427E+02  0.13478527710E+03  0.12509007932E+03 0.  0.
        -24    2    1    2    0    0  0.34265506566E+02 -0.28306151863E+02  0.12356415441E+04  0.12389622208E+04  0.79006303102E+02 0.  0.
        -11    1    3    3    0    0 -0.29153022101E+02 -0.32610701474E+02 -0.33769811997E+02  0.55260806641E+02  0.00000000000E+00 0.  1.
         12    1    3    3    0    0 -0.12493681510E+02  0.42587213654E+02 -0.66468929189E+02  0.79924222812E+02  0.00000000000E+00 0. -1.
         11    1    5    5    0    0  0.15236813708E+02  0.26299101396E+02  0.30008689374E+03  0.30162219252E+03  0.00000000000E+00 0. -1.
        -12    1    5    5    0    0  0.19028692858E+02 -0.54605253258E+02  0.93555465032E+03  0.93734002825E+03  0.00000000000E+00 0.  1.
          5    1    4    4  501    0  0.29093079397E+02 -0.44829966923E+01  0.81795239546E+02  0.87031248069E+02  0.41800000000E+01 0.  1.
         -5    1    4    4    0  501 -0.21711882352E+02  0.22812636375E+02 -0.35653228119E+02  0.47754029034E+02  0.41800000000E+01 0.  1.
</event>
<event>
11    1  0.8479398E-009  0.1852913E+03  0.7561462E-02  0.1065441E+00
         22   -1    0    0    0    0  0.00000000000E+00  0.00000000000E+00  0.35665467630E+03  0.35665467630E+03  0.00000000000E+00 0. -1.
         22   -1    0    0    0    0 -0.00000000000E+00 -0.00000000000E+00 -0.78919436886E+03  0.78919436886E+03  0.00000000000E+00 0.  1.
        -24    2    1    2    0    0  0.27656768074E+02 -0.13134802234E+03 -0.51965937259E+03  0.54251895813E+03  0.79143898134E+02 0.  0.
         25    2    1    2    0    0  0.74897048309E+02  0.15793893940E+03 -0.19576999736E+03  0.29072065337E+03  0.12505330864E+03 0.  0.
         24    2    1    2    0    0 -0.10255381638E+03 -0.26590917066E+02  0.28288967740E+03  0.31260943367E+03  0.80459470022E+02 0.  0.
        -13    1    5    5    0    0  0.81783462520E+01  0.12760327509E+02  0.25554659525E+02  0.29711141496E+02  0.00000000000E+00 0.  1.
         14    1    5    5    0    0 -0.11073216264E+03 -0.39351244575E+02  0.25733501787E+03  0.28289829217E+03  0.00000000000E+00 0. -1.
         11    1    3    3    0    0  0.31124066455E+02 -0.18857880267E+02 -0.20805029719E+03  0.21120902756E+03  0.00000000000E+00 0. -1.
        -12    1    3    3    0    0 -0.34672983803E+01 -0.11249014207E+03 -0.31160907540E+03  0.33130993057E+03  0.00000000000E+00 0.  1.
          5    1    4    4  501    0  0.82416090782E+02  0.86017977712E+02 -0.18111142336E+03  0.21681864445E+03  0.41800000000E+01 0. -1.
         -5    1    4    4    0  501 -0.75190424729E+01  0.71920961691E+02 -0.14658574001E+02  0.73902008917E+02  0.41800000000E+01 0. -1.
</event>
<event>
11    1  0.8479398E-009  0.1320176E+03  0.7561462E-02  0.1116814E+00
         22   -1    0    0    0    0  0.00000000000E+00  0.00000000000E+00  0.17479072654E+03  0.17479072654E+03  0.00000000000E+00 0.  1.
         22   -1    0    0    0    0 -0.00000000000E+00 -0.00000000000E+00 -0.61447686724E+03  0.61447686724E+03  0.00000000000E+00 0. -1.
        -24    2    1    2    0    0 -0.11519850494E+02  0.24545613859E+02 -0.34749513016E+03  0.35771712109E+03  0.80457933859E+02 0.  0.
         25    2    1    2    0    0  0.53170644614E+02 -0.23449963567E+02 -0.22932346114E+03  0.26760162730E+03  0.12507742747E+03 0.  0.
         24    2    1    2    0    0 -0.41650794120E+02 -0.10956502920E+01  0.13713245060E+03  0.16394884539E+03  0.79611090911E+02 0.  0.
        -13    1    5    5    0    0 -0.47117938086E+02 -0.26880223679E+02  0.12209479250E+03  0.13360308705E+03  0.00000000000E+00 0.  1.
         14    1    5    5    0    0  0.54671439655E+01  0.25784573387E+02  0.15037658105E+02  0.30345758339E+02  0.00000000000E+00 0. -1.
         13    1    3    3    0    0  0.24495169454E+02  0.27547018250E+01 -0.25387579801E+03  0.25506964250E+03  0.00000000000E+00 0. -1.
        -14    1    3    3    0    0 -0.36015019948E+02  0.21790912034E+02 -0.93619332152E+02  0.10264747859E+03  0.00000000000E+00 0.  1.
          5    1    4    4  501    0 -0.16663264302E+02  0.17865636332E+02 -0.50926311201E+00  0.24790665333E+02  0.41800000000E+01 0. -1.
         -5    1    4    4    0  501  0.69833908915E+02 -0.41315599899E+02 -0.22881419803E+03  0.24281096197E+03  0.41800000000E+01 0. -1.
</event>
<event>
11    1  0.8479398E-009  0.2035882E+03  0.7561462E-02  0.1052015E+00
         22   -1    0    0    0    0  0.00000000000E+00  0.00000000000E+00  0.62477859292E+03  0.62477859292E+03  0.00000000000E+00 0.  1.
         22   -1    0    0    0    0 -0.00000000000E+00 -0.00000000000E+00 -0.30973569155E+03  0.30973569155E+03  0.00000000000E+00 0. -1.
         24    2    1    2    0    0 -0.15082693331E+03 -0.41864274776E+02 -0.20727718880E+03  0.27569142615E+03  0.92415086111E+02 0.  0.
         25    2    1    2    0    0  0.22729867236E+03 -0.33494978249E+02  0.39029442126E+03  0.46985726000E+03  0.12509799953E+03 0.  0.
        -24    2    1    2    0    0 -0.76471739043E+02  0.75359253025E+02  0.13202566891E+03  0.18896559831E+03  0.82160064551E+02 0.  0.
        -13    1    3    3    0    0  0.11632686664E+02 -0.10428579143E+02 -0.11785336449E+02  0.19569589090E+02  0.00000000000E+00 0.  1.
         14    1    3    3    0    0 -0.16245961998E+03 -0.31435695634E+02 -0.19549185235E+03  0.25612183706E+03  0.00000000000E+00 0. -1.
         13    1    5    5    0    0 -0.20477510149E+02  0.50474037630E+01 -0.80141231431E+01  0.22561712621E+02  0.00000000000E+00 0. -1.
        -14    1    5    5    0    0 -0.55994228894E+02  0.70311849262E+02  0.14003979205E+03  0.16640388569E+03  0.00000000000E+00 0.  1.
          5    1    4    4  501    0  0.21111253199E+03 -0.68494075452E+02  0.31801490459E+03  0.38782843046E+03  0.41800000000E+01 0.  1.
         -5    1    4    4    0  501  0.16186140365E+02  0.34999097203E+02  0.72279516672E+02  0.82028829537E+02  0.41800000000E+01 0.  1.
</event>
<event>
11    1  0.8479398E-009  0.1471865E+03  0.7561462E-02  0.1099789E+00
         22   -1    0    0    0    0  0.00000000000E+00  0.00000000000E+00  0.80810513581E+03  0.80810513581E+03  0.00000000000E+00 0.  1.
         22   -1    0    0    0    0 -0.00000000000E+00 -0.00000000000E+00 -0.28709034949E+03  0.28709034949E+03  0.00000000000E+00 0. -1.
         24    2    1    2    0    0  0.68465687568E+02  0.67022416893E+02 -0.24660211150E+03  0.27660587153E+03  0.80738169576E+02 0.  0.
         25    2    1    2    0    0 -0.61147597897E+02  0.30164120371E+02  0.27172178718E+03  0.30680338880E+03  0.12508671738E+03 0.  0.
        -24    2    1    2    0    0 -0.73180896706E+01 -0.97186537265E+02  0.49589511064E+03  0.51178622497E+03  0.80711844573E+02 0.  0.
        -11    1    3    3    0    0  0.39122960032E+01 -0.13696581266E+02 -0.74503490809E+01  0.16075139185E+02  0.00000000000E+00 0.  1.
         12    1    3    3    0    0  0.64553391565E+02  0.80718998159E+02 -0.23915176242E+03  0.26053073234E+03  0.00000000000E+00 0. -1.
         11    1    5    5    0    0 -0.17260850108E+02 -0.17279481344E+02  0.28624319955E+02  0.37628036287E+02  0.00000000000E+00 0. -1.
        -12    1    5    5    0    0  0.99427604374E+01 -0.79907055921E+02  0.46727079068E+03  0.47415818868E+03  0.00000000000E+00 0.  1.
          5    1    4    4  501    0 -0.23181492256E+02  0.14005677451E+02 -0.42504745793E+01  0.27732282961E+02  0.41800000000E+01 0. -1.
         -5    1    4    4    0  501 -0.37966105642E+02  0.16158442920E+02  0.27597226176E+03  0.27907110584E+03  0.41800000000E+01 0. -1.
</event>
<event>
11    1  0.8479398E-009  0.1344535E+03  0.7561462E-02  0.1113915E+00
         22   -1    0    0    0    0  0.00000000000E+00  0.00000000000E+00  0.42094831082E+03  0.42094831082E+03  0.00000000000E+00 0. -1.
         22   -1    0    0    0    0 -0.00000000000E+00 -0.00000000000E+00 -0.19838821948E+04  0.19838821948E+04  0.00000000000E+00 0.  1.
        -24    2    1    2    0    0 -0.43066777320E+02 -0.26293439216E+02 -0.18828000412E+04  0.18852478845E+04  0.81715963299E+02 0.  0.
         25    2    1    2    0    0  0.10184492684E+02  0.21096706194E+01 -0.52727751013E+02  0.13614577279E+03  0.12508909273E+03 0.  0.
         24    2    1    2    0    0  0.32882284636E+02  0.24183768597E+02  0.37259390824E+03  0.38343684832E+03  0.80817676810E+02 0.  0.
        -11    1    5    5    0    0 -0.16122819199E+02  0.25182939540E+02  0.60159794495E+02  0.67181296627E+02  0.00000000000E+00 0.  1.
         12    1    5    5    0    0  0.49005103835E+02 -0.99917094359E+00  0.31243411374E+03  0.31625555169E+03  0.00000000000E+00 0. -1.
         11    1    3    3    0    0 -0.51723289735E+02  0.30137305094E+01 -0.64738057664E+03  0.64945053105E+03  0.00000000000E+00 0. -1.
        -12    1    3    3    0    0  0.86565124151E+01 -0.29307169726E+02 -0.12354194645E+04  0.12357973534E+04  0.00000000000E+00 0.  1.
          5    1    4    4  501    0  0.23480220809E+02  0.48880605114E+02  0.11389193127E+02  0.55568160358E+02  0.41800000000E+01 0. -1.
         -5    1    4    4    0  501 -0.13295728125E+02 -0.46770934494E+02 -0.64116944140E+02  0.80577612435E+02  0.41800000000E+01 0. -1.
</event>
<event>
11    1  0.8479398E-009  0.1562844E+03  0.7561462E-02  0.1090625E+00
         22   -1    0    0    0    0  0.00000000000E+00  0.00000000000E+00  0.17137322445E+04  0.17137322445E+04  0.00000000000E+00 0.  1.
         22   -1    0    0    0    0 -0.00000000000E+00 -0.00000000000E+00 -0.10457169639E+03  0.10457169639E+03  0.00000000000E+00 0.  1.
         24    2    1    2    0    0  0.59696043714E+02  0.20124418150E+02 -0.49661211077E+02  0.11305611648E+03  0.79667055588E+02 0.  0.
         25    2    1    2    0    0  0.51081974781E+01 -0.92618040302E+02  0.29253286763E+03  0.33140417416E+03  0.12509617473E+03 0.  0.
        -24    2    1    2    0    0 -0.64804241193E+02  0.72493622152E+02  0.13662888915E+04  0.13738436502E+04  0.10604774975E+03 0.  0.
        -11    1    3    3    0    0  0.35028496862E+02  0.33559130842E+02 -0.64957751564E+02  0.81072315518E+02  0.00000000000E+00 0.  1.
         12    1    3    3    0    0  0.24667546853E+02 -0.13434712692E+02  0.15296540487E+02  0.31983800958E+02  0.00000000000E+00 0. -1.
         13    1    5    5    0    0  0.22412781096E+02 -0.88779106080E+01  0.19031763156E+03  0.19183834584E+03  0.00000000000E+00 0. -1.
        -14    1    5    5    0    0 -0.87217022289E+02  0.81371532760E+02  0.11759712600E+04  0.11820053044E+04  0.00000000000E+00 0.  1.
          5    1    4    4  501    0 -0.35981882911E+02  0.61019289530E+01  0.28448608872E+02  0.46462083267E+02  0.41800000000E+01 0.  1.
         -5    1    4    4    0  501  0.41090080389E+02 -0.98719969255E+02  0.26408425876E+03  0.28494209089E+03  0.41800000000E+01 0.  1.
</event>
<event>
11    1  0.8479398E-009  0.1707845E+03  0.7561462E-02  0.1077351E+00
         22   -1    0    0    0    0  0.00000000000E+00  0.00000000000E+00  0.18711139870E+03  0.18711139870E+03  0.00000000000E+00 0.  1.
         22   -1    0    0    0    0 -0.00000000000E+00 -0.00000000000E+00 -0.28133322111E+04  0.28133322111E+04  0.00000000000E+00 0. -1.
         24    2    1    2    0    0  0.89208757112E+02  0.75300998224E+02 -0.27181983573E+04  0.27218733495E+04  0.79773292627E+02 0.  0.
         25    2    1    2    0    0 -0.70472046296E+02 -0.64710805260E+02  0.41184726045E+01  0.15754109453E+03  0.12509371296E+03 0.  0.
        -24    2    1    2    0    0 -0.18736710816E+02 -0.10590192964E+02  0.87859072336E+02  0.12102916577E+03  0.80409115503E+02 0.  0.
        -11    1    3    3    0    0  0.73816469638E+01 -0.16282798947E+02 -0.44622699014E+03  0.44658498070E+03  0.00000000000E+00 0.  1.
         12    1    3    3    0    0  0.81827110149E+02  0.91583797171E+02 -0.22719713672E+04  0.22752883688E+04  0.00000000000E+00 0. -1.
         11    1    5    5    0    0  0.37906364246E+01  0.33506724314E+02  0.35255903490E+02  0.48785737974E+02  0.00000000000E+00 0. -1.
        -12    1    5    5    0    0 -0.22527347241E+02 -0.44096917277E+02  0.52603168845E+02  0.72243427796E+02  0.00000000000E+00 0.  1.
          5    1    4    4  501    0 -0.54698715873E+02 -0.96157299596E+02 -0.22822224742E+02  0.11303319037E+03  0.41800000000E+01 0.  1.
         -5    1    4    4    0  501 -0.15773330423E+02  0.31446494336E+02  0.26940697347E+02  0.44507904154E+02  0.41800000000E+01 0.  1.
</event>
<event>
11    1  0.8479398E-009  0.1430618E+03  0.7561462E-02  0.1104187E+00
         22   -1    0    0    0    0  0.00000000000E+00  0.00000000000E+00  0.34824865060E+03  0.34824865060E+03  0.00000000000E+00 0.  1.
         22   -1    0    0    0    0 -0.00000000000E+00 -0.00000000000E+00 -0.29906117492E+04  0.29906117492E+04  0.00000000000E+00 0. -1.
        -24    2    1    2    0    0 -0.46997182175E+02  0.53038192138E+02 -0.28677627049E+04  0.28698583710E+04  0.83680063012E+02 0.  0.
         25    2    1    2    0    0  0.11367656067E+02 -0.18003519754E+02 -0.79511338312E+02  0.14974282233E+03  0.12509000596E+03 0.  0.
         24    2    1    2    0    0  0.35629526108E+02 -0.35034672384E+02  0.30491094461E+03  0.31925920649E+03  0.80367066532E+02 0.  0.
        -13    1    5    5    0    0  0.20540383866E+02 -0.43210548839E+02  0.29615139465E+03  0.29999117896E+03  0.00000000000E+00 0.  1.
         14    1    5    5    0    0  0.15089142242E+02  0.81758764551E+01  0.87595499687E+01  0.19268027534E+02  0.00000000000E+00 0. -1.
         11    1    3    3    0    0 -0.23547199736E+01  0.49166878734E+02 -0.22209232149E+04  0.22214686253E+04  0.00000000000E+00 0. -1.
        -12    1    3    3    0    0 -0.44642462202E+02  0.38713134036E+01 -0.64683948996E+03  0.64838974565E+03  0.00000000000E+00 0.  1.
          5    1    4    4  501    0  0.66256561551E+02 -0.25443053375E+02 -0.49224694176E+02  0.86474411420E+02  0.41800000000E+01 0.  1.
         -5    1    4    4    0  501 -0.54888905484E+02  0.74395336207E+01 -0.30286644135E+02  0.63268410907E+02  0.41800000000E+01 0.  1.
</event>
<event>
11    1  0.8479398E-009  0.1708304E+03  0.7561462E-02  0.1077311E+00
         22   -1    0    0    0    0  0.00000000000E+00  0.00000000000E+00  0.19817267276E+03  0.19817267276E+03  0.00000000000E+00 0. -1.
         22   -1    0    0    0    0 -0.00000000000E+00 -0.00000000000E+00 -0.13206803492E+04  0.13206803492E+04  0.00000000000E+00 0.  1.
         24    2    1    2    0    0 -0.19816223901E+02 -0.11409884476E+03 -0.12238612761E+04  0.12319692443E+04  0.80626091464E+02 0.  0.
         25    2    1    2    0    0  0.27215698437E+02  0.12862839015E+03  0.40242714750E+02  0.18588162825E+03  0.12508615686E+03 0.  0.
        -24    2    1    2    0    0 -0.73994745364E+01 -0.14529545390E+02  0.61110884928E+02  0.10100214940E+03  0.78746644465E+02 0.  0.
        -13    1    3    3    0    0 -0.30282082834E+01 -0.12047906273E+03 -0.11297255909E+04  0.11361356809E+04  0.00000000000E+00 0.  1.
         14    1    3    3    0    0 -0.16788015617E+02  0.63802179705E+01 -0.94135685160E+02  0.95833563381E+02  0.00000000000E+00 0. -1.
         13    1    5    5    0    0 -0.19282799945E+02 -0.37388233776E+02  0.92180491549E+01  0.43065982269E+02  0.00000000000E+00 0. -1.
        -14    1    5    5    0    0  0.11883325409E+02  0.22858688385E+02  0.51892835773E+02  0.57936167133E+02  0.00000000000E+00 0.  1.
          5    1    4    4  501    0  0.10766703293E+02  0.11648400870E+02 -0.39852530471E+02  0.43096446808E+02  0.41800000000E+01 0. -1.
         -5    1    4    4    0  501  0.16448995144E+02  0.11697998928E+03  0.80095245220E+02  0.14278518145E+03  0.41800000000E+01 0. -1.
</event>
<event>
11    1  0.8479398E-009  0.1377739E+03  0.7561462E-02  0.1110070E+00
         22   -1    0    0    0    0  0.00000000000E+00  0.00000000000E+00  0.21555035374E+02  0.21555035374E+02  0.00000000000E+00 0. -1.
         22   -1    0    0    0    0 -0.00000000000E+00 -0.00000000000E+00 -0.18576082187E+04  0.18576082187E+04  0.00000000000E+00 0.  1.
         24    2    1    2    0    0 -0.55127154191E+02  0.30575530909E+02 -0.10667774953E+04  0.10716473728E+04  0.80249616895E+02 0.  0.
         25    2    1    2    0    0 -0.25632652933E+02 -0.19251342734E+02 -0.44978675190E+03  0.46795712647E+03  0.12509237760E+03 0.  0.
        -24    2    1    2    0    0  0.80759807124E+02 -0.11324188175E+02 -0.31948893609E+03  0.33955875473E+03  0.81096140155E+02 0.  0.
        -11    1    3    3    0    0 -0.73805735593E+01 -0.18266675165E+01 -0.72450819946E+03  0.72454809410E+03  0.00000000000E+00 0.  1.
         12    1    3    3    0    0 -0.47746580632E+02  0.32402198426E+02 -0.34226929583E+03  0.34709927873E+03  0.00000000000E+00 0. -1.
         11    1    5    5    0    0  0.44962795491E+02 -0.96839839775E+01 -0.28861993978E+03  0.29226170150E+03  0.00000000000E+00 0. -1.
        -12    1    5    5    0    0  0.35797011632E+02 -0.16402041976E+01 -0.30868996311E+02  0.47297053237E+02  0.00000000000E+00 0.  1.
          5    1    4    4  501    0 -0.36127169181E+02 -0.60965050821E+02 -0.37432378146E+03  0.38099563717E+03  0.41800000000E+01 0.  1.
         -5    1    4    4    0  501  0.10494516248E+02  0.41713708087E+02 -0.75462970447E+02  0.86961489306E+02  0.41800000000E+01 0.  1.
</event>
<event>
11    1  0.8479398E-009  0.1948055E+03  0.7561462E-02  0.1058259E+00
         22   -1    0    0    0    0  0.00000000000E+00  0.00000000000E+00  0.88299770966E+03  0.88299770966E+03  0.00000000000E+00 0. -1.
         22   -1    0    0    0    0 -0.00000000000E+00 -0.00000000000E+00 -0.81581881360E+03  0.81581881360E+03  0.00000000000E+00 0. -1.
        -24    2    1    2    0    0 -0.29730954018E+02  0.32390786392E+02 -0.76870282304E+03  0.77404846970E+03  0.79460119727E+02 0.  0.
         25    2    1    2    0    0 -0.12826777035E+02 -0.16867252811E+03  0.31405653921E+03  0.37801225421E+03  0.12508719584E+03 0.  0.
         24    2    1    2    0    0  0.42557731054E+02  0.13628174172E+03  0.52182517989E+03  0.54675579936E+03  0.79098117298E+02 0.  0.
        -11    1    5    5    0    0  0.19558486966E+02  0.12399542731E+03  0.32826998237E+03  0.35145210446E+03  0.00000000000E+00 0.  1.
         12    1    5    5    0    0  0.22999244088E+02  0.12286314407E+02  0.19355519752E+03  0.19530369489E+03  0.00000000000E+00 0. -1.
         11    1    3    3    0    0 -0.24124516401E+02  0.57830932224E+02 -0.45996285869E+03  0.46421141777E+03  0.00000000000E+00 0. -1.
        -12    1    3    3    0    0 -0.56064376174E+01 -0.25440145832E+02 -0.30873996435E+03  0.30983705193E+03  0.00000000000E+00 0.  1.
          5    1    4    4  501    0 -0.48285830262E+02 -0.11498897667E+03  0.27660828339E+03  0.30345279864E+03  0.41800000000E+01 0. -1.
         -5    1    4    4    0  501  0.35459053227E+02 -0.53683551439E+02  0.37448255817E+02  0.74559455568E+02  0.41800000000E+01 0. -1.
</event>
<event>
11    1  0.8479398E-009  0.1661539E+03  0.7561462E-02  0.1081428E+00
         22   -1    0    0    0    0  0.00000000000E+00  0.00000000000E+00  0.39661566503E+03  0.39661566503E+03  0.00000000000E+00 0.  1.
         22   -1    0    0    0    0 -0.00000000000E+00 -0.00000000000E+00 -0.74843376384E+03  0.74843376384E+03  0.00000000000E+00 0.  1.
        -24    2    1    2    0    0 -0.80551753905E+02  0.50997102296E+02 -0.32188441454E+03  0.34546755303E+03  0.81541182046E+02 0.  0.
         25    2    1    2    0    0  0.15392912688E+03  0.63843225514E+01 -0.37992893876E+03  0.42863515277E+03  0.12508860859E+03 0.  0.
         24    2    1    2    0    0 -0.73377372977E+02 -0.57381424848E+02  0.34999525449E+03  0.37094672309E+03  0.80174350126E+02 0.  0.
        -11    1    5    5    0    0 -0.25317854517E+01 -0.49531006007E+02  0.17764948696E+03  0.18444259462E+03  0.00000000000E+00 0.  1.
         12    1    5    5    0    0 -0.70845587525E+02 -0.78504188404E+01  0.17234576754E+03  0.18650412847E+03  0.00000000000E+00 0. -1.
         13    1    3    3    0    0 -0.14921367467E+02  0.36854910880E+02 -0.21924281853E+03  0.22281908613E+03  0.00000000000E+00 0. -1.
        -14    1    3    3    0    0 -0.65630386439E+02  0.14142191416E+02 -0.10264159601E+03  0.12264846690E+03  0.00000000000E+00 0.  1.
          5    1    4    4  501    0  0.86142917184E+02  0.20414725265E+02 -0.75558445599E+02  0.11646421893E+03  0.41800000000E+01 0. -1.
         -5    1    4    4    0  501  0.67786209697E+02 -0.14030402714E+02 -0.30437049316E+03  0.31217093384E+03  0.41800000000E+01 0. -1.
</event>
<event>
11    1  0.8479398E-009  0.1637120E+03  0.7561462E-02  0.1083637E+00
         22   -1    0    0    0    0  0.00000000000E+00  0.00000000000E+00  0.93627333782E+02  0.93627333782E+02  0.00000000000E+00 0. -1.
         22   -1    0    0    0    0 -0.00000000000E+00 -0.00000000000E+00 -0.16519385686E+04  0.16519385686E+04  0.00000000000E+00 0. -1.
        -24    2    1    2    0    0 -0.36995464745E+02 -0.13299281529E+02 -0.12872025114E+04  0.12902915029E+04  0.80101945957E+02 0.  0.
         25    2    1    2    0    0  0.13419883624E+03  0.32076372651E+02 -0.27269267266E+03  0.33022422043E+03  0.12509404744E+03 0.  0.
         24    2    1    2    0    0 -0.97203371494E+02 -0.18777091121E+02  0.15839492693E+01  0.12505017905E+03  0.76380388872E+02 0.  0.
        -13    1    5    5    0    0  0.69167766629E+00 -0.26265294610E+02  0.52797210192E+01  0.26799618896E+02  0.00000000000E+00 0.  1.
         14    1    5    5    0    0 -0.97895049160E+02  0.74882034888E+01 -0.36957717499E+01  0.98250560153E+02  0.00000000000E+00 0. -1.
         11    1    3    3    0    0 -0.32931412891E+02 -0.21231620071E+02 -0.12724674608E+04  0.12730705787E+04  0.00000000000E+00 0. -1.
        -12    1    3    3    0    0 -0.40640518538E+01  0.79323385419E+01 -0.14735050606E+02  0.17220924150E+02  0.00000000000E+00 0.  1.
          5    1    4    4  501    0  0.86090929023E+01  0.45634610258E+02 -0.26874934313E+02  0.53817921070E+02  0.41800000000E+01 0.  1.
         -5    1    4    4    0  501  0.12558974334E+03 -0.13558237607E+02 -0.24581773835E+03  0.27640629936E+03  0.41800000000E+01 0.  1.
</event>
<event>
11    1  0.8479398E-009  0.1792655E+03  0.7561462E-02  0.1070239E+00
         22   -1    0    0    0    0  0.00000000000E+00  0.00000000000E+00  0.17296798571E+04  0.17296798571E+04  0.00000000000E+00 0.  1.
         22   -1    0    0    0    0 -0.00000000000E+00 -0.00000000000E+00 -0.16668077869E+04  0.16668077869E+04  0.00000000000E+00 0. -1.
        -24    2    1    2    0    0  0.87011424328E+02  0.62105628844E+02 -0.16451112046E+04  0.16504917922E+04  0.79398889423E+02 0.  0.
         25    2    1    2    0    0 -0.94119720184E+01 -0.16168649183E+03  0.74710041451E+03  0.77461617688E+03  0.12506032652E+03 0.  0.
         24    2    1    2    0    0 -0.77599452310E+02  0.99580862990E+02  0.96088286029E+03  0.97137967483E+03  0.65913414341E+02 0.  0.
        -13    1    5    5    0    0 -0.85566569237E+02  0.73995850074E+02  0.83856857166E+03  0.84616444795E+03  0.00000000000E+00 0.  1.
         14    1    5    5    0    0  0.79671169272E+01  0.25585012916E+02  0.12231428863E+03  0.12521522687E+03  0.00000000000E+00 0. -1.
         11    1    3    3    0    0  0.48411649722E+00  0.17960362644E+02 -0.73347190001E+03  0.73369192247E+03  0.00000000000E+00 0. -1.
        -12    1    3    3    0    0  0.86527307831E+02  0.44145266200E+02 -0.91163930460E+03  0.91679986977E+03  0.00000000000E+00 0.  1.
          5    1    4    4  501    0 -0.25457053364E+01 -0.19543080441E+02  0.38508493528E+03  0.38561158228E+03  0.41800000000E+01 0. -1.
         -5    1    4    4    0  501 -0.68662666819E+01 -0.14214341139E+03  0.36201547923E+03  0.38900459460E+03  0.41800000000E+01 0. -1.
</event>
<event>
11    1  0.8479398E-009  0.1343130E+03  0.7561462E-02  0.1114080E+00
         22   -1    0    0    0    0  0.00000000000E+00  0.00000000000E+00  0.23229788421E+03  0.23229788421E+03  0.00000000000E+00 0.  1.
         22   -1    0    0    0    0 -0.00000000000E+00 -0.00000000000E+00 -0.25132242117E+03  0.25132242117E+03  0.00000000000E+00 0. -1.
         24    2    1    2    0    0 -0.41238151931E+02  0.97984639371E+01 -0.12822530054E+03  0.15670632790E+03  0.79489310194E+02 0.  0.
         25    2    1    2    0    0  0.53756516837E+02 -0.54299272548E+02 -0.39666032440E+02  0.15185311919E+03  0.12509117305E+03 0.  0.
        -24    2    1    2    0    0 -0.12518364906E+02  0.44500808611E+02  0.14886679601E+03  0.17506085830E+03  0.79674021653E+02 0.  0.
        -11    1    3    3    0    0  0.82922981719E+01 -0.15346622068E+02 -0.52910870829E+00  0.17451675389E+02  0.00000000000E+00 0.  1.
         12    1    3    3    0    0 -0.49530450102E+02  0.25145086005E+02 -0.12769619183E+03  0.13925465251E+03  0.00000000000E+00 0. -1.
         13    1    5    5    0    0  0.37580987901E+01 -0.18125102913E+02  0.82404715597E+01  0.20261984938E+02  0.00000000000E+00 0. -1.
        -14    1    5    5    0    0 -0.16276463697E+02  0.62625911524E+02  0.14062632445E+03  0.15479887336E+03  0.00000000000E+00 0.  1.
          5    1    4    4  501    0 -0.16189465126E+02 -0.17895844483E+01 -0.59704197218E+02  0.62027130830E+02  0.41800000000E+01 0.  1.
         -5    1    4    4    0  501  0.69945981963E+02 -0.52509688100E+02  0.20038164777E+02  0.89825988359E+02  0.41800000000E+01 0.  1.
</event>
<event>
11    1  0.8479398E-009  0.1362657E+03  0.7561462E-02  0.1111801E+00
         22   -1    0    0    0    0  0.00000000000E+00  0.00000000000E+00  0.10150457365E+04  0.10150457365E+04  0.00000000000E+00 0.  1.
         22   -1    0    0    0    0 -0.00000000000E+00 -0.00000000000E+00 -0.35002972209E+03  0.35002972209E+03  0.00000000000E+00 0.  1.
         24    2    1    2    0    0 -0.37671297663E+02  0.11919164538E+02 -0.25457780448E+03  0.26997521493E+03  0.80719049726E+02 0.  0.
         25    2    1    2    0    0  0.78444247451E+02  0.22602350723E+02 -0.19778204592E+02  0.15067751263E+03  0.12509264255E+03 0.  0.
        -24    2    1    2    0    0 -0.40772949788E+02 -0.34521515261E+02  0.93937202351E+03  0.94442273107E+03  0.81610832337E+02 0.  0.
        -13    1    3    3    0    0  0.22174318857E+02  0.12053963544E+02 -0.12099628910E+03  0.12360056808E+03  0.00000000000E+00 0.  1.
         14    1    3    3    0    0 -0.59845616520E+02 -0.13479900630E+00 -0.13358151539E+03  0.14637464685E+03  0.00000000000E+00 0. -1.
         13    1    5    5    0    0 -0.12486984180E+01  0.24083212251E+02  0.34937523845E+03  0.35020653563E+03  0.00000000000E+00 0. -1.
        -14    1    5    5    0    0 -0.39524251370E+02 -0.58604727511E+02  0.58999678507E+03  0.59421619544E+03  0.00000000000E+00 0.  1.
          5    1    4    4  501    0  0.91065137161E+02 -0.29063430333E+02 -0.17578717605E+02  0.97283225181E+02  0.41800000000E+01 0. -1.
         -5    1    4    4    0  501 -0.12620889711E+02  0.51665781056E+02 -0.21994869868E+01  0.53394287449E+02  0.41800000000E+01 0. -1.
</event>
<event>
11    1  0.8479398E-009  0.2034137E+03  0.7561462E-02  0.1052136E+00
         22   -1    0    0    0    0  0.00000000000E+00  0.00000000000E+00  0.13795460083E+04  0.13795460083E+04  0.00000000000E+00 0.  1.
         22   -1    0    0    0    0 -0.00000000000E+00 -0.00000000000E+00 -0.31812639538E+04  0.31812639538E+04  0.00000000000E+00 0.  1.
         24    2    1    2    0    0  0.12682927995E+03  0.98422696923E+02 -0.31505466513E+04  0.31556403065E+04  0.79679661801E+02 0.  0.
         25    2    1    2    0    0 -0.80927770417E+02 -0.12571250080E+03  0.35333020483E+03  0.40353610839E+03  0.12508485220E+03 0.  0.
        -24    2    1    2    0    0 -0.45901509532E+02  0.27289803875E+02  0.99549850102E+03  0.10016335471E+04  0.96957801126E+02 0.  0.
        -13    1    3    3    0    0  0.40654769690E+02  0.27851248639E+02 -0.17418710364E+04  0.17425679929E+04  0.00000000000E+00 0.  1.
         14    1    3    3    0    0  0.86174510259E+02  0.70571448284E+02 -0.14086756149E+04  0.14130723137E+04  0.00000000000E+00 0. -1.
         13    1    5    5    0    0 -0.34799167267E+02  0.56005804426E+02  0.86677985373E+03  0.86928415780E+03  0.00000000000E+00 0. -1.
        -14    1    5    5    0    0 -0.11102342265E+02 -0.28716000551E+02  0.12871864729E+03  0.13234938932E+03  0.00000000000E+00 0.  1.
          5    1    4    4  501    0 -0.87971937865E+02 -0.14578489105E+03  0.33190594074E+03  0.37305672787E+03  0.41800000000E+01 0. -1.
         -5    1    4    4    0  501  0.70441674477E+01  0.20072390248E+02  0.21424264088E+02  0.30479380522E+02  0.41800000000E+01 0. -1.
</event>
<event>
11    1  0.8479398E-009  0.1685196E+03  0.7561462E-02  0.1079327E+00
         22   -1    0    0    0    0  0.00000000000E+00  0.00000000000E+00  0.19558606483E+03  0.19558606483E+03  0.00000000000E+00 0. -1.
         22   -1    0    0    0    0 -0.00000000000E+00 -0.00000000000E+00 -0.80119264699E+03  0.80119264699E+03  0.00000000000E+00 0.  1.
         24    2    1    2    0    0  0.48141807823E+02  0.84741202561E+01 -0.42581206748E+03  0.43636263718E+03  0.81896214430E+02 0.  0.
         25    2    1    2    0    0 -0.30628572097E+02  0.10428265513E+03 -0.32070136093E+03  0.36098461403E+03  0.12509015577E+03 0.  0.
        -24    2    1    2    0    0 -0.17513235727E+02 -0.11275677539E+03  0.14090684624E+03  0.19943146062E+03  0.83050372338E+02 0.  0.
        -11    1    3    3    0    0  0.48516553454E+02  0.39196622544E+02 -0.23714157213E+03  0.24520676257E+03  0.00000000000E+00 0.  1.
         12    1    3    3    0    0 -0.37474563055E+00 -0.30722502288E+02 -0.18867049535E+03  0.19115587461E+03  0.00000000000E+00 0. -1.
         11    1    5    5    0    0  0.47249760393E+00 -0.10907009782E+03  0.78507689511E+02  0.13438737591E+03  0.00000000000E+00 0. -1.
        -12    1    5    5    0    0 -0.17985733331E+02 -0.36866775723E+01  0.62399156732E+02  0.65044084711E+02  0.00000000000E+00 0.  1.
          5    1    4    4  501    0 -0.15412198260E+02  0.38533446511E+02 -0.27778356978E+03  0.28089775078E+03  0.41800000000E+01 0.  1.
         -5    1    4    4    0  501 -0.15216373837E+02  0.65749208621E+02 -0.42917791152E+02  0.80086863245E+02  0.41800000000E+01 0.  1.
</event>
<event>
11    1  0.8479398E-009  0.1374308E+03  0.7561462E-02  0.1110462E+00
         22   -1    0    0    0    0  0.00000000000E+00  0.00000000000E+00  0.11998433303E+03  0.11998433303E+03  0.00000000000E+00 0. -1.
         22   -1    0    0    0    0 -0.00000000000E+00 -0.00000000000E+00 -0.18806328019E+04  0.18806328019E+04  0.00000000000E+00 0. -1.
         24    2    1    2    0    0  0.31338104442E+02  0.17993607605E+02 -0.16709846975E+04  0.16733143836E+04  0.80531484872E+02 0.  0.
         25    2    1    2    0    0 -0.79778259509E+02  0.65025553935E+01 -0.15160595110E+03  0.21221714066E+03  0.12507956054E+03 0.  0.
        -24    2    1    2    0    0  0.48440155067E+02 -0.24496162999E+02  0.61942179726E+02  0.11508561076E+03  0.80382545062E+02 0.  0.
        -13    1    3    3    0    0  0.54843638331E+02  0.13175026951E+02 -0.79370996273E+03  0.79571157522E+03  0.00000000000E+00 0.  1.
         14    1    3    3    0    0 -0.23505533889E+02  0.48185806549E+01 -0.87727473482E+03  0.87760280833E+03  0.00000000000E+00 0. -1.
         13    1    5    5    0    0  0.69588012506E+02 -0.28898830703E+02  0.49548605936E+02  0.90181473989E+02  0.00000000000E+00 0. -1.
        -14    1    5    5    0    0 -0.21147857439E+02  0.44026677038E+01  0.12393573790E+02  0.24904136774E+02  0.00000000000E+00 0.  1.
          5    1    4    4  501    0 -0.10728111079E+03 -0.20246871502E+02 -0.10298980023E+03  0.15014507614E+03  0.41800000000E+01 0.  1.
         -5    1    4    4    0  501  0.27502851283E+02  0.26749426896E+02 -0.48616150875E+02  0.62072064521E+02  0.41800000000E+01 0.  1.
</event>
<event>
11    1  0.8479398E-009  0.1743326E+03  0.7561462E-02  0.1074322E+00
         22   -1    0    0    0    0  0.00000000000E+00  0.00000000000E+00  0.58271089380E+03  0.58271089380E+03  0.00000000000E+00 0. -1.
         22   -1    0    0    0    0 -0.00000000000E+00 -0.00000000000E+00 -0.90160931433E+03  0.90160931433E+03  0.00000000000E+00 0.  1.
         24    2    1    2    0    0  0.16714333050E+02  0.31124732141E+01 -0.72622371447E+03  0.73080750289E+03  0.79935388872E+02 0.  0.
         25    2    1    2    0    0  0.19864338131E+02  0.11317674380E+03 -0.11888915196E+03  0.20731684599E+03  0.12506828898E+03 0.  0.
        -24    2    1    2    0    0 -0.36578671181E+02 -0.11628921702E+03  0.52621444591E+03  0.54619585925E+03  0.81037598669E+02 0.  0.
        -13    1    3    3    0    0 -0.89982627002E+01 -0.32960676805E+02 -0.42123638911E+03  0.42261977055E+03  0.00000000000E+00 0.  1.
         14    1    3    3    0    0  0.25712595750E+02  0.36073150019E+02 -0.30498732536E+03  0.30818773234E+03  0.00000000000E+00 0. -1.
         13    1    5    5    0    0 -0.34378579827E+02 -0.11981362461E+03  0.37998149267E+03  0.39990389616E+03  0.00000000000E+00 0. -1.
        -14    1    5    5    0    0 -0.22000913544E+01  0.35244075965E+01  0.14623295324E+03  0.14629196309E+03  0.00000000000E+00 0.  1.
          5    1    4    4  501    0 -0.80267250441E+00  0.10922023660E+03 -0.26500145389E+02  0.11246970469E+03  0.41800000000E+01 0.  1.
         -5    1    4    4    0  501  0.20667010635E+02  0.39565072018E+01 -0.92389006574E+02  0.94847141304E+02  0.41800000000E+01 0.  1.
</event>
<event>
11    1  0.8479398E-009  0.2341018E+03  0.7561462E-02  0.1032727E+00
         22   -1    0    0    0    0  0.00000000000E+00  0.00000000000E+00  0.88587515487E+03  0.88587515487E+03  0.00000000000E+00 0.  1.
         22   -1    0    0    0    0 -0.00000000000E+00 -0.00000000000E+00 -0.25529063855E+03  0.25529063855E+03  0.00000000000E+00 0. -1.
         24    2    1    2    0    0  0.10051635548E+03 -0.15095258330E+03 -0.11108386674E+03  0.22771057090E+03  0.81377260469E+02 0.  0.
         25    2    1    2    0    0 -0.16646373536E+03  0.27923411444E+03  0.38003444273E+03  0.51551448281E+03  0.12508852254E+03 0.  0.
        -24    2    1    2    0    0  0.65947379879E+02 -0.12828153113E+03  0.36163394033E+03  0.39794073972E+03  0.82295305967E+02 0.  0.
        -11    1    3    3    0    0 -0.72680946855E+01 -0.28112622492E+02  0.17966069941E+01  0.29092482542E+02  0.00000000000E+00 0.  1.
         12    1    3    3    0    0  0.10778445017E+03 -0.12283996081E+03 -0.11288047374E+03  0.19861808835E+03  0.00000000000E+00 0. -1.
         11    1    5    5    0    0  0.39606342612E+02 -0.65669396623E+01  0.67608038970E+02  0.78629727235E+02  0.00000000000E+00 0. -1.
        -12    1    5    5    0    0  0.26341037267E+02 -0.12171459147E+03  0.29402590136E+03  0.31931101248E+03  0.00000000000E+00 0.  1.
          5    1    4    4  501    0 -0.63243033012E+02  0.35736230386E+02  0.14252313662E+03  0.16002211178E+03  0.41800000000E+01 0. -1.
         -5    1    4    4    0  501 -0.10322070235E+03  0.24349788405E+03  0.23751130611E+03  0.35549237103E+03  0.41800000000E+01 0. -1.
</event>
<event>
11    1  0.8479398E-009  0.1806331E+03  0.7561462E-02  0.1069132E+00
         22   -1    0    0    0    0  0.00000000000E+00  0.00000000000E+00  0.16547969900E+04  0.16547969900E+04  0.00000000000E+00 0.  1.
         22   -1    0    0    0    0 -0.00000000000E+00 -0.00000000000E+00 -0.49756895908E+03  0.49756895908E+03  0.00000000000E+00 0. -1.
         24    2    1    2    0    0  0.31633535487E+02 -0.12085569371E+03 -0.36616334257E+03  0.39509109320E+03  0.80091193073E+02 0.  0.
         25    2    1    2    0    0 -0.52944968769E+02  0.15645646411E+03 -0.22815178726E+02  0.20844814349E+03  0.12509317034E+03 0.  0.
        -24    2    1    2    0    0  0.21311433282E+02 -0.35600770394E+02  0.15462065522E+04  0.15488267124E+04  0.79924282068E+02 0.  0.
        -13    1    3    3    0    0  0.46125257530E+02 -0.74107418476E+02 -0.15084591056E+03  0.17428120262E+03  0.00000000000E+00 0.  1.
         14    1    3    3    0    0 -0.14491722043E+02 -0.46748275237E+02 -0.21531743201E+03  0.22080989057E+03  0.00000000000E+00 0. -1.
         11    1    5    5    0    0 -0.25437034283E+02 -0.29606187337E+02  0.48238520722E+03  0.48396183443E+03  0.00000000000E+00 0. -1.
        -12    1    5    5    0    0  0.46748467565E+02 -0.59945830578E+01  0.10638213450E+04  0.10648648780E+04  0.00000000000E+00 0.  1.
          5    1    4    4  501    0 -0.33105356631E+02  0.17419002296E+03 -0.31528084663E+02  0.18013778409E+03  0.41800000000E+01 0.  1.
         -5    1    4    4    0  501 -0.19839612139E+02 -0.17733558851E+02  0.87129059364E+01  0.28310359397E+02  0.41800000000E+01 0.  1.
</event>
<event>
11    1  0.8479398E-009  0.1305421E+03  0.7561462E-02  0.1118605E+00
         22   -1    0    0    0    0  0.00000000000E+00  0.00000000000E+00  0.23864331393E+04  0.23864331393E+04  0.00000000000E+00 0.  1.
         22   -1    0    0    0    0 -0.00000000000E+00 -0.00000000000E+00 -0.67907646594E+02  0.67907646594E+02  0.00000000000E+00 0.  1.
        -24    2    1    2    0    0  0.18923353302E+02  0.32861864903E+02 -0.12021942156E+02  0.89210563761E+02  0.79849872437E+02 0.  0.
         25    2    1    2    0    0 -0.28721212372E+02 -0.21625657098E+02  0.23982140446E+03  0.27286341939E+03  0.12509021752E+03 0.  0.
         24    2    1    2    0    0  0.97978590702E+01 -0.11236207806E+02  0.20907260304E+04  0.20922668028E+04  0.78884657959E+02 0.  0.
        -11    1    5    5    0    0 -0.26041451252E+00  0.74377802713E+01  0.19441330454E+04  0.19441472903E+04  0.00000000000E+00 0.  1.
         12    1    5    5    0    0  0.10058273583E+02 -0.18673988077E+02  0.14659298507E+03  0.14811951245E+03  0.00000000000E+00 0. -1.
         13    1    3    3    0    0  0.30777526124E+02  0.46774711591E+02  0.13711238022E+02  0.57646576714E+02  0.00000000000E+00 0. -1.
        -14    1    3    3    0    0 -0.11854172821E+02 -0.13912846688E+02 -0.25733180178E+02  0.31563987047E+02  0.00000000000E+00 0.  1.
          5    1    4    4  501    0  0.24751787296E+02 -0.58667296235E+00 -0.11152222355E+01  0.25133867194E+02  0.41800000000E+01 0.  1.
         -5    1    4    4    0  501 -0.53472999668E+02 -0.21038984135E+02  0.24093662670E+03  0.24772955220E+03  0.41800000000E+01 0.  1.
</event>
<event>
11    1  0.8573814E-009  0.1689876E+03  0.7561462E-02  0.1078916E+00
         22   -1    0    0    0    0  0.00000000000E+00  0.00000000000E+00  0.23357487665E+04  0.23357487665E+04  0.00000000000E+00 0.  1.
         22   -1    0    0    0    0 -0.00000000000E+00 -0.00000000000E+00 -0.23122274990E+03  0.23122274990E+03  0.00000000000E+00 0. -1.
        -24    2    1    2    0    0  0.11551597998E+03 -0.10651276482E+01 -0.17738710673E+03  0.22694147876E+03  0.81799590585E+02 0.  0.
         25    2    1    2    0    0 -0.85619067665E+02  0.10166139554E+03  0.28301330827E+03  0.33676263381E+03  0.12508746852E+03 0.  0.
         24    2    1    2    0    0 -0.29896912316E+02 -0.10059626789E+03  0.19988998151E+04  0.20032674038E+04  0.80413842526E+02 0.  0.
        -13    1    5    5    0    0  0.22335689745E+02 -0.63934981542E+02  0.11297127109E+04  0.11317408600E+04  0.00000000000E+00 0.  1.
         14    1    5    5    0    0 -0.52232602061E+02 -0.36661286349E+02  0.86918710417E+03  0.87152654388E+03  0.00000000000E+00 0. -1.
         11    1    3    3    0    0  0.11415255269E+03 -0.12191318196E+02 -0.18170193575E+03  0.21493028400E+03  0.00000000000E+00 0. -1.
        -12    1    3    3    0    0  0.13634272884E+01  0.11126190548E+02  0.43148290192E+01  0.12011194759E+02  0.00000000000E+00 0.  1.
          5    1    4    4  501    0 -0.50373126250E+02  0.10320608804E+03  0.27808637373E+03  0.30089608191E+03  0.41800000000E+01 0. -1.
         -5    1    4    4    0  501 -0.35245941415E+02 -0.15446924978E+01  0.49269345454E+01  0.35866551899E+02  0.41800000000E+01 0. -1.
</event>
<event>
11    1  0.8479398E-009  0.1619593E+03  0.7561462E-02  0.1085249E+00
         22   -1    0    0    0    0  0.00000000000E+00  0.00000000000E+00  0.21154108658E+04  0.21154108658E+04  0.00000000000E+00 0.  1.
         22   -1    0    0    0    0 -0.00000000000E+00 -0.00000000000E+00 -0.35791194554E+03  0.35791194554E+03  0.00000000000E+00 0.  1.
        -24    2    1    2    0    0  0.33148125989E+02  0.15515377188E+02 -0.34113391907E+03  0.35342657271E+03  0.84843776256E+02 0.  0.
         25    2    1    2    0    0  0.23057964620E+02  0.86710078591E+02  0.10748186975E+04  0.10857869057E+04  0.12509062554E+03 0.  0.
         24    2    1    2    0    0 -0.56206090609E+02 -0.10222545578E+03  0.10238141418E+04  0.10341093329E+04  0.87049107172E+02 0.  0.
        -11    1    5    5    0    0 -0.76425404879E+02 -0.58832076809E+02  0.74468622636E+03  0.75090587393E+03  0.00000000000E+00 0.  1.
         12    1    5    5    0    0  0.20219314270E+02 -0.43393378970E+02  0.27912791545E+03  0.28320345900E+03  0.00000000000E+00 0. -1.
         11    1    3    3    0    0  0.22025386554E+02  0.46124136209E+02 -0.12815246582E+03  0.13796959118E+03  0.00000000000E+00 0. -1.
        -12    1    3    3    0    0  0.11122739435E+02 -0.30608759020E+02 -0.21298145325E+03  0.21545698153E+03  0.00000000000E+00 0.  1.
          5    1    4    4  501    0  0.52864374497E+02  0.10179554110E+03  0.93264349377E+03  0.93967990994E+03  0.41800000000E+01 0. -1.
         -5    1    4    4    0  501 -0.29806409877E+02 -0.15085462506E+02  0.14217520372E+03  0.14610699574E+03  0.41800000000E+01 0. -1.
</event>
<event>
11    1  0.8479398E-009  0.1361506E+03  0.7561462E-02  0.1111935E+00
         22   -1    0    0    0    0  0.00000000000E+00  0.00000000000E+00  0.20141008883E+03  0.20141008883E+03  0.00000000000E+00 0.  1.
         22   -1    0    0    0    0 -0.00000000000E+00 -0.00000000000E+00 -0.51042931994E+03  0.51042931994E+03  0.00000000000E+00 0.  1.
        -24    2    1    2    0    0  0.49273956111E+02 -0.18903366150E+02 -0.41445026766E+03  0.42574754894E+03  0.81894389667E+02 0.  0.
         25    2    1    2    0    0 -0.56829016937E+02  0.28116637000E+02 -0.12101738788E+02  0.14081599357E+03  0.12515034766E+03 0.  0.
         24    2    1    2    0    0  0.75550608254E+01 -0.92132708503E+01  0.11753277534E+03  0.14527586626E+03  0.84552709812E+02 0.  0.
        -11    1    5    5    0    0  0.10274330796E+00 -0.27001769026E+02  0.12243414758E+03  0.12537633980E+03  0.00000000000E+00 0.  1.
         12    1    5    5    0    0  0.74523175175E+01  0.17788498175E+02 -0.49013722457E+01  0.19899526467E+02  0.00000000000E+00 0. -1.
         13    1    3    3    0    0  0.53339709037E+02 -0.42468402125E+02 -0.23435531864E+03  0.24407192611E+03  0.00000000000E+00 0. -1.
        -14    1    3    3    0    0 -0.40657529252E+01  0.23565035976E+02 -0.18009494903E+03  0.18167562283E+03  0.00000000000E+00 0.  1.
          5    1    4    4  501    0 -0.42609794792E+02  0.37825640758E+02  0.50195060900E+02  0.76048604522E+02  0.41800000000E+01 0.  1.
         -5    1    4    4    0  501 -0.14219222144E+02 -0.97090037576E+01 -0.62296799688E+02  0.64767389045E+02  0.41800000000E+01 0.  1.
</event>
<event>
11    1  0.8479398E-009  0.1909587E+03  0.7561462E-02  0.1061108E+00
         22   -1    0    0    0    0  0.00000000000E+00  0.00000000000E+00  0.39205680000E+04  0.39205680000E+04  0.00000000000E+00 0.  1.
         22   -1    0    0    0    0 -0.00000000000E+00 -0.00000000000E+00 -0.10233164315E+03  0.10233164315E+03  0.00000000000E+00 0. -1.
        -24    2    1    2    0    0  0.97945031600E+02 -0.11029382158E+03 -0.18896742298E+02  0.16892605471E+03  0.80130947801E+02 0.  0.
         25    2    1    2    0    0 -0.10201243968E+03  0.47795442393E+02  0.93263851208E+03  0.94770840639E+03  0.12508272126E+03 0.  0.
         24    2    1    2    0    0  0.40674080749E+01  0.62498379187E+02  0.29044945871E+04  0.29062651821E+04  0.79786658605E+02 0.  0.
        -13    1    5    5    0    0  0.20687091571E+02 -0.10867238474E+02  0.10240350687E+04  0.10243016521E+04  0.00000000000E+00 0.  1.
         14    1    5    5    0    0 -0.16619683496E+02  0.73365617661E+02  0.18804595184E+04  0.18819635299E+04  0.00000000000E+00 0. -1.
         11    1    3    3    0    0  0.61783261422E+02 -0.71580504945E+02 -0.50543811810E+02  0.10721761512E+03  0.00000000000E+00 0. -1.
        -12    1    3    3    0    0  0.36161770178E+02 -0.38713316636E+02  0.31647069512E+02  0.61708439585E+02  0.00000000000E+00 0.  1.
          5    1    4    4  501    0 -0.62434984598E+02 -0.38125114580E+02  0.43829493156E+03  0.44437773470E+03  0.41800000000E+01 0. -1.
         -5    1    4    4    0  501 -0.39577455077E+02  0.85920556973E+02  0.49434358052E+03  0.50333067169E+03  0.41800000000E+01 0. -1.
</event>
<event>
11    1  0.8479398E-009  0.1690790E+03  0.7561462E-02  0.1078836E+00
         22   -1    0    0    0    0  0.00000000000E+00  0.00000000000E+00  0.80581317156E+03  0.80581317156E+03  0.00000000000E+00 0. -1.
         22   -1    0    0    0    0 -0.00000000000E+00 -0.00000000000E+00 -0.16752870024E+03  0.16752870024E+03  0.00000000000E+00 0. -1.
         24    2    1    2    0    0 -0.11287262824E+03 -0.67160330281E+01 -0.11185934182E+03  0.17713106311E+03  0.77958744615E+02 0.  0.
         25    2    1    2    0    0  0.12156081992E+03  0.13531824160E+02  0.38970411866E+03  0.42717588964E+03  0.12509915021E+03 0.  0.
        -24    2    1    2    0    0 -0.86881916867E+01 -0.68157911324E+01  0.36043969448E+03  0.36903491905E+03  0.78409555760E+02 0.  0.
        -11    1    3    3    0    0 -0.81428690403E+02  0.29660924310E+02 -0.54893722830E+02  0.10258519804E+03  0.00000000000E+00 0.  1.
         12    1    3    3    0    0 -0.31443937833E+02 -0.36376957338E+02 -0.56965618990E+02  0.74545865067E+02  0.00000000000E+00 0. -1.
         11    1    5    5    0    0  0.85268629633E+01  0.13200360472E+02  0.32210813923E+03  0.32249125611E+03  0.00000000000E+00 0. -1.
        -12    1    5    5    0    0 -0.17215054650E+02 -0.20016151604E+02  0.38331555249E+02  0.46543662936E+02  0.00000000000E+00 0.  1.
          5    1    4    4  501    0 -0.18172546195E+02 -0.19013178290E+02  0.10515707191E+03  0.10847683880E+03  0.41800000000E+01 0. -1.
         -5    1    4    4    0  501  0.13973336612E+03  0.32545002450E+02  0.28454704675E+03  0.31869905084E+03  0.41800000000E+01 0. -1.
</event>
<event>
11    1  0.8479398E-009  0.1418562E+03  0.7561462E-02  0.1105503E+00
         22   -1    0    0    0    0  0.00000000000E+00  0.00000000000E+00  0.57167955969E+03  0.57167955969E+03  0.00000000000E+00 0.  1.
         22   -1    0    0    0    0 -0.00000000000E+00 -0.00000000000E+00 -0.30229614303E+03  0.30229614303E+03  0.00000000000E+00 0. -1.
         24    2    1    2    0    0  0.12874520234E+02  0.41829474958E+02 -0.24669765565E+03  0.26333085226E+03  0.81042866452E+02 0.  0.
         25    2    1    2    0    0 -0.76858545991E+02 -0.25653218440E+02  0.10559098228E+03  0.18265340141E+03  0.12508991086E+03 0.  0.
        -24    2    1    2    0    0  0.63984025757E+02 -0.16176256518E+02  0.41049009003E+03  0.42799144904E+03  0.10158218158E+03 0.  0.
        -13    1    3    3    0    0 -0.26788680941E+02  0.27251466343E+02 -0.18261013358E+03  0.18656563652E+03  0.00000000000E+00 0.  1.
         14    1    3    3    0    0  0.39663201175E+02  0.14578008616E+02 -0.64087522073E+02  0.76765215743E+02  0.00000000000E+00 0. -1.
         13    1    5    5    0    0 -0.19390770742E+02  0.69396816076E+01  0.22630664885E+02  0.30599152993E+02  0.00000000000E+00 0. -1.
        -14    1    5    5    0    0  0.83374796498E+02 -0.23115938126E+02  0.38785942515E+03  0.39739229605E+03  0.00000000000E+00 0.  1.
          5    1    4    4  501    0 -0.10020865879E+03  0.55709906193E+01  0.10218937802E+03  0.14329323994E+03  0.41800000000E+01 0.  1.
         -5    1    4    4    0  501  0.23350112796E+02 -0.31224209060E+02  0.34016042568E+01  0.39360161465E+02  0.41800000000E+01 0.  1.
</event>
<event>
11    1  0.8479398E-009  0.1947521E+03  0.7561462E-02  0.1058298E+00
         22   -1    0    0    0    0  0.00000000000E+00  0.00000000000E+00  0.20563931772E+04  0.20563931772E+04  0.00000000000E+00 0.  1.
         22   -1    0    0    0    0 -0.00000000000E+00 -0.00000000000E+00 -0.11476225090E+03  0.11476225090E+03  0.00000000000E+00 0.  1.
         24    2    1    2    0    0  0.13937698475E+03 -0.62622272910E+02 -0.17937751786E+02  0.17270220403E+03  0.78465249594E+02 0.  0.
         25    2    1    2    0    0 -0.11499520175E+03  0.58762453556E+02  0.42464945700E+03  0.46114449881E+03  0.12510061979E+03 0.  0.
        -24    2    1    2    0    0 -0.24381783000E+02  0.38598193543E+01  0.15349192210E+04  0.15373087252E+04  0.82047132766E+02 0.  0.
        -13    1    3    3    0    0  0.10217728859E+03 -0.79216813539E+02 -0.24070044348E+02  0.13150995736E+03  0.00000000000E+00 0.  1.
         14    1    3    3    0    0  0.37199696159E+02  0.16594540628E+02  0.61322925625E+01  0.41192246662E+02  0.00000000000E+00 0. -1.
         11    1    5    5    0    0  0.26933942480E+02  0.17191122833E+02  0.48470820451E+03  0.48576024486E+03  0.00000000000E+00 0. -1.
        -12    1    5    5    0    0 -0.51315725480E+02 -0.13331303479E+02  0.10502110165E+04  0.10515484804E+04  0.00000000000E+00 0.  1.
          5    1    4    4  501    0 -0.92228266120E+02 -0.22460428530E+02  0.21094409421E+03  0.23135558606E+03  0.41800000000E+01 0.  1.
         -5    1    4    4    0  501 -0.22766935630E+02  0.81222882086E+02  0.21370536280E+03  0.22978891275E+03  0.41800000000E+01 0.  1.
</event>
<event>
11    1  0.8479398E-009  0.1320392E+03  0.7561462E-02  0.1116789E+00
         22   -1    0    0    0    0  0.00000000000E+00  0.00000000000E+00  0.61853738990E+03  0.61853738990E+03  0.00000000000E+00 0. -1.
         22   -1    0    0    0    0 -0.00000000000E+00 -0.00000000000E+00 -0.91180884945E+03  0.91180884945E+03  0.00000000000E+00 0. -1.
        -24    2    1    2    0    0 -0.21393919970E+02 -0.36441398635E+02 -0.88465243747E+03  0.88917968237E+03  0.79024661099E+02 0.  0.
         25    2    1    2    0    0  0.48357386574E+02  0.22220064251E+02  0.20712403677E+03  0.24774980991E+03  0.12508970227E+03 0.  0.
         24    2    1    2    0    0 -0.26963466604E+02  0.14221334384E+02  0.38425694115E+03  0.39341674708E+03  0.78702383519E+02 0.  0.
        -11    1    5    5    0    0  0.47593522676E+01  0.41065394199E+02  0.15468591592E+03  0.16011480450E+03  0.00000000000E+00 0.  1.
         12    1    5    5    0    0 -0.31722818871E+02 -0.26844059816E+02  0.22957102523E+03  0.23330194258E+03  0.00000000000E+00 0. -1.
         13    1    3    3    0    0 -0.44738431268E+02 -0.40764877515E+02 -0.75099561127E+03  0.75343062761E+03  0.00000000000E+00 0. -1.
        -14    1    3    3    0    0  0.23344511298E+02  0.43234788803E+01 -0.13365682620E+03  0.13574905476E+03  0.00000000000E+00 0.  1.
          5    1    4    4  501    0  0.38820629258E+02 -0.11274696212E+02  0.31283239258E+01  0.40760505900E+02  0.41800000000E+01 0.  1.
         -5    1    4    4    0  501  0.95367573164E+01  0.33494760463E+02  0.20399571284E+03  0.20698930401E+03  0.41800000000E+01 0.  1.
</event>
<event>
11    1  0.8479398E-009  0.1451966E+03  0.7561462E-02  0.1101890E+00
         22   -1    0    0    0    0  0.00000000000E+00  0.00000000000E+00  0.11816858870E+04  0.11816858870E+04  0.00000000000E+00 0.  1.
         22   -1    0    0    0    0 -0.00000000000E+00 -0.00000000000E+00 -0.22775836758E+04  0.22775836758E+04  0.00000000000E+00 0.  1.
         24    2    1    2    0    0  0.16123438975E+02  0.17188818081E+02 -0.22626568325E+04  0.22642629493E+04  0.81947185808E+02 0.  0.
         25    2    1    2    0    0  0.64572728342E+02 -0.24151038239E+01  0.63403241766E+03  0.64947674709E+03  0.12508984133E+03 0.  0.
        -24    2    1    2    0    0 -0.80696167317E+02 -0.14773714257E+02  0.53272662604E+03  0.54552986646E+03  0.84113275147E+02 0.  0.
        -11    1    3    3    0    0 -0.59270913223E+01 -0.23690122885E+01 -0.19912754633E+04  0.19912856936E+04  0.00000000000E+00 0.  1.
         12    1    3    3    0    0  0.22050530297E+02  0.19557830369E+02 -0.27138136918E+03  0.27297725575E+03  0.00000000000E+00 0. -1.
         11    1    5    5    0    0 -0.76051038947E+01  0.29827901509E+02  0.11042711656E+03  0.11463720769E+03  0.00000000000E+00 0. -1.
        -12    1    5    5    0    0 -0.73091063423E+02 -0.44601615766E+02  0.42229950948E+03  0.43089265878E+03  0.00000000000E+00 0.  1.
          5    1    4    4  501    0 -0.88574001049E+01 -0.51252875518E+02  0.25727675073E+03  0.26251497034E+03  0.41800000000E+01 0. -1.
         -5    1    4    4    0  501  0.73430128447E+02  0.48837771694E+02  0.37675566693E+03  0.38696177676E+03  0.41800000000E+01 0. -1.
</event>
<event>
11    1  0.8479398E-009  0.1394881E+03  0.7561462E-02  0.1108131E+00
         22   -1    0    0    0    0  0.00000000000E+00  0.00000000000E+00  0.49107515893E+03  0.49107515893E+03  0.00000000000E+00 0. -1.
         22   -1    0    0    0    0 -0.00000000000E+00 -0.00000000000E+00 -0.75651409457E+03  0.75651409457E+03  0.00000000000E+00 0. -1.
        -24    2    1    2    0    0  0.82073395833E+01 -0.75313234907E+01 -0.64750634864E+03  0.65253192536E+03  0.80058483845E+02 0.  0.
         25    2    1    2    0    0  0.18381395501E+02 -0.48845790003E+02 -0.54924159100E+02  0.14622959608E+03  0.12507055855E+03 0.  0.
         24    2    1    2    0    0 -0.26588735084E+02  0.56377113493E+02  0.43699157210E+03  0.44882773206E+03  0.81236440205E+02 0.  0.
        -13    1    5    5    0    0 -0.25728300941E+02  0.28995346407E+02  0.63949614718E+02  0.74781206230E+02  0.00000000000E+00 0.  1.
         14    1    5    5    0    0 -0.86043414294E+00  0.27381767087E+02  0.37304195738E+03  0.37404652583E+03  0.00000000000E+00 0. -1.
         11    1    3    3    0    0 -0.11023832140E+02  0.25468657227E+02 -0.47670389631E+03  0.47751102828E+03  0.00000000000E+00 0. -1.
        -12    1    3    3    0    0  0.19231171723E+02 -0.32999980717E+02 -0.17080245233E+03  0.17502089708E+03  0.00000000000E+00 0.  1.
          5    1    4    4  501    0 -0.49337733558E+02 -0.41082908010E+02 -0.41699217353E+02  0.76670166369E+02  0.41800000000E+01 0. -1.
         -5    1    4    4    0  501  0.67719129059E+02 -0.77628819926E+01 -0.13224941748E+02  0.69559429709E+02  0.41800000000E+01 0. -1.
</event>
<event>
11    1  0.8479398E-009  0.1459575E+03  0.7561462E-02  0.1101082E+00
         22   -1    0    0    0    0  0.00000000000E+00  0.00000000000E+00  0.30324831283E+03  0.30324831283E+03  0.00000000000E+00 0. -1.
         22   -1    0    0    0    0 -0.00000000000E+00 -0.00000000000E+00 -0.46289419785E+03  0.46289419785E+03  0.00000000000E+00 0.  1.
         24    2    1    2    0    0 -0.46390323630E+01  0.56046321479E+02 -0.30491617546E+03  0.32037610858E+03  0.80649030502E+02 0.  0.
         25    2    1    2    0    0  0.76938839136E+02 -0.32230981823E+02 -0.97449598909E+02  0.17917261894E+03  0.12509189380E+03 0.  0.
        -24    2    1    2    0    0 -0.72299806773E+02 -0.23815339656E+02  0.24271988935E+03  0.26659378316E+03  0.79780123253E+02 0.  0.
        -11    1    3    3    0    0  0.27808190443E+02  0.52289596399E+02 -0.13607733684E+03  0.14840666747E+03  0.00000000000E+00 0.  1.
         12    1    3    3    0    0 -0.32447222806E+02  0.37567250804E+01 -0.16883883862E+03  0.17196944111E+03  0.00000000000E+00 0. -1.
         11    1    5    5    0    0 -0.73126475530E+02  0.12208905494E+02  0.15801932786E+03  0.17454697584E+03  0.00000000000E+00 0. -1.
        -12    1    5    5    0    0  0.82666875649E+00 -0.36024245150E+02  0.84700561489E+02  0.92046807313E+02  0.00000000000E+00 0.  1.
          5    1    4    4  501    0  0.22503755321E+02  0.15415087759E+02  0.24773076331E+02  0.37083980977E+02  0.41800000000E+01 0.  1.
         -5    1    4    4    0  501  0.54435083815E+02 -0.47646069582E+02 -0.12222267524E+03  0.14208863797E+03  0.41800000000E+01 0.  1.
</event>
<event>
11    1  0.8479398E-009  0.2079358E+03  0.7561462E-02  0.1049049E+00
         22   -1    0    0    0    0  0.00000000000E+00  0.00000000000E+00  0.12714234322E+04  0.12714234322E+04  0.00000000000E+00 0.  1.
         22   -1    0    0    0    0 -0.00000000000E+00 -0.00000000000E+00 -0.11150679363E+04  0.11150679363E+04  0.00000000000E+00 0. -1.
        -24    2    1    2    0    0  0.93599752755E+02  0.10626761567E+02 -0.96172720116E+03  0.96973987066E+03  0.81254941495E+02 0.  0.
         25    2    1    2    0    0 -0.21796262427E+03  0.94556772152E+02 -0.14995836135E+02  0.26892435373E+03  0.12508694652E+03 0.  0.
         24    2    1    2    0    0  0.12436287151E+03 -0.10518353372E+03  0.11330785333E+04  0.11478271441E+04  0.84323725387E+02 0.  0.
        -13    1    5    5    0    0  0.10582423920E+03 -0.41281891614E+02  0.60476878584E+03  0.61534400826E+03  0.00000000000E+00 0.  1.
         14    1    5    5    0    0  0.18538632309E+02 -0.63901642104E+02  0.52830974744E+03  0.53248313587E+03  0.00000000000E+00 0. -1.
         11    1    3    3    0    0  0.57388748554E+02 -0.15007889006E+02 -0.79502268790E+03  0.79723257552E+03  0.00000000000E+00 0. -1.
        -12    1    3    3    0    0  0.36211004201E+02  0.25634650573E+02 -0.16670451326E+03  0.17250729514E+03  0.00000000000E+00 0.  1.
          5    1    4    4  501    0 -0.15713087761E+03  0.22130669360E+01  0.38069491096E+00  0.15720250537E+03  0.41800000000E+01 0.  1.
         -5    1    4    4    0  501 -0.60831746652E+02  0.92343705216E+02 -0.15376531046E+02  0.11172184836E+03  0.41800000000E+01 0.  1.
</event>
<event>
11    1  0.8479398E-009  0.1251178E+03  0.7561462E-02  0.1125417E+00
         22   -1    0    0    0    0  0.00000000000E+00  0.00000000000E+00  0.34871326394E+02  0.34871326394E+02  0.00000000000E+00 0.  1.
         22   -1    0    0    0    0 -0.00000000000E+00 -0.00000000000E+00 -0.19004437767E+04  0.19004437767E+04  0.00000000000E+00 0.  1.
        -24    2    1    2    0    0 -0.38906870665E+01 -0.24900427147E+01 -0.94154701134E+03  0.94498719167E+03  0.80428105134E+02 0.  0.
         25    2    1    2    0    0 -0.15839085469E+02 -0.13687561431E+02 -0.89667707993E+03  0.90560249044E+03  0.12509140283E+03 0.  0.
         24    2    1    2    0    0  0.19729772535E+02  0.16177604146E+02 -0.27348359039E+02  0.84725420984E+02  0.76022926927E+02 0.  0.
        -11    1    5    5    0    0  0.97393213296E+01  0.24466220152E+02  0.21616288642E+02  0.34069256569E+02  0.00000000000E+00 0.  1.
         12    1    5    5    0    0  0.99904512059E+01 -0.82886160067E+01 -0.48964647682E+02  0.50656164414E+02  0.00000000000E+00 0. -1.
         13    1    3    3    0    0 -0.34835698625E+02 -0.22939172996E+02 -0.59521937426E+03  0.59667900503E+03  0.00000000000E+00 0. -1.
        -14    1    3    3    0    0  0.30945011559E+02  0.20449130281E+02 -0.34632763708E+03  0.34830818663E+03  0.00000000000E+00 0.  1.
          5    1    4    4  501    0  0.94711894696E+01  0.29920788145E+02 -0.64133124096E+02  0.71522632778E+02  0.41800000000E+01 0.  1.
         -5    1    4    4    0  501 -0.25310274939E+02 -0.43608349576E+02 -0.83254395583E+03  0.83407985767E+03  0.41800000000E+01 0.  1.
</event>
<event>
11    1  0.8479398E-009  0.2236725E+03  0.7561462E-02  0.1038941E+00
         22   -1    0    0    0    0  0.00000000000E+00  0.00000000000E+00  0.28528745745E+03  0.28528745745E+03  0.00000000000E+00 0. -1.
         22   -1    0    0    0    0 -0.00000000000E+00 -0.00000000000E+00 -0.74413665911E+03  0.74413665911E+03  0.00000000000E+00 0. -1.
        -24    2    1    2    0    0 -0.72259010953E+02  0.14568674370E+03 -0.32786947035E+03  0.37464415942E+03  0.80086607179E+02 0.  0.
         25    2    1    2    0    0  0.51072303779E+02 -0.22995547582E+03 -0.32847445213E+03  0.42312238163E+03  0.12509669483E+03 0.  0.
         24    2    1    2    0    0  0.21186707174E+02  0.84268732127E+02  0.19749472082E+03  0.23165757551E+03  0.84326578046E+02 0.  0.
        -13    1    5    5    0    0  0.42353945374E+02  0.22094396422E+02  0.45032121499E+02  0.65649912480E+02  0.00000000000E+00 0.  1.
         14    1    5    5    0    0 -0.21167238200E+02  0.62174335705E+02  0.15246259932E+03  0.16600766303E+03  0.00000000000E+00 0. -1.
         11    1    3    3    0    0 -0.17757153569E+02  0.94304443786E+02 -0.24401941581E+03  0.26221006829E+03  0.00000000000E+00 0. -1.
        -12    1    3    3    0    0 -0.54501857384E+02  0.51382299909E+02 -0.83850054538E+02  0.11243409113E+03  0.00000000000E+00 0.  1.
          5    1    4    4  501    0  0.71658265961E+02 -0.13331594935E+03 -0.26621289390E+03  0.30625941081E+03  0.41800000000E+01 0.  1.
         -5    1    4    4    0  501 -0.20585962181E+02 -0.96639526467E+02 -0.62261558235E+02  0.11686297082E+03  0.41800000000E+01 0.  1.
</event>
<event>
11    1  0.8479398E-009  0.1499064E+03  0.7561462E-02  0.1096975E+00
         22   -1    0    0    0    0  0.00000000000E+00  0.00000000000E+00  0.84621225749E+03  0.84621225749E+03  0.00000000000E+00 0.  1.
         22   -1    0    0    0    0 -0.00000000000E+00 -0.00000000000E+00 -0.89888371964E+03  0.89888371964E+03  0.00000000000E+00 0. -1.
         24    2    1    2    0    0  0.80790048258E+02 -0.12782792637E+01 -0.81997548921E+03  0.82770598468E+03  0.78795483854E+02 0.  0.
         25    2    1    2    0    0 -0.14215259312E+03  0.26451539034E+02  0.57019526806E+02  0.19951398388E+03  0.12509020618E+03 0.  0.
        -24    2    1    2    0    0  0.61362544859E+02 -0.25173259771E+02  0.71028450026E+03  0.71787600857E+03  0.80267287560E+02 0.  0.
        -13    1    3    3    0    0 -0.13301832544E+02  0.10497855468E+02 -0.17130488119E+03  0.17214094818E+03  0.00000000000E+00 0.  1.
         14    1    3    3    0    0  0.94091880802E+02 -0.11776134732E+02 -0.64867060802E+03  0.65556503651E+03  0.00000000000E+00 0. -1.
         11    1    5    5    0    0  0.32253060432E+01  0.26224631778E+02  0.16688223021E+03  0.16896097972E+03  0.00000000000E+00 0. -1.
        -12    1    5    5    0    0  0.58137238816E+02 -0.51397891549E+02  0.54340227005E+03  0.54891502884E+03  0.00000000000E+00 0.  1.
          5    1    4    4  501    0 -0.29334689674E+01  0.42635735066E+02 -0.10018520572E+02  0.44093699087E+02  0.41800000000E+01 0. -1.
         -5    1    4    4    0  501 -0.13921912415E+03 -0.16184196031E+02  0.67038047377E+02  0.15542028480E+03  0.41800000000E+01 0. -1.
</event>
<event>
11    1  0.8479398E-009  0.1726349E+03  0.7561462E-02  0.1075761E+00
         22   -1    0    0    0    0  0.00000000000E+00  0.00000000000E+00  0.15387244609E+04  0.15387244609E+04  0.00000000000E+00 0. -1.
         22   -1    0    0    0    0 -0.00000000000E+00 -0.00000000000E+00 -0.40760157666E+03  0.40760157666E+03  0.00000000000E+00 0.  1.
        -24    2    1    2    0    0  0.49228021721E+02 -0.10739856013E+03 -0.36806395084E+03  0.39584646852E+03  0.85237936925E+02 0.  0.
         25    2    1    2    0    0 -0.53528244266E+02  0.13059208536E+03  0.34382492266E+03  0.39215141817E+03  0.12509033390E+03 0.  0.
         24    2    1    2    0    0  0.43002225452E+01 -0.23193525226E+02  0.11553619125E+04  0.11583281509E+04  0.79413631776E+02 0.  0.
        -11    1    5    5    0    0 -0.31156229420E+02  0.11472547232E+02  0.48405409109E+03  0.48519139839E+03  0.00000000000E+00 0.  1.
         12    1    5    5    0    0  0.35456451965E+02 -0.34666072458E+02  0.67130782138E+03  0.67313675253E+03  0.00000000000E+00 0. -1.
         11    1    3    3    0    0 -0.60759525711E+00  0.54546615815E+01 -0.10658209338E+03  0.10672331111E+03  0.00000000000E+00 0. -1.
        -12    1    3    3    0    0  0.49835616978E+02 -0.11285322171E+03 -0.26148185746E+03  0.28912315741E+03  0.00000000000E+00 0.  1.
          5    1    4    4  501    0 -0.52439141265E+02  0.12203436492E+03  0.35403042881E+03  0.37814979397E+03  0.41800000000E+01 0.  1.
         -5    1    4    4    0  501 -0.10891030013E+01  0.85577204395E+01 -0.10205506146E+02  0.14001624197E+02  0.41800000000E+01 0.  1.
</event>
<event>
11    1  0.8479398E-009  0.1467671E+03  0.7561462E-02  0.1100229E+00
         22   -1    0    0    0    0  0.00000000000E+00  0.00000000000E+00  0.16798835242E+04  0.16798835242E+04  0.00000000000E+00 0. -1.
         22   -1    0    0    0    0 -0.00000000000E+00 -0.00000000000E+00 -0.70723205802E+03  0.70723205802E+03  0.00000000000E+00 0.  1.
        -24    2    1    2    0    0 -0.24676817165E+02 -0.78865086999E+01 -0.68886601327E+03  0.69419332092E+03  0.81834224143E+02 0.  0.
         25    2    1    2    0    0  0.46225423442E+02  0.79075573409E+02  0.44103599882E+03  0.46749303180E+03  0.12508895412E+03 0.  0.
         24    2    1    2    0    0 -0.21548606277E+02 -0.71189064709E+02  0.12204814806E+04  0.12254292295E+04  0.81052616177E+02 0.  0.
        -13    1    5    5    0    0 -0.22323348302E+02  0.85163349949E+01  0.14109897591E+03  0.14310758485E+03  0.00000000000E+00 0.  1.
         14    1    5    5    0    0  0.77474202475E+00 -0.79705399704E+02  0.10793825047E+04  0.10823216446E+04  0.00000000000E+00 0. -1.
         13    1    3    3    0    0  0.15242576992E+02 -0.34337449788E+02 -0.27078404591E+03  0.27337775354E+03  0.00000000000E+00 0. -1.
        -14    1    3    3    0    0 -0.39919394156E+02  0.26450941089E+02 -0.41808196736E+03  0.42081556737E+03  0.00000000000E+00 0.  1.
          5    1    4    4  501    0  0.32088640938E+02  0.47714356144E+02  0.54268684831E+02  0.79176405657E+02  0.41800000000E+01 0.  1.
         -5    1    4    4    0  501  0.14136782504E+02  0.31361217265E+02  0.38676731399E+03  0.38831662615E+03  0.41800000000E+01 0.  1.
</event>
<event>
11    1  0.8479398E-009  0.2383248E+03  0.7561462E-02  0.1030309E+00
         22   -1    0    0    0    0  0.00000000000E+00  0.00000000000E+00  0.20841956461E+03  0.20841956461E+03  0.00000000000E+00 0. -1.
         22   -1    0    0    0    0 -0.00000000000E+00 -0.00000000000E+00 -0.13131951943E+04  0.13131951943E+04  0.00000000000E+00 0. -1.
         24    2    1    2    0    0 -0.42030164961E+02 -0.11877195639E+03 -0.73934576507E+03  0.75429003693E+03  0.80299359289E+02 0.  0.
         25    2    1    2    0    0 -0.12627140712E+03  0.22451579381E+03 -0.45320144441E+03  0.53608836303E+03  0.12508946332E+03 0.  0.
        -24    2    1    2    0    0  0.16830157208E+03 -0.10574383741E+03  0.87771579784E+02  0.23123635895E+03  0.79115265071E+02 0.  0.
        -13    1    3    3    0    0 -0.37944145026E+02 -0.90929985797E+02 -0.34093920011E+03  0.35489091089E+03  0.00000000000E+00 0.  1.
         14    1    3    3    0    0 -0.40860199350E+01 -0.27841970596E+02 -0.39840656495E+03  0.39939912604E+03  0.00000000000E+00 0. -1.
         11    1    5    5    0    0  0.11111930303E+03 -0.24766869860E+02  0.36014127782E+02  0.11940651050E+03  0.00000000000E+00 0. -1.
        -12    1    5    5    0    0  0.57182269049E+02 -0.80976967552E+02  0.51757452002E+02  0.11182984845E+03  0.00000000000E+00 0.  1.
          5    1    4    4  501    0 -0.59820335198E+02  0.19431253784E+03 -0.26391992348E+03  0.33317718000E+03  0.41800000000E+01 0. -1.
         -5    1    4    4    0  501 -0.66451071923E+02  0.30203255967E+02 -0.18928152093E+03  0.20291118303E+03  0.41800000000E+01 0. -1.
</event>
<event>
11    1  0.8479398E-009  0.1549424E+03  0.7561462E-02  0.1091933E+00
         22   -1    0    0    0    0  0.00000000000E+00  0.00000000000E+00  0.46031173207E+03  0.46031173207E+03  0.00000000000E+00 0.  1.
         22   -1    0    0    0    0 -0.00000000000E+00 -0.00000000000E+00 -0.32182966813E+03  0.32182966813E+03  0.00000000000E+00 0.  1.
        -24    2    1    2    0    0 -0.87597134560E+02  0.16136795154E+02 -0.25346986726E+03  0.28045166198E+03  0.80451892191E+02 0.  0.
         25    2    1    2    0    0  0.11751116543E+03 -0.14670780438E+02  0.10557528197E+03  0.20203735635E+03  0.12509535322E+03 0.  0.
         24    2    1    2    0    0 -0.29914030870E+02 -0.14660147160E+01  0.28637664923E+03  0.29965238187E+03  0.82963644412E+02 0.  0.
        -11    1    5    5    0    0 -0.33704911345E+02 -0.22343691638E+02  0.26956325166E+03  0.27257954481E+03  0.00000000000E+00 0.  1.
         12    1    5    5    0    0  0.37908804754E+01  0.20877676922E+02  0.16813397568E+02  0.27072837055E+02  0.00000000000E+00 0. -1.
         11    1    3    3    0    0 -0.21423635970E+02 -0.30543323969E+02 -0.10342583388E+03  0.10994894238E+03  0.00000000000E+00 0. -1.
        -12    1    3    3    0    0 -0.66173498590E+02  0.46680119123E+02 -0.15004403338E+03  0.17050271960E+03  0.00000000000E+00 0.  1.
          5    1    4    4  501    0  0.64240510057E+02  0.34520013138E+02 -0.10154130928E+01  0.73054622736E+02  0.41800000000E+01 0. -1.
         -5    1    4    4    0  501  0.53270655373E+02 -0.49190793576E+02  0.10659069506E+03  0.12898273361E+03  0.41800000000E+01 0. -1.
</event>
<event>
11    1  0.8479398E-009  0.1422441E+03  0.7561462E-02  0.1105078E+00
         22   -1    0    0    0    0  0.00000000000E+00  0.00000000000E+00  0.30904891213E+03  0.30904891213E+03  0.00000000000E+00 0. -1.
         22   -1    0    0    0    0 -0.00000000000E+00 -0.00000000000E+00 -0.45951846873E+03  0.45951846873E+03  0.00000000000E+00 0. -1.
         24    2    1    2    0    0 -0.10224181449E+02 -0.29494659431E+01 -0.18544995392E+03  0.20545462850E+03  0.87787731066E+02 0.  0.
         25    2    1    2    0    0  0.10492647288E+02 -0.64896095334E+02 -0.23221995150E+03  0.27183773864E+03  0.12509217176E+03 0.  0.
        -24    2    1    2    0    0 -0.26846583927E+00  0.67845561277E+02  0.26720034882E+03  0.29127501373E+03  0.94031988990E+02 0.  0.
        -13    1    3    3    0    0  0.20778447065E+02  0.14112159855E+02 -0.10946620359E+02  0.27399368889E+02  0.00000000000E+00 0.  1.
         14    1    3    3    0    0 -0.31002628514E+02 -0.17061625798E+02 -0.17450333356E+03  0.17805525961E+03  0.00000000000E+00 0. -1.
         13    1    5    5    0    0 -0.92137581095E+01  0.98984995704E+01  0.20627806767E+03  0.20672086211E+03  0.00000000000E+00 0. -1.
        -14    1    5    5    0    0  0.89452922703E+01  0.57947061707E+02  0.60922281150E+02  0.84554151612E+02  0.00000000000E+00 0.  1.
          5    1    4    4  501    0  0.41159433211E+02 -0.49988234663E+02 -0.39252860095E+02  0.75836547737E+02  0.41800000000E+01 0. -1.
         -5    1    4    4    0  501 -0.30666785923E+02 -0.14907860671E+02 -0.19296709140E+03  0.19600119090E+03  0.41800000000E+01 0. -1.
</event>
<event>
11    1  0.8479398E-009  0.1334397E+03  0.7561462E-02  0.1115113E+00
         22   -1    0    0    0    0  0.00000000000E+00  0.00000000000E+00  0.96015127122E+03  0.96015127122E+03  0.00000000000E+00 0. -1.
         22   -1    0    0    0    0 -0.00000000000E+00 -0.00000000000E+00 -0.18828578348E+03  0.18828578348E+03  0.00000000000E+00 0. -1.
        -24    2    1    2    0    0 -0.13246964104E+02 -0.20854471085E+02 -0.16425713200E+03  0.18445227975E+03  0.80198797182E+02 0.  0.
         25    2    1    2    0    0  0.21361080832E+02 -0.30966783326E+02  0.45536192461E+03  0.47372686581E+03  0.12508966210E+03 0.  0.
         24    2    1    2    0    0 -0.81141167289E+01  0.51821254410E+02  0.48076069513E+03  0.49025790915E+03  0.80440600440E+02 0.  0.
        -13    1    5    5    0    0 -0.97917861786E+01  0.59291383218E+02  0.18744931996E+03  0.19684662749E+03  0.00000000000E+00 0.  1.
         14    1    5    5    0    0  0.16776694498E+01 -0.74701288080E+01  0.29331137517E+03  0.29341128165E+03  0.00000000000E+00 0. -1.
         13    1    3    3    0    0 -0.10861283752E+02 -0.36575275476E+02 -0.16417617534E+03  0.16855128244E+03  0.00000000000E+00 0. -1.
        -14    1    3    3    0    0 -0.23856803512E+01  0.15720804392E+02 -0.80956654629E-01  0.15900997310E+02  0.00000000000E+00 0.  1.
          5    1    4    4  501    0  0.35801437326E+02  0.19236342800E+02  0.48112464770E+02  0.63119422250E+02  0.41800000000E+01 0. -1.
         -5    1    4    4    0  501 -0.14440356494E+02 -0.50203126126E+02  0.40724945984E+03  0.41060744356E+03  0.41800000000E+01 0. -1.
</event>
<event>
11    1  0.8479398E-009  0.1613056E+03  0.7561462E-02  0.1085856E+00
         22   -1    0    0    0    0  0.00000000000E+00  0.00000000000E+00  0.20763675343E+03  0.20763675343E+03  0.00000000000E+00 0. -1.
         22   -1    0    0    0    0 -0.00000000000E+00 -0.00000000000E+00 -0.17709759384E+04  0.17709759384E+04  0.00000000000E+00 0.  1.
         24    2    1    2    0    0  0.52951886631E+01 -0.20919824104E+02 -0.16202909003E+04  0.16224653098E+04  0.81150487919E+02 0.  0.
         25    2    1    2    0    0 -0.47812048605E+01 -0.84626908499E+02 -0.76695481689E+02  0.16945545161E+03  0.12509348347E+03 0.  0.
        -24    2    1    2    0    0 -0.51398380263E+00  0.10554673260E+03  0.13364719703E+03  0.18669193046E+03  0.76497886780E+02 0.  0.
        -13    1    3    3    0    0  0.35917428968E+02 -0.19513802405E+02 -0.13159032689E+04  0.13165379840E+04  0.00000000000E+00 0.  1.
         14    1    3    3    0    0 -0.30622240304E+02 -0.14060216984E+01 -0.30438763143E+03  0.30592732580E+03  0.00000000000E+00 0. -1.
         13    1    5    5    0    0 -0.25905996573E+02  0.25053541393E+02  0.77071719977E+02  0.85081435196E+02  0.00000000000E+00 0. -1.
        -14    1    5    5    0    0  0.25392012770E+02  0.80493191210E+02  0.56575477049E+02  0.10161049526E+03  0.00000000000E+00 0.  1.
          5    1    4    4  501    0  0.67672143250E+01 -0.91662282183E+02 -0.55278868929E+00  0.92008407985E+02  0.41800000000E+01 0.  1.
         -5    1    4    4    0  501 -0.11548419185E+02  0.70353736836E+01 -0.76142692999E+02  0.77447043622E+02  0.41800000000E+01 0.  1.
</event>
<event>
11    1  0.8479398E-009  0.1391834E+03  0.7561462E-02  0.1108474E+00
         22   -1    0    0    0    0  0.00000000000E+00  0.00000000000E+00  0.12024844573E+03  0.12024844573E+03  0.00000000000E+00 0.  1.
         22   -1    0    0    0    0 -0.00000000000E+00 -0.00000000000E+00 -0.11025534178E+04  0.11025534178E+04  0.00000000000E+00 0.  1.
        -24    2    1    2    0    0  0.11847249663E+02  0.79512577225E+01 -0.92054249514E+03  0.92412386831E+03  0.80017865474E+02 0.  0.
         25    2    1    2    0    0  0.49318570688E+02 -0.21569956038E+02 -0.11887984304E+03  0.18076897065E+03  0.12508964486E+03 0.  0.
         24    2    1    2    0    0 -0.61165820351E+02  0.13618698315E+02  0.57117366128E+02  0.11790902455E+03  0.81935450417E+02 0.  0.
        -13    1    5    5    0    0 -0.63397940026E+02  0.15069357620E+02  0.75271957413E+02  0.99560292845E+02  0.00000000000E+00 0.  1.
         14    1    5    5    0    0  0.22321196751E+01 -0.14506593051E+01 -0.18154591284E+02  0.18348731710E+02  0.00000000000E+00 0. -1.
         13    1    3    3    0    0  0.20639209733E+02  0.41563579601E+02 -0.50026259918E+03  0.50241036640E+03  0.00000000000E+00 0. -1.
        -14    1    3    3    0    0 -0.87919600703E+01 -0.33612321879E+02 -0.42027989597E+03  0.42171350192E+03  0.00000000000E+00 0.  1.
          5    1    4    4  501    0 -0.34214275463E+02  0.14767107985E+02 -0.10123861515E+02  0.38841332311E+02  0.41800000000E+01 0.  1.
         -5    1    4    4    0  501  0.83532846151E+02 -0.36337064023E+02 -0.10875598153E+03  0.14192763834E+03  0.41800000000E+01 0.  1.
</event>
<event>
11    1  0.8479398E-009  0.1381841E+03  0.7561462E-02  0.1109603E+00
         22   -1    0    0    0    0  0.00000000000E+00  0.00000000000E+00  0.83344577252E+03  0.83344577252E+03  0.00000000000E+00 0. -1.
         22   -1    0    0    0    0 -0.00000000000E+00 -0.00000000000E+00 -0.36935011080E+03  0.36935011080E+03  0.00000000000E+00 0.  1.
         24    2    1    2    0    0  0.87909840779E+01 -0.30547956869E+02 -0.29600930399E+03  0.30852815954E+03  0.80979368401E+02 0.  0.
         25    2    1    2    0    0 -0.65865311959E+02  0.40699099103E+02  0.21474835881E+02  0.14867110796E+03  0.12508906338E+03 0.  0.
        -24    2    1    2    0    0  0.57074327881E+02 -0.10151142234E+02  0.73863012984E+03  0.74559661582E+03  0.83542325979E+02 0.  0.
        -11    1    3    3    0    0 -0.14271074283E+02 -0.47303851109E+02 -0.24645935261E+03  0.25136334335E+03  0.00000000000E+00 0.  1.
         12    1    3    3    0    0  0.23062058361E+02  0.16755894240E+02 -0.49549951379E+02  0.57164816183E+02  0.00000000000E+00 0. -1.
         13    1    5    5    0    0  0.66175717578E+02  0.20327365941E+02  0.54346035201E+03  0.54785178800E+03  0.00000000000E+00 0. -1.
        -14    1    5    5    0    0 -0.91013896968E+01 -0.30478508175E+02  0.19516977783E+03  0.19774482783E+03  0.00000000000E+00 0.  1.
          5    1    4    4  501    0 -0.55997350401E+01  0.66080527111E+02 -0.22044351720E+02  0.70010134541E+02  0.41800000000E+01 0.  1.
         -5    1    4    4    0  501 -0.60265576919E+02 -0.25381428007E+02  0.43519187601E+02  0.78660973415E+02  0.41800000000E+01 0.  1.
</event>
<event>
11    1  0.8479398E-009  0.2272487E+03  0.7561462E-02  0.1036769E+00
         22   -1    0    0    0    0  0.00000000000E+00  0.00000000000E+00  0.41109481657E+04  0.41109481657E+04  0.00000000000E+00 0. -1.
         22   -1    0    0    0    0 -0.00000000000E+00 -0.00000000000E+00 -0.14551897932E+04  0.14551897932E+04  0.00000000000E+00 0. -1.
         24    2    1    2    0    0 -0.12405538221E+03  0.14374340423E+03 -0.14342783544E+04  0.14490247010E+04  0.80413196305E+02 0.  0.
         25    2    1    2    0    0  0.12737833728E+03 -0.11654633327E+03  0.86215627062E+03  0.88812734921E+03  0.12509382416E+03 0.  0.
        -24    2    1    2    0    0 -0.33229550728E+01 -0.27197070960E+02  0.32278804563E+04  0.32289859088E+04  0.79918936792E+02 0.  0.
        -13    1    3    3    0    0 -0.54373484640E+01  0.12606754869E+02 -0.36232923085E+03  0.36258925323E+03  0.00000000000E+00 0.  1.
         14    1    3    3    0    0 -0.11861803375E+03  0.13113664936E+03 -0.10719491235E+04  0.10864354478E+04  0.00000000000E+00 0. -1.
         13    1    5    5    0    0  0.68463699604E+01  0.19825484891E+02  0.20701895534E+04  0.20702958024E+04  0.00000000000E+00 0. -1.
        -14    1    5    5    0    0 -0.10169325033E+02 -0.47022555851E+02  0.11576909029E+04  0.11586901063E+04  0.00000000000E+00 0.  1.
          5    1    4    4  501    0  0.12315916119E+03 -0.10951238660E+03  0.86325505316E+03  0.87885601837E+03  0.41800000000E+01 0.  1.
         -5    1    4    4    0  501  0.42191760955E+01 -0.70339466609E+01 -0.10987825464E+01  0.92713308450E+01  0.41800000000E+01 0.  1.
</event>
<event>
11    1  0.8479398E-009  0.1318266E+03  0.7561462E-02  0.1117045E+00
         22   -1    0    0    0    0  0.00000000000E+00  0.00000000000E+00  0.72221068220E+03  0.72221068220E+03  0.00000000000E+00 0.  1.
         22   -1    0    0    0    0 -0.00000000000E+00 -0.00000000000E+00 -0.24924822163E+03  0.24924822163E+03  0.00000000000E+00 0.  1.
        -24    2    1    2    0    0 -0.14906182413E+02  0.36654750510E+02 -0.16388043330E+03  0.18550528476E+03  0.77392824243E+02 0.  0.
         25    2    1    2    0    0  0.46736204671E+02 -0.38065570004E+02 -0.43840598126E+01  0.13892366704E+03  0.12508918753E+03 0.  0.
         24    2    1    2    0    0 -0.31830022258E+02  0.14108194942E+01  0.64122695369E+03  0.64702995204E+03  0.80377932105E+02 0.  0.
        -11    1    5    5    0    0 -0.57326573149E+02 -0.91055125312E+01  0.39046108084E+03  0.39475194996E+03  0.00000000000E+00 0.  1.
         12    1    5    5    0    0  0.25496550890E+02  0.10516332025E+02  0.25076587285E+03  0.25227800208E+03  0.00000000000E+00 0. -1.
         13    1    3    3    0    0  0.11992367307E+01 -0.22942458538E+02 -0.27716358305E+02  0.35999876252E+02  0.00000000000E+00 0. -1.
        -14    1    3    3    0    0 -0.16105419144E+02  0.59597209048E+02 -0.13616407500E+03  0.14950540851E+03  0.00000000000E+00 0.  1.
          5    1    4    4  501    0  0.24840282414E+02 -0.70090607342E+02  0.36039008204E+02  0.82740651317E+02  0.41800000000E+01 0. -1.
         -5    1    4    4    0  501  0.21895922257E+02  0.32025037338E+02 -0.40423068017E+02  0.56183015725E+02  0.41800000000E+01 0. -1.
</event>
<event>
11    1  0.8479398E-009  0.1434821E+03  0.7561462E-02  0.1103731E+00
         22   -1    0    0    0    0  0.00000000000E+00  0.00000000000E+00  0.83301777926E+02  0.83301777926E+02  0.00000000000E+00 0.  1.
         22   -1    0    0    0    0 -0.00000000000E+00 -0.00000000000E+00 -0.11347402731E+04  0.11347402731E+04  0.00000000000E+00 0.  1.
        -24    2    1    2    0    0 -0.41218106792E+02 -0.60815422975E+02 -0.84411903881E+03  0.85118760997E+03  0.81153851944E+02 0.  0.
         25    2    1    2    0    0  0.46800942539E+02  0.32533674037E+02 -0.23795438631E+03  0.27480672989E+03  0.12509068973E+03 0.  0.
         24    2    1    2    0    0 -0.55828357473E+01  0.28281748938E+02  0.30634929974E+02  0.92047711144E+02  0.81873419462E+02 0.  0.
        -11    1    5    5    0    0  0.12983099636E+02  0.20695115739E+02  0.55182478214E+02  0.60348608877E+02  0.00000000000E+00 0.  1.
         12    1    5    5    0    0 -0.18565935383E+02  0.75866331990E+01 -0.24547548240E+02  0.31699102267E+02  0.00000000000E+00 0. -1.
         11    1    3    3    0    0  0.23229115727E+02 -0.27416809758E+02 -0.33460493015E+03  0.33652894758E+03  0.00000000000E+00 0. -1.
        -12    1    3    3    0    0 -0.64447222518E+02 -0.33398613217E+02 -0.50951410866E+03  0.51465866239E+03  0.00000000000E+00 0.  1.
          5    1    4    4  501    0  0.87651264623E+02  0.24468461355E+02 -0.12758559073E+03  0.15677054938E+03  0.41800000000E+01 0. -1.
         -5    1    4    4    0  501 -0.40850322084E+02  0.80652126820E+01 -0.11036879559E+03  0.11803618051E+03  0.41800000000E+01 0. -1.
</event>
<event>
11    1  0.8479398E-009  0.1687219E+03  0.7561462E-02  0.1079149E+00
         22   -1    0    0    0    0  0.00000000000E+00  0.00000000000E+00  0.13054855267E+03  0.13054855267E+03  0.00000000000E+00 0.  1.
         22   -1    0    0    0    0 -0.00000000000E+00 -0.00000000000E+00 -0.92321008597E+03  0.92321008597E+03  0.00000000000E+00 0. -1.
        -24    2    1    2    0    0 -0.22297521827E+00 -0.36943458515E+02 -0.55843757315E+03  0.56542696377E+03  0.80562146297E+02 0.  0.
         25    2    1    2    0    0  0.10338071189E+03  0.78702798213E+02 -0.28776047465E+03  0.33960753965E+03  0.12508192585E+03 0.  0.
         24    2    1    2    0    0 -0.10315773667E+03 -0.41759339698E+02  0.53536514500E+02  0.14872413521E+03  0.82869469183E+02 0.  0.
        -11    1    5    5    0    0 -0.90049911744E+02 -0.39096643835E+02  0.74926100937E+02  0.12349678039E+03  0.00000000000E+00 0.  1.
         12    1    5    5    0    0 -0.13107824930E+02 -0.26626958629E+01 -0.21389586437E+02  0.25227354828E+02  0.00000000000E+00 0. -1.
         13    1    3    3    0    0  0.61613753860E+01 -0.54292712275E+02 -0.51903437968E+03  0.52190262353E+03  0.00000000000E+00 0. -1.
        -14    1    3    3    0    0 -0.63843506042E+01  0.17349253760E+02 -0.39403193462E+02  0.43524340244E+02  0.00000000000E+00 0.  1.
          5    1    4    4  501    0  0.58615015232E+01  0.80426357002E+02 -0.15555362696E+03  0.17526311466E+03  0.41800000000E+01 0.  1.
         -5    1    4    4    0  501  0.97519210369E+02 -0.17235587896E+01 -0.13220684769E+03  0.16434442498E+03  0.41800000000E+01 0.  1.
</event>
<event>
11    1  0.8479398E-009  0.2301068E+03  0.7561462E-02  0.1035065E+00
         22   -1    0    0    0    0  0.00000000000E+00  0.00000000000E+00  0.12931249479E+04  0.12931249479E+04  0.00000000000E+00 0. -1.
         22   -1    0    0    0    0 -0.00000000000E+00 -0.00000000000E+00 -0.31416898006E+03  0.31416898006E+03  0.00000000000E+00 0.  1.
        -24    2    1    2    0    0 -0.13447700707E+03 -0.14269930592E+01 -0.18677920340E+03  0.24404359648E+03  0.81146191650E+02 0.  0.
         25    2    1    2    0    0  0.64113152550E+02  0.18597935805E+03  0.64873155275E+02  0.24197890287E+03  0.12508575141E+03 0.  0.
         24    2    1    2    0    0  0.70363854522E+02 -0.18455236499E+03  0.11008620160E+04  0.11212714286E+04  0.79635362614E+02 0.  0.
        -13    1    5    5    0    0  0.84161171652E+02 -0.12027020098E+03  0.79213228252E+03  0.80561875417E+03  0.00000000000E+00 0.  1.
         14    1    5    5    0    0 -0.13797317129E+02 -0.64282164015E+02  0.30872973347E+03  0.31565267447E+03  0.00000000000E+00 0. -1.
         13    1    3    3    0    0 -0.74201810835E+02  0.30614161109E+02 -0.13970719719E+03  0.16112490974E+03  0.00000000000E+00 0. -1.
        -14    1    3    3    0    0 -0.60275196237E+02 -0.32041154168E+02 -0.47072006204E+02  0.82918686735E+02  0.00000000000E+00 0.  1.
          5    1    4    4  501    0  0.70942179983E+01  0.10020548234E+03 -0.26774822905E+02  0.10404724965E+03  0.41800000000E+01 0. -1.
         -5    1    4    4    0  501  0.57018934551E+02  0.85773875717E+02  0.91647978181E+02  0.13793165321E+03  0.41800000000E+01 0. -1.
</event>
<event>
11    1  0.8479398E-009  0.1590477E+03  0.7561462E-02  0.1087976E+00
         22   -1    0    0    0    0  0.00000000000E+00  0.00000000000E+00  0.58784216004E+03  0.58784216004E+03  0.00000000000E+00 0. -1.
         22   -1    0    0    0    0 -0.00000000000E+00 -0.00000000000E+00 -0.93475420686E+03  0.93475420686E+03  0.00000000000E+00 0.  1.
         24    2    1    2    0    0  0.92693661856E+02  0.35298893028E+02 -0.85277100941E+03  0.86254362595E+03  0.83216497048E+02 0.  0.
         25    2    1    2    0    0 -0.74125642781E+02 -0.38825307656E+02  0.31987194584E+01  0.15053204158E+03  0.12509056041E+03 0.  0.
        -24    2    1    2    0    0 -0.18568019075E+02  0.35264146276E+01  0.50266024314E+03  0.50952069936E+03  0.81159202252E+02 0.  0.
        -11    1    3    3    0    0  0.93190136584E+00 -0.91176693781E+00 -0.35964282175E+03  0.35964518486E+03  0.00000000000E+00 0.  1.
         12    1    3    3    0    0  0.91761760490E+02  0.36210659966E+02 -0.49312818766E+03  0.50289844109E+03  0.00000000000E+00 0. -1.
         11    1    5    5    0    0 -0.15041595618E+02  0.15385327005E+02  0.49388269163E+03  0.49435116161E+03  0.00000000000E+00 0. -1.
        -12    1    5    5    0    0 -0.35264234570E+01 -0.11858912377E+02  0.87775515019E+01  0.15169537750E+02  0.00000000000E+00 0.  1.
          5    1    4    4  501    0 -0.97806435225E+02 -0.48498863312E+02 -0.25162398003E+02  0.11211091467E+03  0.41800000000E+01 0. -1.
         -5    1    4    4    0  501  0.23680792444E+02  0.96735556555E+01  0.28361117462E+02  0.38421126916E+02  0.41800000000E+01 0. -1.
</event>
<event>
11    1  0.8479398E-009  0.1342062E+03  0.7561462E-02  0.1114206E+00
         22   -1    0    0    0    0  0.00000000000E+00  0.00000000000E+00  0.33233296083E+03  0.33233296083E+03  0.00000000000E+00 0.  1.
         22   -1    0    0    0    0 -0.00000000000E+00 -0.00000000000E+00 -0.16615163262E+04  0.16615163262E+04  0.00000000000E+00 0. -1.
         24    2    1    2    0    0  0.37427719507E+02 -0.30033930966E+02 -0.15941337522E+04  0.15969828080E+04  0.82394162662E+02 0.  0.
         25    2    1    2    0    0 -0.91041688094E+02  0.47584846245E+02  0.62818543351E+02  0.17362812312E+03  0.12509056394E+03 0.  0.
        -24    2    1    2    0    0  0.53613968587E+02 -0.17550915279E+02  0.20213184345E+03  0.22323835590E+03  0.76128766944E+02 0.  0.
        -13    1    3    3    0    0  0.50010610267E+01 -0.19190162133E+01 -0.51865660820E+01  0.74561184501E+01  0.00000000000E+00 0.  1.
         14    1    3    3    0    0  0.32426658480E+02 -0.28114914753E+02 -0.15889471861E+04  0.15895266896E+04  0.00000000000E+00 0. -1.
         11    1    5    5    0    0  0.24033432557E+02 -0.47054727644E+02  0.10689080412E+03  0.11923672789E+03  0.00000000000E+00 0. -1.
        -12    1    5    5    0    0  0.29580536030E+02  0.29503812365E+02  0.95241039330E+02  0.10400162801E+03  0.00000000000E+00 0.  1.
          5    1    4    4  501    0 -0.92091150343E+02  0.31886307311E+02 -0.10883042339E+02  0.98150036047E+02  0.41800000000E+01 0.  1.
         -5    1    4    4    0  501  0.10494622493E+01  0.15698538934E+02  0.73701585690E+02  0.75478087078E+02  0.41800000000E+01 0.  1.
</event>
<event>
11    1  0.8479398E-009  0.1345817E+03  0.7561462E-02  0.1113764E+00
         22   -1    0    0    0    0  0.00000000000E+00  0.00000000000E+00  0.19767478196E+04  0.19767478196E+04  0.00000000000E+00 0.  1.
         22   -1    0    0    0    0 -0.00000000000E+00 -0.00000000000E+00 -0.30147110607E+02  0.30147110607E+02  0.00000000000E+00 0.  1.
         24    2    1    2    0    0  0.66354034558E+01 -0.24924805293E+02  0.54549681254E+02  0.99250366719E+02  0.78801605764E+02 0.  0.
         25    2    1    2    0    0  0.39100155229E+02 -0.47521414551E+01  0.74480848988E+03  0.75626549398E+03  0.12508559395E+03 0.  0.
        -24    2    1    2    0    0 -0.45735558685E+02  0.29676946748E+02  0.11472425379E+04  0.11513790695E+04  0.80844656664E+02 0.  0.
        -11    1    3    3    0    0 -0.35938109685E+02 -0.12534548676E+02  0.30724991465E+02  0.48915107469E+02  0.00000000000E+00 0.  1.
         12    1    3    3    0    0  0.42573513140E+02 -0.12390256618E+02  0.23824689789E+02  0.50335259250E+02  0.00000000000E+00 0. -1.
         11    1    5    5    0    0 -0.24238593444E+02  0.10885419100E+02  0.92252718816E+02  0.96002947299E+02  0.00000000000E+00 0. -1.
        -12    1    5    5    0    0 -0.21496965241E+02  0.18791527648E+02  0.10549898191E+04  0.10553761222E+04  0.00000000000E+00 0.  1.
          5    1    4    4  501    0  0.60693440213E+02 -0.67339696811E+01  0.16420363026E+03  0.17524081894E+03  0.41800000000E+01 0.  1.
         -5    1    4    4    0  501 -0.21593284984E+02  0.19818282260E+01  0.58060485962E+03  0.58102467505E+03  0.41800000000E+01 0.  1.
</event>
<event>
11    1  0.8479398E-009  0.1451320E+03  0.7561462E-02  0.1101959E+00
         22   -1    0    0    0    0  0.00000000000E+00  0.00000000000E+00  0.17233856534E+04  0.17233856534E+04  0.00000000000E+00 0. -1.
         22   -1    0    0    0    0 -0.00000000000E+00 -0.00000000000E+00 -0.31887863964E+03  0.31887863964E+03  0.00000000000E+00 0.  1.
        -24    2    1    2    0    0  0.55240935391E+02  0.46235594492E+02 -0.28124165391E+03  0.30158036854E+03  0.81636754301E+02 0.  0.
         25    2    1    2    0    0 -0.90422817860E+02 -0.73982871981E+02  0.25622206477E+03  0.30813410546E+03  0.12508848522E+03 0.  0.
         24    2    1    2    0    0  0.35181882469E+02  0.27747277490E+02  0.14295266029E+04  0.14325498191E+04  0.81516865359E+02 0.  0.
        -11    1    5    5    0    0 -0.25640906203E+02  0.34821167315E+01  0.53770077890E+03  0.53832305248E+03  0.00000000000E+00 0.  1.
         12    1    5    5    0    0  0.60822788673E+02  0.24265160758E+02  0.89182582403E+03  0.89422676657E+03  0.00000000000E+00 0. -1.
         13    1    3    3    0    0 -0.17403530920E+02 -0.63535869008E+01 -0.36672503639E+02  0.41086779846E+02  0.00000000000E+00 0. -1.
        -14    1    3    3    0    0  0.72644466311E+02  0.52589181392E+02 -0.24456915028E+03  0.26049358870E+03  0.00000000000E+00 0.  1.
          5    1    4    4  501    0 -0.10088147120E+03 -0.11531809658E+02  0.11598742711E+03  0.15420962847E+03  0.41800000000E+01 0. -1.
         -5    1    4    4    0  501  0.10458653343E+02 -0.62451062323E+02  0.14023463766E+03  0.15392447698E+03  0.41800000000E+01 0. -1.
</event>
<event>
11    1  0.8479398E-009  0.1259734E+03  0.7561462E-02  0.1124318E+00
         22   -1    0    0    0    0  0.00000000000E+00  0.00000000000E+00  0.69698773694E+03  0.69698773694E+03  0.00000000000E+00 0.  1.
         22   -1    0    0    0    0 -0.00000000000E+00 -0.00000000000E+00 -0.15232397504E+04  0.15232397504E+04  0.00000000000E+00 0.  1.
         24    2    1    2    0    0 -0.11018895019E+02  0.97243288831E+01 -0.14831136909E+04  0.14854266851E+04  0.81548992196E+02 0.  0.
         25    2    1    2    0    0  0.21873286715E+02 -0.27555716366E+02  0.81001505056E+02  0.15312267676E+03  0.12509017604E+03 0.  0.
        -24    2    1    2    0    0 -0.10854391696E+02  0.17831387483E+02  0.57586017238E+03  0.58167812546E+03  0.79364521699E+02 0.  0.
        -11    1    3    3    0    0  0.78704702107E+01 -0.15494733322E+02 -0.12578453865E+04  0.12579654397E+04  0.00000000000E+00 0.  1.
         12    1    3    3    0    0 -0.18889365230E+02  0.25219062205E+02 -0.22526830437E+03  0.22746124543E+03  0.00000000000E+00 0. -1.
         13    1    5    5    0    0  0.29148724563E+02  0.16922012228E+02  0.14063450781E+03  0.14461696798E+03  0.00000000000E+00 0. -1.
        -14    1    5    5    0    0 -0.40003116258E+02  0.90937525444E+00  0.43522566457E+03  0.43706115748E+03  0.00000000000E+00 0.  1.
          5    1    4    4  501    0 -0.49687091695E+02 -0.27736198668E+02  0.46313449762E+02  0.73488174739E+02  0.41800000000E+01 0.  1.
         -5    1    4    4    0  501  0.71560378410E+02  0.18048230183E+00  0.34688055294E+02  0.79634502021E+02  0.41800000000E+01 0.  1.
</event>
<event>
11    1  0.8479398E-009  0.1267854E+03  0.7561462E-02  0.1123283E+00
         22   -1    0    0    0    0  0.00000000000E+00  0.00000000000E+00  0.29904680025E+03  0.29904680025E+03  0.00000000000E+00 0.  1.
         22   -1    0    0    0    0 -0.00000000000E+00 -0.00000000000E+00 -0.16373955394E+03  0.16373955394E+03  0.00000000000E+00 0. -1.
        -24    2    1    2    0    0 -0.18034519847E+02 -0.22016355281E+01 -0.86029907442E+02  0.11227892645E+03  0.69823500667E+02 0.  0.
         25    2    1    2    0    0  0.34547810043E+02 -0.22988086246E+02  0.12168528062E+02  0.13235783589E+03  0.12509404606E+03 0.  0.
         24    2    1    2    0    0 -0.16513290196E+02  0.25189721774E+02  0.20916862570E+03  0.21814959185E+03  0.54134273901E+02 0.  0.
        -11    1    5    5    0    0  0.12994667290E+02 -0.80123709648E+00  0.11989045964E+03  0.12059529705E+03  0.00000000000E+00 0.  1.
         12    1    5    5    0    0 -0.29507957486E+02  0.25990958870E+02  0.89278166055E+02  0.97554294791E+02  0.00000000000E+00 0. -1.
         13    1    3    3    0    0 -0.14886390996E+02 -0.10001754610E+01 -0.98365912384E+02  0.99490993095E+02  0.00000000000E+00 0. -1.
        -14    1    3    3    0    0 -0.31481288508E+01 -0.12014600671E+01  0.12336004943E+02  0.12787933355E+02  0.00000000000E+00 0.  1.
          5    1    4    4  501    0  0.75791195252E+02 -0.30967928355E+02 -0.13303377298E+02  0.83052815195E+02  0.41800000000E+01 0. -1.
         -5    1    4    4    0  501 -0.41243385209E+02  0.79798421094E+01  0.25471905360E+02  0.49305020700E+02  0.41800000000E+01 0. -1.
</event>
<event>
11    1  0.8479398E-009  0.1396006E+03  0.7561462E-02  0.1108005E+00
         22   -1    0    0    0    0  0.00000000000E+00  0.00000000000E+00  0.43887340591E+03  0.43887340591E+03  0.00000000000E+00 0.  1.
         22   -1    0    0    0    0 -0.00000000000E+00 -0.00000000000E+00 -0.31451760345E+03  0.31451760345E+03  0.00000000000E+00 0.  1.
         24    2    1    2    0    0 -0.66067243291E+02  0.53039619816E+01 -0.19246926423E+03  0.21875604644E+03  0.80104790962E+02 0.  0.
         25    2    1    2    0    0  0.45944272314E+02 -0.18868722889E+02 -0.60696363695E+02  0.14764278052E+03  0.12508971665E+03 0.  0.
        -24    2    1    2    0    0  0.20122970977E+02  0.13564760907E+02  0.37752143038E+03  0.38699218240E+03  0.81557232320E+02 0.  0.
        -11    1    3    3    0    0 -0.42893411866E+02 -0.36353790299E+02 -0.10825556591E+03  0.12198651730E+03  0.00000000000E+00 0.  1.
         12    1    3    3    0    0 -0.23173831425E+02  0.41657752281E+02 -0.84213698313E+02  0.96769529148E+02  0.00000000000E+00 0. -1.
         11    1    5    5    0    0  0.40203311842E+02  0.26419307243E+02  0.13525877790E+03  0.14355912746E+03  0.00000000000E+00 0. -1.
        -12    1    5    5    0    0 -0.20080340864E+02 -0.12854546336E+02  0.24226265248E+03  0.24343305494E+03  0.00000000000E+00 0.  1.
          5    1    4    4  501    0 -0.34554212498E+02 -0.35813984689E+02 -0.36290933424E+02  0.61734425967E+02  0.41800000000E+01 0. -1.
         -5    1    4    4    0  501  0.80498484812E+02  0.16945261801E+02 -0.24405430270E+02  0.85908354548E+02  0.41800000000E+01 0. -1.
</event>
<event>
11    1  0.8479398E-009  0.1468834E+03  0.7561462E-02  0.1100107E+00
         22   -1    0    0    0    0  0.00000000000E+00  0.00000000000E+00  0.11017252724E+04  0.11017252724E+04  0.00000000000E+00 0. -1.
         22   -1    0    0    0    0 -0.00000000000E+00 -0.00000000000E+00 -0.50427754679E+03  0.50427754679E+03  0.00000000000E+00 0.  1.
         24    2    1    2    0    0  0.43394489969E+02  0.19425549128E+02 -0.47754540604E+03  0.48653432719E+03  0.80035010969E+02 0.  0.
         25    2    1    2    0    0 -0.76708714525E+02  0.49218231394E+02  0.31033209391E+03  0.34677264602E+03  0.12505438147E+03 0.  0.
        -24    2    1    2    0    0  0.33314224557E+02 -0.68643780522E+02  0.76466103777E+03  0.77269584602E+03  0.80811890232E+02 0.  0.
        -11    1    3    3    0    0  0.88378913891E+01  0.20624114658E+02 -0.41036260304E+03  0.41097558128E+03  0.00000000000E+00 0.  1.
         12    1    3    3    0    0  0.34556598580E+02 -0.11985655301E+01 -0.67182803001E+02  0.75558745912E+02  0.00000000000E+00 0. -1.
         11    1    5    5    0    0  0.53265178752E+02 -0.38675235430E+02  0.62546753326E+03  0.62892176641E+03  0.00000000000E+00 0. -1.
        -12    1    5    5    0    0 -0.19950954195E+02 -0.29968545092E+02  0.13919350452E+03  0.14377407961E+03  0.00000000000E+00 0.  1.
          5    1    4    4  501    0 -0.30664194987E+02  0.16830494409E+02  0.28092030057E+03  0.28312055041E+03  0.41800000000E+01 0. -1.
         -5    1    4    4    0  501 -0.46044519538E+02  0.32387736986E+02  0.29411793347E+02  0.63652095601E+02  0.41800000000E+01 0. -1.
</event>
<event>
11    1  0.8479398E-009  0.4355545E+03  0.7561462E-02  0.9550311E-01
         22   -1    0    0    0    0  0.00000000000E+00  0.00000000000E+00  0.50283539898E+03  0.50283539898E+03  0.00000000000E+00 0. -1.
         22   -1    0    0    0    0 -0.00000000000E+00 -0.00000000000E+00 -0.43936941349E+04  0.43936941349E+04  0.00000000000E+00 0.  1.
        -24    2    1    2    0    0  0.72533781751E+01  0.24509794300E+02 -0.39791110696E+04  0.39800198864E+04  0.81117507266E+02 0.  0.
         25    2    1    2    0    0 -0.42141034538E+03  0.70830272291E+01 -0.10425284689E+03  0.45183310763E+03  0.12509057757E+03 0.  0.
         24    2    1    2    0    0  0.41415696720E+03 -0.31592821529E+02  0.19250518063E+03  0.46467653985E+03  0.79636312475E+02 0.  0.
        -11    1    5    5    0    0  0.11006826289E+03  0.14241486806E+02  0.22337366820E+02  0.11321130862E+03  0.00000000000E+00 0.  1.
         12    1    5    5    0    0  0.30408870431E+03 -0.45834308335E+02  0.17016781381E+03  0.35146523123E+03  0.00000000000E+00 0. -1.
         11    1    3    3    0    0 -0.20367076279E+02 -0.17826487447E+02 -0.70624196136E+03  0.70676043284E+03  0.00000000000E+00 0. -1.
        -12    1    3    3    0    0  0.27620454454E+02  0.42336281747E+02 -0.32728691083E+04  0.32732594535E+04  0.00000000000E+00 0.  1.
          5    1    4    4  501    0 -0.90089151141E+02 -0.50284877665E+02 -0.20282324948E+02  0.10523055250E+03  0.41800000000E+01 0. -1.
         -5    1    4    4    0  501 -0.33132119424E+03  0.57367904894E+02 -0.83970521938E+02  0.34660255512E+03  0.41800000000E+01 0. -1.
</event>
<event>
11    1  0.8479398E-009  0.1563542E+03  0.7561462E-02  0.1090557E+00
         22   -1    0    0    0    0  0.00000000000E+00  0.00000000000E+00  0.96052158761E+03  0.96052158761E+03  0.00000000000E+00 0. -1.
         22   -1    0    0    0    0 -0.00000000000E+00 -0.00000000000E+00 -0.44696240119E+03  0.44696240119E+03  0.00000000000E+00 0. -1.
        -24    2    1    2    0    0 -0.12305842053E+02  0.10513816337E+02 -0.41842834174E+03  0.42658944256E+03  0.81451220059E+02 0.  0.
         25    2    1    2    0    0 -0.61027492737E+02 -0.70059367954E+02  0.31506825011E+03  0.35149377047E+03  0.12508876266E+03 0.  0.
         24    2    1    2    0    0  0.73333334790E+02  0.59545551617E+02  0.61691927804E+03  0.62940077577E+03  0.81440101975E+02 0.  0.
        -13    1    5    5    0    0  0.52559558370E+02  0.61911810135E+02  0.27242711849E+03  0.28427471625E+03  0.00000000000E+00 0.  1.
         14    1    5    5    0    0  0.20773776420E+02 -0.23662585178E+01  0.34449215955E+03  0.34512605952E+03  0.00000000000E+00 0. -1.
         11    1    3    3    0    0  0.15333823934E+02  0.80225011751E+01 -0.37268144504E+03  0.37308302851E+03  0.00000000000E+00 0. -1.
        -12    1    3    3    0    0 -0.27639665987E+02  0.24913151615E+01 -0.45746896693E+02  0.53506414047E+02  0.00000000000E+00 0.  1.
          5    1    4    4  501    0 -0.15949777449E+02 -0.17599902606E+02 -0.44709058753E+01  0.24527808132E+02  0.41800000000E+01 0. -1.
         -5    1    4    4    0  501 -0.45077715288E+02 -0.52459465348E+02  0.31953915599E+03  0.32696596234E+03  0.41800000000E+01 0. -1.
</event>
<event>
11    1  0.1170487E-008  0.1609758E+03  0.7561462E-02  0.1086163E+00
         22   -1    0    0    0    0  0.00000000000E+00  0.00000000000E+00  0.16464299127E+04  0.16464299127E+04  0.00000000000E+00 0.  1.
         22   -1    0    0    0    0 -0.00000000000E+00 -0.00000000000E+00 -0.28117844145E+03  0.28117844145E+03  0.00000000000E+00 0.  1.
        -24    2    1    2    0    0 -0.52670582438E+02 -0.10304045942E+03 -0.19879477578E+03  0.24364334505E+03  0.80319301391E+02 0.  0.
         25    2    1    2    0    0  0.52663823125E+02  0.25845945813E+02  0.24748299286E+02  0.14036383195E+03  0.12509210934E+03 0.  0.
         24    2    1    2    0    0  0.67593125101E-02  0.77194513607E+02  0.15392979478E+04  0.15436011772E+04  0.85483502682E+02 0.  0.
        -11    1    5    5    0    0 -0.13602633878E+02  0.56103919299E+02  0.14407759252E+04  0.14419320192E+04  0.00000000000E+00 0.  1.
         12    1    5    5    0    0  0.13609393191E+02  0.21090594308E+02  0.98522022595E+02  0.10166915800E+03  0.00000000000E+00 0. -1.
         11    1    3    3    0    0  0.36517854873E+01 -0.47381772930E+01  0.67030327655E+01  0.89842367266E+01  0.00000000000E+00 0. -1.
        -12    1    3    3    0    0 -0.56322367925E+02 -0.98302282126E+02 -0.20549780855E+03  0.23465910832E+03  0.00000000000E+00 0.  1.
          5    1    4    4  501    0  0.40923188668E+02  0.52773575157E+02  0.63033652715E+02  0.91926445488E+02  0.41800000000E+01 0.  1.
         -5    1    4    4    0  501  0.11740634457E+02 -0.26927629344E+02 -0.38285353429E+02  0.48437386457E+02  0.41800000000E+01 0.  1.
</event>
<event>
11    1  0.8479398E-009  0.2268914E+03  0.7561462E-02  0.1036984E+00
         22   -1    0    0    0    0  0.00000000000E+00  0.00000000000E+00  0.16120044526E+04  0.16120044526E+04  0.00000000000E+00 0.  1.
         22   -1    0    0    0    0 -0.00000000000E+00 -0.00000000000E+00 -0.10825512146E+04  0.10825512146E+04  0.00000000000E+00 0. -1.
         24    2    1    2    0    0 -0.69115026888E+02 -0.23933935597E+03 -0.81698862776E+03  0.85800142983E+03  0.81460551503E+02 0.  0.
         25    2    1    2    0    0 -0.91810984937E+01  0.11000476102E+03 -0.21142818292E+03  0.26932401053E+03  0.12509278996E+03 0.  0.
        -24    2    1    2    0    0  0.78296125381E+02  0.12933459495E+03  0.15578700487E+04  0.15672302268E+04  0.79961080298E+02 0.  0.
        -11    1    3    3    0    0  0.55383351540E+01 -0.96641216607E+01 -0.79446522163E+01  0.13681589914E+02  0.00000000000E+00 0.  1.
         12    1    3    3    0    0 -0.74653362042E+02 -0.22967523431E+03 -0.80904397554E+03  0.84431983992E+03  0.00000000000E+00 0. -1.
         11    1    5    5    0    0 -0.76173620215E+01  0.58419257150E+02  0.60907383255E+03  0.61191647086E+03  0.00000000000E+00 0. -1.
        -12    1    5    5    0    0  0.85913487403E+02  0.70915337798E+02  0.94879621618E+03  0.95531375594E+03  0.00000000000E+00 0.  1.
          5    1    4    4  501    0  0.15134634396E+02  0.10838008057E+03 -0.21780741381E+03  0.24378851682E+03  0.41800000000E+01 0. -1.
         -5    1    4    4    0  501 -0.24315732889E+02  0.16246804579E+01  0.63792308918E+01  0.25535493716E+02  0.41800000000E+01 0. -1.
</event>
<event>
11    1  0.8479398E-009  0.1409105E+03  0.7561462E-02  0.1106546E+00
         22   -1    0    0    0    0  0.00000000000E+00  0.00000000000E+00  0.18230129484E+03  0.18230129484E+03  0.00000000000E+00 0.  1.
         22   -1    0    0    0    0 -0.00000000000E+00 -0.00000000000E+00 -0.14782608336E+04  0.14782608336E+04  0.00000000000E+00 0. -1.
         24    2    1    2    0    0 -0.30744640863E+01 -0.54766512703E+01 -0.94840349662E+03  0.95155687970E+03  0.77148278454E+02 0.  0.
         25    2    1    2    0    0 -0.60291955642E+02 -0.89679094836E+01 -0.50364201220E+03  0.52251161392E+03  0.12509023510E+03 0.  0.
        -24    2    1    2    0    0  0.63366419728E+02  0.14444560754E+02  0.15608597003E+03  0.18649363486E+03  0.78696234459E+02 0.  0.
        -13    1    3    3    0    0 -0.14509919091E+02 -0.25214213457E+02 -0.14819661470E+03  0.15102493477E+03  0.00000000000E+00 0.  1.
         14    1    3    3    0    0  0.11435455004E+02  0.19737562187E+02 -0.80020688191E+03  0.80053194493E+03  0.00000000000E+00 0. -1.
         11    1    5    5    0    0  0.13961825106E+02  0.37692547213E+02  0.33601052639E+02  0.52389802578E+02  0.00000000000E+00 0. -1.
        -12    1    5    5    0    0  0.49404594622E+02 -0.23247986459E+02  0.12248491739E+03  0.13410383228E+03  0.00000000000E+00 0.  1.
          5    1    4    4  501    0 -0.81392486929E+02  0.36138499763E+02 -0.32753733535E+03  0.33945383565E+03  0.41800000000E+01 0.  1.
         -5    1    4    4    0  501  0.21100531287E+02 -0.45106409246E+02 -0.17610467685E+03  0.18305777827E+03  0.41800000000E+01 0.  1.
</event>
<event>
11    1  0.8479398E-009  0.2094685E+03  0.7561462E-02  0.1048023E+00
         22   -1    0    0    0    0  0.00000000000E+00  0.00000000000E+00  0.29393932066E+03  0.29393932066E+03  0.00000000000E+00 0.  1.
         22   -1    0    0    0    0 -0.00000000000E+00 -0.00000000000E+00 -0.10799527474E+04  0.10799527474E+04  0.00000000000E+00 0.  1.
        -24    2    1    2    0    0 -0.58727992127E+02 -0.92245492697E+01 -0.53098518422E+03  0.54034648346E+03  0.80591481864E+02 0.  0.
         25    2    1    2    0    0 -0.98792082376E+02 -0.58608597532E+02 -0.49720491287E+03  0.52540902665E+03  0.12508827547E+03 0.  0.
         24    2    1    2    0    0  0.15752007450E+03  0.67833146801E+02  0.24217667037E+03  0.30813655794E+03  0.82974026003E+02 0.  0.
        -13    1    5    5    0    0  0.14253318432E+03  0.55655918398E+02  0.24476080185E+03  0.28865401436E+03  0.00000000000E+00 0.  1.
         14    1    5    5    0    0  0.14986890179E+02  0.12177228403E+02 -0.25841314762E+01  0.19482543579E+02  0.00000000000E+00 0. -1.
         11    1    3    3    0    0 -0.55981476699E+02 -0.33257584074E+02 -0.25066065639E+03  0.25898022568E+03  0.00000000000E+00 0. -1.
        -12    1    3    3    0    0 -0.27465154283E+01  0.24033034804E+02 -0.28032452783E+03  0.28136625777E+03  0.00000000000E+00 0.  1.
          5    1    4    4  501    0 -0.12851951732E+03 -0.43054283776E+02 -0.41193998810E+03  0.43368532819E+03  0.41800000000E+01 0. -1.
         -5    1    4    4    0  501  0.29727434948E+02 -0.15554313756E+02 -0.85264924764E+02  0.91723698465E+02  0.41800000000E+01 0. -1.
</event>
<event>
11    1  0.8479398E-009  0.1631057E+03  0.7561462E-02  0.1084192E+00
         22   -1    0    0    0    0  0.00000000000E+00  0.00000000000E+00  0.56973867655E+03  0.56973867655E+03  0.00000000000E+00 0. -1.
         22   -1    0    0    0    0 -0.00000000000E+00 -0.00000000000E+00 -0.40135887013E+03  0.40135887013E+03  0.00000000000E+00 0.  1.
        -24    2    1    2    0    0 -0.86204722231E+01 -0.32606014741E+02 -0.33720426289E+03  0.34843520660E+03  0.81011811193E+02 0.  0.
         25    2    1    2    0    0 -0.95111070377E+02  0.49423107844E+02  0.92620182008E+02  0.18898267258E+03  0.12508874099E+03 0.  0.
         24    2    1    2    0    0  0.10373154260E+03 -0.16817093104E+02  0.41296388730E+03  0.43367966750E+03  0.80596738388E+02 0.  0.
        -13    1    5    5    0    0 -0.40945084905E+01 -0.19521279054E+02  0.31704745914E+02  0.37457125479E+02  0.00000000000E+00 0.  1.
         14    1    5    5    0    0  0.10782605109E+03  0.27041859508E+01  0.38125914138E+03  0.39622254202E+03  0.00000000000E+00 0. -1.
         13    1    3    3    0    0  0.51602908718E+01  0.12299415580E+02 -0.73026704807E+01  0.15206354647E+02  0.00000000000E+00 0. -1.
        -14    1    3    3    0    0 -0.13780763095E+02 -0.44905430321E+02 -0.32990159241E+03  0.33322885196E+03  0.00000000000E+00 0.  1.
          5    1    4    4  501    0 -0.10844958053E+03  0.69187570396E+02  0.10074464423E+03  0.16344781172E+03  0.41800000000E+01 0.  1.
         -5    1    4    4    0  501  0.13338510153E+02 -0.19764462551E+02 -0.81244622188E+01  0.25534860865E+02  0.41800000000E+01 0.  1.
</event>
<event>
11    1  0.8479398E-009  0.1533617E+03  0.7561462E-02  0.1093492E+00
         22   -1    0    0    0    0  0.00000000000E+00  0.00000000000E+00  0.14789739259E+04  0.14789739259E+04  0.00000000000E+00 0. -1.
         22   -1    0    0    0    0 -0.00000000000E+00 -0.00000000000E+00 -0.15968984574E+03  0.15968984574E+03  0.00000000000E+00 0.  1.
         24    2    1    2    0    0  0.11974925123E+02  0.32284590539E+02 -0.13097997308E+03  0.15600623234E+03  0.77437055499E+02 0.  0.
         25    2    1    2    0    0 -0.49492493631E+01 -0.11328241811E+03  0.56378602257E+03  0.58852293249E+03  0.12508861459E+03 0.  0.
        -24    2    1    2    0    0 -0.70256757602E+01  0.80997827568E+02  0.88647803070E+03  0.89413460685E+03  0.83805656451E+02 0.  0.
        -11    1    3    3    0    0  0.12380119637E+02  0.25307954765E+02 -0.14100150196E+03  0.14378867651E+03  0.00000000000E+00 0.  1.
         12    1    3    3    0    0 -0.40519451340E+00  0.69766357743E+01  0.10021528886E+02  0.12217555833E+02  0.00000000000E+00 0. -1.
         13    1    5    5    0    0 -0.13383239319E+02  0.95923639334E+02  0.65904576097E+03  0.66612444087E+03  0.00000000000E+00 0. -1.
        -14    1    5    5    0    0  0.63575635584E+01 -0.14925811766E+02  0.22743226973E+03  0.22801016597E+03  0.00000000000E+00 0.  1.
          5    1    4    4  501    0  0.32154462308E+02 -0.55937719012E+02  0.95903210723E+02  0.11566259586E+03  0.41800000000E+01 0.  1.
         -5    1    4    4    0  501 -0.37103711671E+02 -0.57344699096E+02  0.46788281185E+03  0.47286033663E+03  0.41800000000E+01 0.  1.
</event>
<event>
11    1  0.8479398E-009  0.1447675E+03  0.7561462E-02  0.1102349E+00
         22   -1    0    0    0    0  0.00000000000E+00  0.00000000000E+00  0.72618268975E+03  0.72618268975E+03  0.00000000000E+00 0.  1.
         22   -1    0    0    0    0 -0.00000000000E+00 -0.00000000000E+00 -0.56957057030E+03  0.56957057030E+03  0.00000000000E+00 0. -1.
        -24    2    1    2    0    0  0.83308042880E+01  0.47366448171E+01 -0.52050603326E+03  0.52683563194E+03  0.80854278244E+02 0.  0.
         25    2    1    2    0    0  0.26202006792E+02  0.60443497166E+02  0.81507173662E+02  0.16318823646E+03  0.12508804760E+03 0.  0.
         24    2    1    2    0    0 -0.34532811080E+02 -0.65180141983E+02  0.59561097905E+03  0.60572939165E+03  0.81943221809E+02 0.  0.
        -13    1    5    5    0    0  0.11056299766E+02 -0.88821047221E+01  0.33322960146E+03  0.33353125916E+03  0.00000000000E+00 0.  1.
         14    1    5    5    0    0 -0.45589110845E+02 -0.56298037261E+02  0.26238137759E+03  0.27219813249E+03  0.00000000000E+00 0. -1.
         13    1    3    3    0    0 -0.31832717899E+02  0.16468689712E+02 -0.16326832906E+03  0.16715587618E+03  0.00000000000E+00 0. -1.
        -14    1    3    3    0    0  0.40163522187E+02 -0.11732044895E+02 -0.35723770421E+03  0.35967975575E+03  0.00000000000E+00 0.  1.
          5    1    4    4  501    0  0.22553661154E+02 -0.15526694409E+02  0.82482901981E+02  0.87009467244E+02  0.41800000000E+01 0. -1.
         -5    1    4    4    0  501  0.36483456375E+01  0.75970191576E+02 -0.97572831937E+00  0.76178769219E+02  0.41800000000E+01 0. -1.
</event>
<event>
11    1  0.8479398E-009  0.1789142E+03  0.7561462E-02  0.1070524E+00
         22   -1    0    0    0    0  0.00000000000E+00  0.00000000000E+00  0.41734963093E+04  0.41734963093E+04  0.00000000000E+00 0. -1.
         22   -1    0    0    0    0 -0.00000000000E+00 -0.00000000000E+00 -0.37558403859E+03  0.37558403859E+03  0.00000000000E+00 0. -1.
         24    2    1    2    0    0 -0.80847893063E+02  0.10461020239E+03 -0.30781167263E+03  0.34412213006E+03  0.78691412080E+02 0.  0.
         25    2    1    2    0    0  0.13830871946E+03  0.48167424815E+01  0.13204104143E+03  0.22854890662E+03  0.12508902113E+03 0.  0.
        -24    2    1    2    0    0 -0.57460826398E+02 -0.10942694487E+03  0.39736829019E+04  0.39764093113E+04  0.79995015801E+02 0.  0.
        -13    1    3    3    0    0 -0.26581341187E+01  0.66840497208E+02 -0.12697606897E+03  0.14351877869E+03  0.00000000000E+00 0.  1.
         14    1    3    3    0    0 -0.78189758944E+02  0.37769705180E+02 -0.18083560366E+03  0.20060335137E+03  0.00000000000E+00 0. -1.
         13    1    5    5    0    0 -0.63203243764E+02 -0.11216996054E+03  0.39415512259E+04  0.39436534858E+04  0.00000000000E+00 0. -1.
        -14    1    5    5    0    0  0.57424173656E+01  0.27430156674E+01  0.32131676060E+02  0.32755825415E+02  0.00000000000E+00 0.  1.
          5    1    4    4  501    0  0.13085218938E+03  0.15197153416E+02  0.43202117871E+02  0.13869803288E+03  0.41800000000E+01 0.  1.
         -5    1    4    4    0  501  0.74565300826E+01 -0.10380410935E+02  0.88838923560E+02  0.89850873737E+02  0.41800000000E+01 0.  1.
</event>
<event>
11    1  0.8479398E-009  0.1347140E+03  0.7561462E-02  0.1113609E+00
         22   -1    0    0    0    0  0.00000000000E+00  0.00000000000E+00  0.24480234282E+04  0.24480234282E+04  0.00000000000E+00 0.  1.
         22   -1    0    0    0    0 -0.00000000000E+00 -0.00000000000E+00 -0.11582165785E+04  0.11582165785E+04  0.00000000000E+00 0.  1.
        -24    2    1    2    0    0  0.29610293061E+02 -0.40391361070E+02 -0.11448460880E+04  0.11486477314E+04  0.78808718118E+02 0.  0.
         25    2    1    2    0    0  0.24208335706E+00  0.44576859980E+02  0.40718087261E+03  0.42828671018E+03  0.12508432374E+03 0.  0.
         24    2    1    2    0    0 -0.29852376418E+02 -0.41854989099E+01  0.20274720651E+04  0.20293055651E+04  0.80804818028E+02 0.  0.
        -11    1    5    5    0    0 -0.33853199480E+02 -0.38090501635E+02  0.10472532340E+04  0.10484923756E+04  0.00000000000E+00 0.  1.
         12    1    5    5    0    0  0.40008230623E+01  0.33905002725E+02  0.98021883110E+03  0.98081318947E+03  0.00000000000E+00 0. -1.
         13    1    3    3    0    0 -0.43573017236E+01  0.19046328303E+02 -0.12616934440E+03  0.12767322415E+03  0.00000000000E+00 0. -1.
        -14    1    3    3    0    0  0.33967594784E+02 -0.59437689373E+02 -0.10186767436E+04  0.10209745072E+04  0.00000000000E+00 0.  1.
          5    1    4    4  501    0  0.51715294541E+02  0.76929742414E+01  0.29297476799E+03  0.29763289573E+03  0.41800000000E+01 0.  1.
         -5    1    4    4    0  501 -0.51473211184E+02  0.36883885738E+02  0.11420610462E+03  0.13065381445E+03  0.41800000000E+01 0.  1.
</event>
<event>
11    1  0.8479398E-009  0.1439802E+03  0.7561462E-02  0.1103193E+00
         22   -1    0    0    0    0  0.00000000000E+00  0.00000000000E+00  0.34415028649E+03  0.34415028649E+03  0.00000000000E+00 0.  1.
         22   -1    0    0    0    0 -0.00000000000E+00 -0.00000000000E+00 -0.11037276213E+04  0.11037276213E+04  0.00000000000E+00 0.  1.
         24    2    1    2    0    0 -0.61727708719E+02 -0.38318416380E+02 -0.99672597805E+03  0.10023827903E+04  0.77652894290E+02 0.  0.
         25    2    1    2    0    0  0.31144482814E+02  0.41802558740E+02 -0.52492897290E+02  0.14533757249E+03  0.12510025173E+03 0.  0.
        -24    2    1    2    0    0  0.30583225905E+02 -0.34841423596E+01  0.28964154057E+03  0.30015754492E+03  0.72490391080E+02 0.  0.
        -13    1    3    3    0    0 -0.68969918842E+02 -0.11375448517E+02 -0.49860055328E+03  0.50347667500E+03  0.00000000000E+00 0.  1.
         14    1    3    3    0    0  0.72422101232E+01 -0.26942967863E+02 -0.49812542477E+03  0.49890611534E+03  0.00000000000E+00 0. -1.
         11    1    5    5    0    0 -0.22066217786E+02  0.70268714149E+01  0.59768815175E+02  0.64098409939E+02  0.00000000000E+00 0. -1.
        -12    1    5    5    0    0  0.52649443691E+02 -0.10511013774E+02  0.22987272539E+03  0.23605913499E+03  0.00000000000E+00 0.  1.
          5    1    4    4  501    0  0.26868698746E+01  0.33069714301E+02 -0.90731778911E+02  0.96698259436E+02  0.41800000000E+01 0.  1.
         -5    1    4    4    0  501  0.28457612940E+02  0.87328444391E+01  0.38238881621E+02  0.48639313049E+02  0.41800000000E+01 0.  1.
</event>
<event>
11    1  0.8479398E-009  0.1527248E+03  0.7561462E-02  0.1094127E+00
         22   -1    0    0    0    0  0.00000000000E+00  0.00000000000E+00  0.26556573137E+04  0.26556573137E+04  0.00000000000E+00 0. -1.
         22   -1    0    0    0    0 -0.00000000000E+00 -0.00000000000E+00 -0.14638203572E+03  0.14638203572E+03  0.00000000000E+00 0. -1.
         24    2    1    2    0    0 -0.73180258622E+02 -0.18162076788E+02 -0.23289305168E+02  0.10614499351E+03  0.70987017308E+02 0.  0.
         25    2    1    2    0    0  0.50016677733E+01 -0.38765960231E+02 -0.26696298919E+02  0.13374439682E+03  0.12508818869E+03 0.  0.
        -24    2    1    2    0    0  0.68178590849E+02  0.56928037019E+02  0.25592608821E+04  0.25621499591E+04  0.83108535907E+02 0.  0.
        -11    1    3    3    0    0 -0.11758925827E+02 -0.34825274794E+02  0.38507908583E+01  0.36958093718E+02  0.00000000000E+00 0.  1.
         12    1    3    3    0    0 -0.61421332795E+02  0.16663198006E+02 -0.27140096026E+02  0.69186899789E+02  0.00000000000E+00 0. -1.
         13    1    5    5    0    0  0.62789962518E+02  0.51206268125E+02  0.25407246583E+04  0.25420162176E+04  0.00000000000E+00 0. -1.
        -14    1    5    5    0    0  0.53886283307E+01  0.57217688945E+01  0.18536223773E+02  0.20133741489E+02  0.00000000000E+00 0.  1.
          5    1    4    4  501    0 -0.78145318649E+01 -0.82206750964E+02 -0.36721083817E+01  0.82764567251E+02  0.41800000000E+01 0. -1.
         -5    1    4    4    0  501  0.12816199638E+02  0.43440790733E+02 -0.23024190537E+02  0.50979829566E+02  0.41800000000E+01 0. -1.
</event>
<event>
11    1  0.8479398E-009  0.2003649E+03  0.7561462E-02  0.1054266E+00
         22   -1    0    0    0    0  0.00000000000E+00  0.00000000000E+00  0.34408409703E+03  0.34408409703E+03  0.00000000000E+00 0.  1.
         22   -1    0    0    0    0 -0.00000000000E+00 -0.00000000000E+00 -0.90040523355E+03  0.90040523355E+03  0.00000000000E+00 0. -1.
        -24    2    1    2    0    0 -0.12707744640E+02 -0.71896096151E+02 -0.72447674882E+03  0.73275075860E+03  0.82015725460E+02 0.  0.
         25    2    1    2    0    0  0.52749633689E+02  0.21018813561E+03 -0.32002483573E+02  0.25226186755E+03  0.12510121766E+03 0.  0.
         24    2    1    2    0    0 -0.40041889049E+02 -0.13829203946E+03  0.20015809588E+03  0.25947670444E+03  0.80850824023E+02 0.  0.
        -13    1    5    5    0    0 -0.56200470193E+02 -0.13236008537E+03  0.15641936704E+03  0.21247282987E+03  0.00000000000E+00 0.  1.
         14    1    5    5    0    0  0.16158581144E+02 -0.59319540872E+01  0.43738728836E+02  0.47003874565E+02  0.00000000000E+00 0. -1.
         11    1    3    3    0    0  0.47231317599E+01 -0.46526485509E+02 -0.65610746488E+03  0.65777201772E+03  0.00000000000E+00 0. -1.
        -12    1    3    3    0    0 -0.17430876399E+02 -0.25369610642E+02 -0.68369283945E+02  0.74978740876E+02  0.00000000000E+00 0.  1.
          5    1    4    4  501    0  0.52584664247E+02  0.15487441575E+02 -0.46440149134E+00  0.54979049003E+02  0.41800000000E+01 0.  1.
         -5    1    4    4    0  501  0.16496944176E+00  0.19470069403E+03 -0.31538082081E+02  0.19728281855E+03  0.41800000000E+01 0.  1.
</event>
<event>
11    1  0.8479398E-009  0.1597866E+03  0.7561462E-02  0.1087278E+00
         22   -1    0    0    0    0  0.00000000000E+00  0.00000000000E+00  0.52734636898E+03  0.52734636898E+03  0.00000000000E+00 0. -1.
         22   -1    0    0    0    0 -0.00000000000E+00 -0.00000000000E+00 -0.16647388971E+03  0.16647388971E+03  0.00000000000E+00 0.  1.
        -24    2    1    2    0    0  0.84606065339E+01  0.17775804774E+00 -0.58327563259E+02  0.99694517611E+02  0.80406957069E+02 0.  0.
         25    2    1    2    0    0  0.30800669661E+02 -0.91871519807E+02  0.24606983973E+01  0.15825900056E+03  0.12510315271E+03 0.  0.
         24    2    1    2    0    0 -0.39261276195E+02  0.91693761759E+02  0.41673934412E+03  0.43586674052E+03  0.79742967090E+02 0.  0.
        -11    1    5    5    0    0  0.17952754685E+02  0.18720940916E+02  0.38468048006E+02  0.46395751389E+02  0.00000000000E+00 0.  1.
         12    1    5    5    0    0 -0.57214030879E+02  0.72972820843E+02  0.37827129612E+03  0.38947098913E+03  0.00000000000E+00 0. -1.
         13    1    3    3    0    0 -0.28867846209E+02 -0.40872473022E+01  0.13364551647E+01  0.29186370924E+02  0.00000000000E+00 0. -1.
        -14    1    3    3    0    0  0.37328452743E+02  0.42650053499E+01 -0.59664018423E+02  0.70508146687E+02  0.00000000000E+00 0.  1.
          5    1    4    4  501    0  0.50832081376E+00 -0.10929275328E+03  0.30178424684E+02  0.11346089206E+03  0.41800000000E+01 0. -1.
         -5    1    4    4    0  501  0.30292348847E+02  0.17421233477E+02 -0.27717726286E+02  0.44798108498E+02  0.41800000000E+01 0. -1.
</event>
<event>
11    1  0.8479398E-009  0.1503936E+03  0.7561462E-02  0.1096477E+00
         22   -1    0    0    0    0  0.00000000000E+00  0.00000000000E+00  0.47848313870E+03  0.47848313870E+03  0.00000000000E+00 0.  1.
         22   -1    0    0    0    0 -0.00000000000E+00 -0.00000000000E+00 -0.10435512923E+03  0.10435512923E+03  0.00000000000E+00 0.  1.
         24    2    1    2    0    0  0.37464889230E+02 -0.17032716768E+02 -0.27744281706E+02  0.96888481374E+02  0.83209983116E+02 0.  0.
         25    2    1    2    0    0  0.39246490343E+02  0.65647428741E+02  0.17597737457E+03  0.22905573811E+03  0.12509445590E+03 0.  0.
        -24    2    1    2    0    0 -0.76711379573E+02 -0.48614711973E+02  0.22589491661E+03  0.25689404845E+03  0.81963484580E+02 0.  0.
        -11    1    3    3    0    0 -0.26765933578E+01 -0.10500351201E+02 -0.49564443376E+02  0.50735151271E+02  0.00000000000E+00 0.  1.
         12    1    3    3    0    0  0.40141482588E+02 -0.65323655674E+01  0.21820161670E+02  0.46153330103E+02  0.00000000000E+00 0. -1.
         13    1    5    5    0    0 -0.56080882359E+02 -0.99733876445E+01  0.50537401027E+02  0.76148294334E+02  0.00000000000E+00 0. -1.
        -14    1    5    5    0    0 -0.20630497213E+02 -0.38641324328E+02  0.17535751558E+03  0.18074575412E+03  0.00000000000E+00 0.  1.
          5    1    4    4  501    0 -0.92948195332E+01 -0.33208439471E+02  0.28408685757E+02  0.44874491068E+02  0.41800000000E+01 0.  1.
         -5    1    4    4    0  501  0.48541309876E+02  0.98855868212E+02  0.14756868881E+03  0.18418124704E+03  0.41800000000E+01 0.  1.
</event>
<event>
11    1  0.8479398E-009  0.1348813E+03  0.7561462E-02  0.1113413E+00
         22   -1    0    0    0    0  0.00000000000E+00  0.00000000000E+00  0.11225345549E+03  0.11225345549E+03  0.00000000000E+00 0.  1.
         22   -1    0    0    0    0 -0.00000000000E+00 -0.00000000000E+00 -0.89980274393E+03  0.89980274393E+03  0.00000000000E+00 0. -1.
        -24    2    1    2    0    0 -0.12656699218E+01 -0.36221377533E+02 -0.75004872724E+03  0.75517896781E+03  0.80053669923E+02 0.  0.
         25    2    1    2    0    0  0.38704770396E+02  0.61036739392E+02 -0.65356356563E+02  0.15856312500E+03  0.12508904212E+03 0.  0.
         24    2    1    2    0    0 -0.37439100475E+02 -0.24815361859E+02  0.27855795363E+02  0.98314106611E+02  0.82898913110E+02 0.  0.
        -11    1    5    5    0    0 -0.18013118380E+02 -0.41564119812E+02  0.47776192515E+02  0.65837778370E+02  0.00000000000E+00 0.  1.
         12    1    5    5    0    0 -0.19425982095E+02  0.16748757952E+02 -0.19920397152E+02  0.32476328241E+02  0.00000000000E+00 0. -1.
         11    1    3    3    0    0  0.39063203302E+02 -0.23238291947E+02 -0.37471393322E+03  0.37746057253E+03  0.00000000000E+00 0. -1.
        -12    1    3    3    0    0 -0.40328873224E+02 -0.12983085586E+02 -0.37533479402E+03  0.37771839528E+03  0.00000000000E+00 0.  1.
          5    1    4    4  501    0  0.66739424310E+02  0.82057431762E+02 -0.33515901646E+02  0.11103315238E+03  0.41800000000E+01 0.  1.
         -5    1    4    4    0  501 -0.28034653914E+02 -0.21020692370E+02 -0.31840454916E+02  0.47529972618E+02  0.41800000000E+01 0.  1.
</event>
<event>
11    1  0.8479398E-009  0.3519362E+03  0.7561462E-02  0.9803292E-01
         22   -1    0    0    0    0  0.00000000000E+00  0.00000000000E+00  0.10371669272E+04  0.10371669272E+04  0.00000000000E+00 0. -1.
         22   -1    0    0    0    0 -0.00000000000E+00 -0.00000000000E+00 -0.93927123099E+03  0.93927123099E+03  0.00000000000E+00 0. -1.
        -24    2    1    2    0    0  0.24426217614E+03 -0.20073416970E+03 -0.73214550330E+03  0.80131355351E+03  0.78154689343E+02 0.  0.
         25    2    1    2    0    0 -0.42421572541E+03  0.35675777476E+03  0.47652331910E+03  0.74159107533E+03  0.12509099821E+03 0.  0.
         24    2    1    2    0    0  0.17995354927E+03 -0.15602360506E+03  0.35351788038E+03  0.43353352931E+03  0.79055575789E+02 0.  0.
        -13    1    5    5    0    0  0.97246542707E+02 -0.10999471944E+03  0.15438733823E+03  0.21305205603E+03  0.00000000000E+00 0.  1.
         14    1    5    5    0    0  0.82707006565E+02 -0.46028885620E+02  0.19913054215E+03  0.22048147329E+03  0.00000000000E+00 0. -1.
         11    1    3    3    0    0  0.17921418500E+03 -0.18725365205E+03 -0.57683294666E+03  0.63239062506E+03  0.00000000000E+00 0. -1.
        -12    1    3    3    0    0  0.65047991144E+02 -0.13480517648E+02 -0.15531255664E+03  0.16892292845E+03  0.00000000000E+00 0.  1.
          5    1    4    4  501    0 -0.22738076489E+03  0.12951346017E+03  0.27502802598E+03  0.37964935938E+03  0.41800000000E+01 0.  1.
         -5    1    4    4    0  501 -0.19683496052E+03  0.22724431458E+03  0.20149529312E+03  0.36194171595E+03  0.41800000000E+01 0.  1.
</event>
<event>
11    1  0.8479398E-009  0.1385671E+03  0.7561462E-02  0.1109169E+00
         22   -1    0    0    0    0  0.00000000000E+00  0.00000000000E+00  0.31709268583E+04  0.31709268583E+04  0.00000000000E+00 0. -1.
         22   -1    0    0    0    0 -0.00000000000E+00 -0.00000000000E+00 -0.31019094174E+03  0.31019094174E+03  0.00000000000E+00 0.  1.
        -24    2    1    2    0    0 -0.58652334602E+02  0.74381542616E+01 -0.22306745305E+03  0.24403264276E+03  0.79356282850E+02 0.  0.
         25    2    1    2    0    0  0.65715341300E+02  0.32772114435E+02 -0.67893754363E+01  0.14520634076E+03  0.12508504391E+03 0.  0.
         24    2    1    2    0    0 -0.70630066984E+01 -0.40210268696E+02  0.30905927450E+04  0.30918788165E+04  0.79273883374E+02 0.  0.
        -13    1    5    5    0    0 -0.20177822095E+02 -0.34634214358E+02  0.64486010027E+03  0.64610465269E+03  0.00000000000E+00 0.  1.
         14    1    5    5    0    0  0.13114815397E+02 -0.55760543389E+01  0.24457326448E+04  0.24457741638E+04  0.00000000000E+00 0. -1.
         11    1    3    3    0    0  0.10646276278E+02 -0.81082005021E+01 -0.43473188160E+01  0.14070724745E+02  0.00000000000E+00 0. -1.
        -12    1    3    3    0    0 -0.69298610880E+02  0.15546354764E+02 -0.21872013423E+03  0.22996191801E+03  0.00000000000E+00 0.  1.
          5    1    4    4  501    0 -0.18401654825E+02 -0.33112550594E+02 -0.12105155753E+01  0.38131347408E+02  0.41800000000E+01 0. -1.
         -5    1    4    4    0  501  0.84116996126E+02  0.65884665029E+02 -0.55788598610E+01  0.10707499335E+03  0.41800000000E+01 0. -1.
</event>
<event>
11    1  0.8479398E-009  0.1281408E+03  0.7561462E-02  0.1121575E+00
         22   -1    0    0    0    0  0.00000000000E+00  0.00000000000E+00  0.38588648686E+03  0.38588648686E+03  0.00000000000E+00 0. -1.
         22   -1    0    0    0    0 -0.00000000000E+00 -0.00000000000E+00 -0.25340182023E+03  0.25340182023E+03  0.00000000000E+00 0. -1.
         24    2    1    2    0    0 -0.22001248321E+02  0.20251198484E+02 -0.19607592559E+03  0.21404978891E+03  0.80482156828E+02 0.  0.
         25    2    1    2    0    0  0.13296545150E+00 -0.95332193061E+01  0.45423339134E+02  0.13342656731E+03  0.12509384148E+03 0.  0.
        -24    2    1    2    0    0  0.21868282869E+02 -0.10717979178E+02  0.28313725309E+03  0.29181195087E+03  0.66290374177E+02 0.  0.
        -13    1    3    3    0    0  0.13088532126E+02 -0.23887416422E+02 -0.42812646218E+02  0.50742891254E+02  0.00000000000E+00 0.  1.
         14    1    3    3    0    0 -0.35089780447E+02  0.44138614906E+02 -0.15326327937E+03  0.16330689766E+03  0.00000000000E+00 0. -1.
         11    1    5    5    0    0 -0.12200091176E+02 -0.25159194400E+02  0.18165023535E+03  0.18378964958E+03  0.00000000000E+00 0. -1.
        -12    1    5    5    0    0  0.34068374045E+02  0.14441215222E+02  0.10148701773E+03  0.10802230129E+03  0.00000000000E+00 0.  1.
          5    1    4    4  501    0 -0.16332216767E+02  0.49659401646E+02  0.48957383496E+02  0.71743259440E+02  0.41800000000E+01 0. -1.
         -5    1    4    4    0  501  0.16465182219E+02 -0.59192620952E+02 -0.35340443618E+01  0.61683307873E+02  0.41800000000E+01 0. -1.
</event>
<event>
11    1  0.8479398E-009  0.1328314E+03  0.7561462E-02  0.1115838E+00
         22   -1    0    0    0    0  0.00000000000E+00  0.00000000000E+00  0.39955927168E+03  0.39955927168E+03  0.00000000000E+00 0.  1.
         22   -1    0    0    0    0 -0.00000000000E+00 -0.00000000000E+00 -0.66374901370E+03  0.66374901370E+03  0.00000000000E+00 0. -1.
        -24    2    1    2    0    0  0.30634472134E+02  0.30584423195E+02 -0.60287937536E+03  0.60990998991E+03  0.81564555636E+02 0.  0.
         25    2    1    2    0    0 -0.70694676200E+02 -0.57191335946E+02  0.66150865193E+02  0.16820811280E+03  0.12509774616E+03 0.  0.
         24    2    1    2    0    0  0.40060204066E+02  0.26606912751E+02  0.27253876814E+03  0.28519018267E+03  0.68871709710E+02 0.  0.
        -13    1    5    5    0    0 -0.10431056496E+02  0.28620399848E+02  0.14159350748E+03  0.14483319919E+03  0.00000000000E+00 0.  1.
         14    1    5    5    0    0  0.50491260562E+02 -0.20134870968E+01  0.13094526066E+03  0.14035698348E+03  0.00000000000E+00 0. -1.
         11    1    3    3    0    0  0.36112750690E+02  0.27851074554E+02 -0.60199987792E+03  0.60372482650E+03  0.00000000000E+00 0. -1.
        -12    1    3    3    0    0 -0.54782785556E+01  0.27333486411E+01 -0.87949744203E+00  0.61851634155E+01  0.00000000000E+00 0.  1.
          5    1    4    4  501    0  0.14434431442E+02  0.23090507369E+02  0.39444382073E+02  0.48112950634E+02  0.41800000000E+01 0. -1.
         -5    1    4    4    0  501 -0.85129107642E+02 -0.80281843315E+02  0.26706483120E+02  0.12009516216E+03  0.41800000000E+01 0. -1.
</event>
<event>
11    1  0.8479398E-009  0.1695000E+03  0.7561462E-02  0.1078468E+00
         22   -1    0    0    0    0  0.00000000000E+00  0.00000000000E+00  0.15695308273E+04  0.15695308273E+04  0.00000000000E+00 0. -1.
         22   -1    0    0    0    0 -0.00000000000E+00 -0.00000000000E+00 -0.11506238198E+04  0.11506238198E+04  0.00000000000E+00 0.  1.
         24    2    1    2    0    0 -0.32690805833E+02 -0.10974488135E+03 -0.11008385258E+04  0.11096774336E+04  0.80161829353E+02 0.  0.
         25    2    1    2    0    0 -0.50047930170E+02  0.12737467495E+03  0.15626517196E+03  0.24247792614E+03  0.12509051748E+03 0.  0.
        -24    2    1    2    0    0  0.82738736003E+02 -0.17629793605E+02  0.13634803614E+04  0.13679992874E+04  0.72019762510E+02 0.  0.
        -11    1    3    3    0    0  0.13493971017E+02  0.21895100699E+01 -0.23693986985E+03  0.23733390641E+03  0.00000000000E+00 0.  1.
         12    1    3    3    0    0 -0.46184776850E+02 -0.11193439142E+03 -0.86389865600E+03  0.87234352719E+03  0.00000000000E+00 0. -1.
         11    1    5    5    0    0  0.34905577243E+02 -0.85970294260E+01  0.10624912836E+04  0.10630992597E+04  0.00000000000E+00 0. -1.
        -12    1    5    5    0    0  0.47833158760E+02 -0.90327641793E+01  0.30098907783E+03  0.30490002768E+03  0.00000000000E+00 0.  1.
          5    1    4    4  501    0  0.30609807088E+02  0.89055076963E+02  0.63538527261E+02  0.11367666370E+03  0.41800000000E+01 0. -1.
         -5    1    4    4    0  501 -0.80657737258E+02  0.38319597988E+02  0.92726644704E+02  0.12880126245E+03  0.41800000000E+01 0. -1.
</event>
<event>
11    1  0.8479398E-009  0.1353626E+03  0.7561462E-02  0.1112850E+00
         22   -1    0    0    0    0  0.00000000000E+00  0.00000000000E+00  0.29264108351E+03  0.29264108351E+03  0.00000000000E+00 0.  1.
         22   -1    0    0    0    0 -0.00000000000E+00 -0.00000000000E+00 -0.22049223868E+03  0.22049223868E+03  0.00000000000E+00 0.  1.
         24    2    1    2    0    0  0.50668035770E+02  0.10341641200E+02 -0.12459203281E+03  0.15731208387E+03  0.80930326198E+02 0.  0.
         25    2    1    2    0    0 -0.49398759814E+02 -0.16431607751E+02 -0.86266855516E+01  0.13576601605E+03  0.12509099171E+03 0.  0.
        -24    2    1    2    0    0 -0.12692759562E+01  0.60899665507E+01  0.20536756319E+03  0.22005522227E+03  0.78802069035E+02 0.  0.
        -11    1    3    3    0    0  0.59795517415E+02  0.29671498215E+00 -0.12969191345E+03  0.14281310989E+03  0.00000000000E+00 0.  1.
         12    1    3    3    0    0 -0.91274816446E+01  0.10044926218E+02  0.50998806349E+01  0.14498973977E+02  0.00000000000E+00 0. -1.
         13    1    5    5    0    0 -0.29594293669E+02 -0.23718825330E+02  0.98064124665E+02  0.10514265281E+03  0.00000000000E+00 0. -1.
        -14    1    5    5    0    0  0.28325017713E+02  0.29808791880E+02  0.10730343852E+03  0.11491256946E+03  0.00000000000E+00 0.  1.
          5    1    4    4  501    0 -0.33097696243E+02  0.52775198011E+02  0.70675993067E+01  0.62833926995E+02  0.41800000000E+01 0.  1.
         -5    1    4    4    0  501 -0.16301063571E+02 -0.69206805762E+02 -0.15694284858E+02  0.72932089059E+02  0.41800000000E+01 0.  1.
</event>
<event>
11    1  0.8479398E-009  0.1817457E+03  0.7561462E-02  0.1068239E+00
         22   -1    0    0    0    0  0.00000000000E+00  0.00000000000E+00  0.86368103378E+03  0.86368103378E+03  0.00000000000E+00 0. -1.
         22   -1    0    0    0    0 -0.00000000000E+00 -0.00000000000E+00 -0.67896215094E+02  0.67896215094E+02  0.00000000000E+00 0.  1.
        -24    2    1    2    0    0  0.21358083837E+02 -0.79306158425E+01  0.82452642399E+02  0.11734331306E+03  0.80324046644E+02 0.  0.
         25    2    1    2    0    0 -0.35341169308E+02 -0.12429853959E+03  0.16408804532E+03  0.24345818892E+03  0.12509147831E+03 0.  0.
         24    2    1    2    0    0  0.13983085471E+02  0.13222915543E+03  0.54924413096E+03  0.57077574689E+03  0.80223198699E+02 0.  0.
        -13    1    5    5    0    0 -0.15735118793E+02  0.13027270084E+02  0.19024235968E+03  0.19133598498E+03  0.00000000000E+00 0.  1.
         14    1    5    5    0    0  0.29718204264E+02  0.11920188534E+03  0.35900177128E+03  0.37943976191E+03  0.00000000000E+00 0. -1.
         11    1    3    3    0    0 -0.18276770637E+02  0.12503381088E+02  0.66325181821E+02  0.69924277809E+02  0.00000000000E+00 0. -1.
        -12    1    3    3    0    0  0.39634854474E+02 -0.20433996930E+02  0.16127460578E+02  0.47419035254E+02  0.00000000000E+00 0.  1.
          5    1    4    4  501    0 -0.60299490962E+02 -0.10748171649E+03  0.64143501956E+02  0.13899715548E+03  0.41800000000E+01 0.  1.
         -5    1    4    4    0  501  0.24958321654E+02 -0.16816823102E+02  0.99944543365E+02  0.10446103344E+03  0.41800000000E+01 0.  1.
</event>
<event>
11    1  0.8479398E-009  0.2101436E+03  0.7561462E-02  0.1047574E+00
         22   -1    0    0    0    0  0.00000000000E+00  0.00000000000E+00  0.16740642941E+04  0.16740642941E+04  0.00000000000E+00 0. -1.
         22   -1    0    0    0    0 -0.00000000000E+00 -0.00000000000E+00 -0.38927876529E+03  0.38927876529E+03  0.00000000000E+00 0.  1.
         24    2    1    2    0    0 -0.13917811853E+02  0.61021644534E+02 -0.28545197284E+03  0.30241262532E+03  0.77802445778E+02 0.  0.
         25    2    1    2    0    0  0.34580567558E+02 -0.22486581916E+03  0.98323455792E+02  0.27762041390E+03  0.12508053398E+03 0.  0.
        -24    2    1    2    0    0 -0.20662755706E+02  0.16384417462E+03  0.14719140459E+04  0.14833100202E+04  0.80036207617E+02 0.  0.
        -11    1    3    3    0    0  0.15101965529E+02  0.66581374423E+02 -0.22492915658E+03  0.23506227741E+03  0.00000000000E+00 0.  1.
         12    1    3    3    0    0 -0.29019777382E+02 -0.55597298890E+01 -0.60522816255E+02  0.67350347906E+02  0.00000000000E+00 0. -1.
         11    1    5    5    0    0 -0.31534165623E+01  0.16541032082E+03  0.12950845828E+04  0.13056088981E+04  0.00000000000E+00 0. -1.
        -12    1    5    5    0    0 -0.17509339144E+02 -0.15661461959E+01  0.17682946307E+03  0.17770112206E+03  0.00000000000E+00 0.  1.
          5    1    4    4  501    0  0.30964046856E+02 -0.28972027579E+02  0.66648595301E+02  0.79105361609E+02  0.41800000000E+01 0. -1.
         -5    1    4    4    0  501  0.36165207026E+01 -0.19589379158E+03  0.31674860491E+02  0.19851505229E+03  0.41800000000E+01 0. -1.
</event>
<event>
11    1  0.8479398E-009  0.1497719E+03  0.7561462E-02  0.1097112E+00
         22   -1    0    0    0    0  0.00000000000E+00  0.00000000000E+00  0.18896388673E+03  0.18896388673E+03  0.00000000000E+00 0.  1.
         22   -1    0    0    0    0 -0.00000000000E+00 -0.00000000000E+00 -0.13595394412E+04  0.13595394412E+04  0.00000000000E+00 0. -1.
         24    2    1    2    0    0 -0.31510455781E+02  0.79829679718E+02 -0.10337766300E+04  0.10404286097E+04  0.80199031652E+02 0.  0.
         25    2    1    2    0    0 -0.49171364941E+01 -0.70686030446E+02 -0.29120632155E+03  0.32476215729E+03  0.12509454012E+03 0.  0.
        -24    2    1    2    0    0  0.36427592275E+02 -0.91436492718E+01  0.15440739704E+03  0.18331256092E+03  0.91385310243E+02 0.  0.
        -11    1    3    3    0    0 -0.38015678635E+02  0.14634391582E+02 -0.20145427393E+03  0.20553146164E+03  0.00000000000E+00 0.  1.
         12    1    3    3    0    0  0.65052228542E+01  0.65195288136E+02 -0.83232235607E+03  0.83489714811E+03  0.00000000000E+00 0. -1.
         13    1    5    5    0    0 -0.19662394760E+02 -0.94630220239E+01  0.32222585579E+01  0.22057685820E+02  0.00000000000E+00 0. -1.
        -14    1    5    5    0    0  0.56089987034E+02  0.31937275216E+00  0.15118513849E+03  0.16125487510E+03  0.00000000000E+00 0.  1.
          5    1    4    4  501    0  0.55469959790E+02 -0.50495303653E+02 -0.19828887823E+03  0.21204396658E+03  0.41800000000E+01 0. -1.
         -5    1    4    4    0  501 -0.60387096284E+02 -0.20190726793E+02 -0.92917443317E+02  0.11271819072E+03  0.41800000000E+01 0. -1.
</event>
<event>
11    1  0.1042018E-008  0.1632551E+03  0.7561462E-02  0.1084055E+00
         22   -1    0    0    0    0  0.00000000000E+00  0.00000000000E+00  0.17003861369E+03  0.17003861369E+03  0.00000000000E+00 0.  1.
         22   -1    0    0    0    0 -0.00000000000E+00 -0.00000000000E+00 -0.15286352901E+04  0.15286352901E+04  0.00000000000E+00 0. -1.
        -24    2    1    2    0    0 -0.21043043881E+02  0.59064994491E+02 -0.79914039247E+03  0.80546043179E+03  0.78801377092E+02 0.  0.
         25    2    1    2    0    0  0.11437504702E+03 -0.10501502290E+02 -0.68728269181E+03  0.70795320268E+03  0.12509318845E+03 0.  0.
         24    2    1    2    0    0 -0.93332003135E+02 -0.48563492200E+02  0.12782640787E+03  0.18526026932E+03  0.83141453294E+02 0.  0.
        -13    1    5    5    0    0 -0.12880888376E+02 -0.51768524394E+02  0.45627508913E+02  0.70198055335E+02  0.00000000000E+00 0.  1.
         14    1    5    5    0    0 -0.80451114759E+02  0.32050321933E+01  0.82198898954E+02  0.11506221398E+03  0.00000000000E+00 0. -1.
         11    1    3    3    0    0 -0.25687599453E+02  0.49994216411E+02 -0.78928460518E+03  0.79128342736E+03  0.00000000000E+00 0. -1.
        -12    1    3    3    0    0  0.46445555724E+01  0.90707780796E+01 -0.98557872830E+01  0.14177004423E+02  0.00000000000E+00 0.  1.
          5    1    4    4  501    0  0.51606803123E+02  0.52315980470E+02 -0.41639927091E+03  0.42285464306E+03  0.41800000000E+01 0. -1.
         -5    1    4    4    0  501  0.62768243893E+02 -0.62817482760E+02 -0.27088342090E+03  0.28509855962E+03  0.41800000000E+01 0. -1.
</event>
<event>
11    1  0.8479398E-009  0.1437218E+03  0.7561462E-02  0.1103472E+00
         22   -1    0    0    0    0  0.00000000000E+00  0.00000000000E+00  0.54158948199E+03  0.54158948199E+03  0.00000000000E+00 0.  1.
         22   -1    0    0    0    0 -0.00000000000E+00 -0.00000000000E+00 -0.15566633285E+04  0.15566633285E+04  0.00000000000E+00 0. -1.
         24    2    1    2    0    0 -0.51231556871E+02 -0.49386833839E+02 -0.15115404874E+04  0.15150839360E+04  0.75239326662E+02 0.  0.
         25    2    1    2    0    0  0.55122893662E+02  0.48949590834E+01  0.83910759032E+02  0.16047566807E+03  0.12509568550E+03 0.  0.
        -24    2    1    2    0    0 -0.38913367911E+01  0.44491874755E+02  0.41255588180E+03  0.42269320648E+03  0.80451984313E+02 0.  0.
        -13    1    3    3    0    0  0.92888641154E+01 -0.41062071171E+02 -0.68058309592E+03  0.68188395431E+03  0.00000000000E+00 0.  1.
         14    1    3    3    0    0 -0.60520420987E+02 -0.83247626674E+01 -0.83095739146E+03  0.83319998167E+03  0.00000000000E+00 0. -1.
         13    1    5    5    0    0 -0.21301469301E+02  0.49075293973E+02  0.14537596757E+03  0.15490742081E+03  0.00000000000E+00 0. -1.
        -14    1    5    5    0    0  0.17410132510E+02 -0.45834192179E+01  0.26717991422E+03  0.26778578568E+03  0.00000000000E+00 0.  1.
          5    1    4    4  501    0 -0.16832423307E+02  0.33991030005E+02  0.72479977036E+02  0.81911782220E+02  0.41800000000E+01 0. -1.
         -5    1    4    4    0  501  0.71955316970E+02 -0.29096070922E+02  0.11430781996E+02  0.78563885853E+02  0.41800000000E+01 0. -1.
</event>
<event>
11    1  0.8479398E-009  0.1819518E+03  0.7561462E-02  0.1068075E+00
         22   -1    0    0    0    0  0.00000000000E+00  0.00000000000E+00  0.54139826126E+03  0.54139826126E+03  0.00000000000E+00 0. -1.
         22   -1    0    0    0    0 -0.00000000000E+00 -0.00000000000E+00 -0.14113726500E+04  0.14113726500E+04  0.00000000000E+00 0. -1.
        -24    2    1    2    0    0  0.47708104776E+02 -0.13244846793E+02 -0.12745059686E+04  0.12792444946E+04  0.98231988468E+02 0.  0.
         25    2    1    2    0    0 -0.69152405455E+02 -0.11756689773E+03 -0.51383623017E+02  0.19207244101E+03  0.12509002862E+03 0.  0.
         24    2    1    2    0    0  0.21444300679E+02  0.13081174452E+03  0.45591520292E+03  0.48145397567E+03  0.79797793774E+02 0.  0.
        -11    1    5    5    0    0 -0.20724879626E+01  0.22495814145E+02  0.15728851645E+02  0.27527325233E+02  0.00000000000E+00 0.  1.
         12    1    5    5    0    0  0.23516788642E+02  0.10831593038E+03  0.44018635128E+03  0.45392665043E+03  0.00000000000E+00 0. -1.
         13    1    3    3    0    0  0.67132648546E+02 -0.80575362366E+01 -0.12048311069E+04  0.12067268591E+04  0.00000000000E+00 0. -1.
        -14    1    3    3    0    0 -0.19424543770E+02 -0.51873105567E+01 -0.69674861781E+02  0.72517635481E+02  0.00000000000E+00 0.  1.
          5    1    4    4  501    0  0.36167851311E+02 -0.33575236587E+02 -0.21672692122E+02  0.54060965254E+02  0.41800000000E+01 0. -1.
         -5    1    4    4    0  501 -0.10532025677E+03 -0.83991661141E+02 -0.29710930895E+02  0.13801147576E+03  0.41800000000E+01 0. -1.
</event>
<event>
11    1  0.8479398E-009  0.1857665E+03  0.7561462E-02  0.1065072E+00
         22   -1    0    0    0    0  0.00000000000E+00  0.00000000000E+00  0.11139152633E+04  0.11139152633E+04  0.00000000000E+00 0. -1.
         22   -1    0    0    0    0 -0.00000000000E+00 -0.00000000000E+00 -0.29771409592E+03  0.29771409592E+03  0.00000000000E+00 0.  1.
        -24    2    1    2    0    0 -0.27242512560E+02 -0.14066436973E+03 -0.22387332066E+03  0.27868982038E+03  0.83786233226E+02 0.  0.
         25    2    1    2    0    0  0.29836720282E+01  0.10558375994E+03  0.10792341863E+03  0.19609175533E+03  0.12509068533E+03 0.  0.
         24    2    1    2    0    0  0.24258840532E+02  0.35080609784E+02  0.93215106938E+03  0.93684778348E+03  0.83420697321E+02 0.  0.
        -11    1    5    5    0    0 -0.26876085821E+02  0.14298531075E+02  0.17028396147E+03  0.17298381286E+03  0.00000000000E+00 0.  1.
         12    1    5    5    0    0  0.51134926353E+02  0.20782078709E+02  0.76186710792E+03  0.76386397062E+03  0.00000000000E+00 0. -1.
         11    1    3    3    0    0 -0.50116712377E+02 -0.45230869916E+02 -0.82661887908E+02  0.10672630494E+03  0.00000000000E+00 0. -1.
        -12    1    3    3    0    0  0.22874199817E+02 -0.95433499812E+02 -0.14121143275E+03  0.17196351544E+03  0.00000000000E+00 0.  1.
          5    1    4    4  501    0 -0.44226846467E+02  0.78879409834E+02  0.20019103315E+02  0.92715759942E+02  0.41800000000E+01 0. -1.
         -5    1    4    4    0  501  0.47210518495E+02  0.26704350109E+02  0.87904315317E+02  0.10337599539E+03  0.41800000000E+01 0. -1.
</event>
<event>
11    1  0.8479398E-009  0.2268625E+03  0.7561462E-02  0.1037002E+00
         22   -1    0    0    0    0  0.00000000000E+00  0.00000000000E+00  0.14479407182E+04  0.14479407182E+04  0.00000000000E+00 0. -1.
         22   -1    0    0    0    0 -0.00000000000E+00 -0.00000000000E+00 -0.75207387320E+03  0.75207387320E+03  0.00000000000E+00 0. -1.
         24    2    1    2    0    0  0.31691571195E+02  0.52911882084E+02 -0.59839749065E+03  0.60669329511E+03  0.78696725284E+02 0.  0.
         25    2    1    2    0    0 -0.89972673972E+02 -0.22973553604E+03 -0.70469993607E+01  0.27671373986E+03  0.12508930828E+03 0.  0.
        -24    2    1    2    0    0  0.58281102777E+02  0.17682365395E+03  0.13013113350E+04  0.13166075564E+04  0.73355132444E+02 0.  0.
        -11    1    3    3    0    0  0.26439585353E+02  0.66032773936E+02 -0.31445640856E+03  0.32240070067E+03  0.00000000000E+00 0.  1.
         12    1    3    3    0    0  0.52519858415E+01 -0.13120891853E+02 -0.28394108209E+03  0.28429259444E+03  0.00000000000E+00 0. -1.
         13    1    5    5    0    0  0.54330901683E+02  0.12169355046E+03  0.10927438398E+04  0.11008407090E+04  0.00000000000E+00 0. -1.
        -14    1    5    5    0    0  0.39502010944E+01  0.55130103491E+02  0.20856749512E+03  0.21576684736E+03  0.00000000000E+00 0.  1.
          5    1    4    4  501    0  0.24532046855E+02 -0.41174609526E+02 -0.26999330594E+02  0.55168886568E+02  0.41800000000E+01 0.  1.
         -5    1    4    4    0  501 -0.11450472083E+03 -0.18856092651E+03  0.19952331234E+02  0.22154485329E+03  0.41800000000E+01 0.  1.
</event>
<event>
11    1  0.8479398E-009  0.1488706E+03  0.7561462E-02  0.1098038E+00
         22   -1    0    0    0    0  0.00000000000E+00  0.00000000000E+00  0.28449053109E+03  0.28449053109E+03  0.00000000000E+00 0.  1.
         22   -1    0    0    0    0 -0.00000000000E+00 -0.00000000000E+00 -0.62423645496E+03  0.62423645496E+03  0.00000000000E+00 0.  1.
        -24    2    1    2    0    0  0.76254002591E+02 -0.23591499103E+02 -0.55488259628E+03  0.56659842875E+03  0.82266956137E+02 0.  0.
         25    2    1    2    0    0 -0.98740006382E+02  0.16985665197E+02  0.70298100388E+02  0.17500828079E+03  0.12509186123E+03 0.  0.
         24    2    1    2    0    0  0.22486003791E+02  0.66058339054E+01  0.14483857202E+03  0.16712027650E+03  0.80010733427E+02 0.  0.
        -11    1    5    5    0    0  0.50875539371E+02 -0.42008446349E+01  0.72563577171E+02  0.88721138033E+02  0.00000000000E+00 0.  1.
         12    1    5    5    0    0 -0.28389535580E+02  0.10806678540E+02  0.72274994853E+02  0.78399138468E+02  0.00000000000E+00 0. -1.
         13    1    3    3    0    0  0.57241322857E+02  0.23288321078E+02 -0.24857611915E+03  0.25614254226E+03  0.00000000000E+00 0. -1.
        -14    1    3    3    0    0  0.19012679734E+02 -0.46879820181E+02 -0.30630647713E+03  0.31045588650E+03  0.00000000000E+00 0.  1.
          5    1    4    4  501    0  0.35421594831E+01 -0.30817485836E+02 -0.13757448650E+02  0.34190702251E+02  0.41800000000E+01 0. -1.
         -5    1    4    4    0  501 -0.10228216587E+03  0.47803151034E+02  0.84055549038E+02  0.14081757854E+03  0.41800000000E+01 0.  1.
</event>
<event>
11    1  0.8479398E-009  0.1572870E+03  0.7561462E-02  0.1089657E+00
         22   -1    0    0    0    0  0.00000000000E+00  0.00000000000E+00  0.24475177337E+04  0.24475177337E+04  0.00000000000E+00 0. -1.
         22   -1    0    0    0    0 -0.00000000000E+00 -0.00000000000E+00 -0.81557811383E+02  0.81557811383E+02  0.00000000000E+00 0.  1.
        -24    2    1    2    0    0  0.18418301157E+02  0.77427531967E+02  0.99271791313E+02  0.15887362089E+03  0.95140329718E+02 0.  0.
         25    2    1    2    0    0  0.48716770936E+02 -0.11524799654E+03  0.10512039572E+03  0.20580064925E+03  0.12509270626E+03 0.  0.
         24    2    1    2    0    0 -0.67135072092E+02  0.37820464571E+02  0.21615677353E+04  0.21644012749E+04  0.79500310253E+02 0.  0.
        -11    1    5    5    0    0 -0.63024970301E+02  0.55383014787E+02  0.13333430612E+04  0.13359802184E+04  0.00000000000E+00 0.  1.
         12    1    5    5    0    0 -0.41101017908E+01 -0.17562550216E+02  0.82822467411E+03  0.82842105653E+03  0.00000000000E+00 0. -1.
         13    1    3    3    0    0 -0.26220954620E+02  0.14678479262E+02  0.70552481076E+02  0.76685388443E+02  0.00000000000E+00 0. -1.
        -14    1    3    3    0    0  0.44639255776E+02  0.62749052705E+02  0.28719310237E+02  0.82188232444E+02  0.00000000000E+00 0.  1.
          5    1    4    4  501    0  0.49740004153E+02 -0.13794975762E+03  0.67122970398E+02  0.16132938107E+03  0.41800000000E+01 0. -1.
         -5    1    4    4    0  501 -0.10232332179E+01  0.22701761083E+02  0.37997425325E+02  0.44471268184E+02  0.41800000000E+01 0. -1.
</event>
<event>
11    1  0.8479398E-009  0.1721973E+03  0.7561462E-02  0.1076135E+00
         22   -1    0    0    0    0  0.00000000000E+00  0.00000000000E+00  0.83656642167E+02  0.83656642167E+02  0.00000000000E+00 0. -1.
         22   -1    0    0    0    0 -0.00000000000E+00 -0.00000000000E+00 -0.20712229705E+04  0.20712229705E+04  0.00000000000E+00 0.  1.
         24    2    1    2    0    0 -0.39132179350E+02  0.11613024417E+03 -0.16851379010E+04  0.16914812521E+04  0.80009496843E+02 0.  0.
         25    2    1    2    0    0  0.40292190110E+01 -0.97804337609E+02 -0.33107777953E+03  0.36720543826E+03  0.12508163225E+03 0.  0.
        -24    2    1    2    0    0  0.35102960339E+02 -0.18325906557E+02  0.28649352290E+02  0.96192922265E+02  0.82850686368E+02 0.  0.
        -11    1    3    3    0    0 -0.48623275388E+02  0.10039381883E+03 -0.16189823262E+04  0.16228206661E+04  0.00000000000E+00 0.  1.
         12    1    3    3    0    0  0.94910960384E+01  0.15736425340E+02 -0.66155574835E+02  0.68660585988E+02  0.00000000000E+00 0. -1.
         11    1    5    5    0    0  0.17916950901E+02 -0.12353375027E+02  0.57838642847E+02  0.61797504889E+02  0.00000000000E+00 0. -1.
        -12    1    5    5    0    0  0.17186009438E+02 -0.59725315303E+01 -0.29189290557E+02  0.34395417376E+02  0.00000000000E+00 0.  1.
          5    1    4    4  501    0 -0.27268401430E+02 -0.11550945660E+03 -0.28390959661E+03  0.30774686307E+03  0.41800000000E+01 0. -1.
         -5    1    4    4    0  501  0.31297620441E+02  0.17705118991E+02 -0.47168182923E+02  0.59458575193E+02  0.41800000000E+01 0. -1.
</event>
<event>
11    1  0.8479398E-009  0.2270768E+03  0.7561462E-02  0.1036873E+00
         22   -1    0    0    0    0  0.00000000000E+00  0.00000000000E+00  0.62495339709E+03  0.62495339709E+03  0.00000000000E+00 0. -1.
         22   -1    0    0    0    0 -0.00000000000E+00 -0.00000000000E+00 -0.10868708376E+04  0.10868708376E+04  0.00000000000E+00 0. -1.
        -24    2    1    2    0    0 -0.16866634705E+03 -0.91495641630E+02 -0.86911179326E+03  0.89265909794E+03  0.68302026875E+02 0.  0.
         25    2    1    2    0    0  0.16907871431E+03  0.60244823181E+02 -0.14439048036E+03  0.26213069548E+03  0.12508733085E+03 0.  0.
         24    2    1    2    0    0 -0.41236726403E+00  0.31250818449E+02  0.55158483312E+03  0.55703444126E+03  0.71167105623E+02 0.  0.
        -13    1    5    5    0    0  0.19496990331E+02  0.10866442053E+02  0.51382492650E+02  0.56021181225E+02  0.00000000000E+00 0.  1.
         14    1    5    5    0    0 -0.19909357595E+02  0.20384376396E+02  0.50020234047E+03  0.50101326004E+03  0.00000000000E+00 0. -1.
         11    1    3    3    0    0 -0.14834563535E+03 -0.49720172961E+02 -0.63579715080E+03  0.65476449209E+03  0.00000000000E+00 0. -1.
        -12    1    3    3    0    0 -0.20320711697E+02 -0.41775468670E+02 -0.23331464246E+03  0.23789460585E+03  0.00000000000E+00 0.  1.
          5    1    4    4  501    0 -0.13115546407E+02  0.30662022337E+02 -0.15823111281E+02  0.37148626111E+02  0.41800000000E+01 0. -1.
         -5    1    4    4    0  501  0.18219426072E+03  0.29582800845E+02 -0.12856736907E+03  0.22498206937E+03  0.41800000000E+01 0. -1.
</event>
<event>
11    1  0.8479398E-009  0.1637662E+03  0.7561462E-02  0.1083588E+00
         22   -1    0    0    0    0  0.00000000000E+00  0.00000000000E+00  0.25119916013E+04  0.25119916013E+04  0.00000000000E+00 0. -1.
         22   -1    0    0    0    0 -0.00000000000E+00 -0.00000000000E+00 -0.10335292273E+03  0.10335292273E+03  0.00000000000E+00 0. -1.
        -24    2    1    2    0    0  0.90970889390E+02  0.50783893178E+02 -0.41000307882E+02  0.13793676840E+03  0.80565627331E+02 0.  0.
         25    2    1    2    0    0  0.30891617362E+02 -0.55628534799E+02  0.42580078220E+03  0.44833325902E+03  0.12509028387E+03 0.  0.
         24    2    1    2    0    0 -0.12186250675E+03  0.48446416215E+01  0.20238382043E+04  0.20290744966E+04  0.79676186271E+02 0.  0.
        -13    1    5    5    0    0  0.26589315063E+01 -0.18407361988E+02  0.21251913003E+03  0.21333138898E+03  0.00000000000E+00 0.  1.
         14    1    5    5    0    0 -0.12452143826E+03  0.23252003609E+02  0.18113190743E+04  0.18157431077E+04  0.00000000000E+00 0. -1.
         11    1    3    3    0    0  0.80615643557E+02  0.68114084298E+02 -0.48824701308E+02  0.11628526099E+03  0.00000000000E+00 0. -1.
        -12    1    3    3    0    0  0.10355245832E+02 -0.17330191121E+02  0.78243934260E+01  0.21651507407E+02  0.00000000000E+00 0.  1.
          5    1    4    4  501    0 -0.36871489867E+02 -0.61866706997E+02  0.22305493836E+03  0.23443117141E+03  0.41800000000E+01 0.  1.
         -5    1    4    4    0  501  0.67763107228E+02  0.62381721974E+01  0.20274584383E+03  0.21390208761E+03  0.41800000000E+01 0.  1.
</event>
<event>
11    1  0.8479398E-009  0.2366389E+03  0.7561462E-02  0.1031268E+00
         22   -1    0    0    0    0  0.00000000000E+00  0.00000000000E+00  0.48388745099E+03  0.48388745099E+03  0.00000000000E+00 0.  1.
         22   -1    0    0    0    0 -0.00000000000E+00 -0.00000000000E+00 -0.24929625295E+03  0.24929625295E+03  0.00000000000E+00 0. -1.
         24    2    1    2    0    0  0.17646412714E+03 -0.10688545046E+03 -0.12011879050E+03  0.25177091869E+03  0.79974895940E+02 0.  0.
         25    2    1    2    0    0 -0.11789350498E+03  0.14641969341E+03  0.22087365434E+03  0.31586367167E+03  0.12508829988E+03 0.  0.
        -24    2    1    2    0    0 -0.58570622161E+02 -0.39534242954E+02  0.13383633420E+03  0.16554911358E+03  0.67088527405E+02 0.  0.
        -11    1    3    3    0    0  0.30079864097E+02 -0.43820788367E+01  0.85352194527E+01  0.31572944274E+02  0.00000000000E+00 0.  1.
         12    1    3    3    0    0  0.14638426304E+03 -0.10250337162E+03 -0.12865400996E+03  0.22019797442E+03  0.00000000000E+00 0. -1.
         13    1    5    5    0    0 -0.58428969502E+02 -0.54564430266E+01  0.10752248075E+03  0.12249408604E+03  0.00000000000E+00 0. -1.
        -14    1    5    5    0    0 -0.14165265852E+00 -0.34077799927E+02  0.26313853447E+02  0.43055027541E+02  0.00000000000E+00 0.  1.
          5    1    4    4  501    0 -0.61881284200E+02 -0.58469952178E+01  0.76395801810E+02  0.98576222394E+02  0.41800000000E+01 0. -1.
         -5    1    4    4    0  501 -0.56012220776E+02  0.15226668863E+03  0.14447785253E+03  0.21728744928E+03  0.41800000000E+01 0. -1.
</event>
<event>
11    1  0.8479398E-009  0.1341340E+03  0.7561462E-02  0.1114291E+00
         22   -1    0    0    0    0  0.00000000000E+00  0.00000000000E+00  0.58871984122E+03  0.58871984122E+03  0.00000000000E+00 0.  1.
         22   -1    0    0    0    0 -0.00000000000E+00 -0.00000000000E+00 -0.14471482515E+04  0.14471482515E+04  0.00000000000E+00 0. -1.
         24    2    1    2    0    0 -0.51246357952E+02  0.27936344130E+02 -0.10451122683E+04  0.10499061990E+04  0.81466218167E+02 0.  0.
         25    2    1    2    0    0  0.14718692522E+02  0.15956981927E+02 -0.38523071728E+03  0.40561181264E+03  0.12508785646E+03 0.  0.
        -24    2    1    2    0    0  0.36527665429E+02 -0.43893326058E+02  0.57191457528E+03  0.58035008115E+03  0.80368158278E+02 0.  0.
        -13    1    3    3    0    0 -0.71008229047E+01  0.50211110131E+02 -0.51112781039E+03  0.51363724146E+03  0.00000000000E+00 0.  1.
         14    1    3    3    0    0 -0.44145535047E+02 -0.22274766001E+02 -0.53398445792E+03  0.53626895749E+03  0.00000000000E+00 0. -1.
         13    1    5    5    0    0  0.32409190732E+02 -0.45101980008E+02  0.17913468265E+03  0.18754673757E+03  0.00000000000E+00 0. -1.
        -14    1    5    5    0    0  0.41184746971E+01  0.12086539506E+01  0.39277989263E+03  0.39280334358E+03  0.00000000000E+00 0.  1.
          5    1    4    4  501    0  0.55229853791E+02 -0.27782220716E+02 -0.25341049005E+03  0.26087647921E+03  0.41800000000E+01 0.  1.
         -5    1    4    4    0  501 -0.40511161269E+02  0.43739202644E+02 -0.13182022723E+03  0.14473533343E+03  0.41800000000E+01 0.  1.
</event>
<event>
11    1  0.8479398E-009  0.1740963E+03  0.7561462E-02  0.1074521E+00
         22   -1    0    0    0    0  0.00000000000E+00  0.00000000000E+00  0.17955756360E+04  0.17955756360E+04  0.00000000000E+00 0. -1.
         22   -1    0    0    0    0 -0.00000000000E+00 -0.00000000000E+00 -0.38233715061E+03  0.38233715061E+03  0.00000000000E+00 0. -1.
         24    2    1    2    0    0  0.10931228979E+02  0.10156756913E+03 -0.18486105069E+03  0.22626362012E+03  0.81155128397E+02 0.  0.
         25    2    1    2    0    0 -0.22369157735E+02 -0.18628465758E+03 -0.10196571959E+03  0.24748272908E+03  0.12509332656E+03 0.  0.
        -24    2    1    2    0    0  0.11437928756E+02  0.84717088456E+02  0.17000652556E+04  0.17041664374E+04  0.81569366734E+02 0.  0.
        -11    1    3    3    0    0 -0.76073411174E+01  0.38648091326E+02 -0.11692684873E+02  0.41088507901E+02  0.00000000000E+00 0.  1.
         12    1    3    3    0    0  0.18538570096E+02  0.62919477802E+02 -0.17316836581E+03  0.18517511222E+03  0.00000000000E+00 0. -1.
         13    1    5    5    0    0  0.31119054529E+02  0.89117308780E+02  0.15301025359E+04  0.15330114352E+04  0.00000000000E+00 0. -1.
        -14    1    5    5    0    0 -0.19681125773E+02 -0.44002203235E+01  0.16996271977E+03  0.17115500215E+03  0.00000000000E+00 0.  1.
          5    1    4    4  501    0 -0.53759803600E+01  0.18135172392E+02 -0.26859266935E+01  0.19556897626E+02  0.41800000000E+01 0.  1.
         -5    1    4    4    0  501 -0.16993177375E+02 -0.20441982998E+03 -0.99279792896E+02  0.22792583145E+03  0.41800000000E+01 0.  1.
</event>
<event>
11    1  0.8479398E-009  0.1482301E+03  0.7561462E-02  0.1098701E+00
         22   -1    0    0    0    0  0.00000000000E+00  0.00000000000E+00  0.33198778321E+02  0.33198778321E+02  0.00000000000E+00 0.  1.
         22   -1    0    0    0    0 -0.00000000000E+00 -0.00000000000E+00 -0.26795769247E+04  0.26795769247E+04  0.00000000000E+00 0.  1.
        -24    2    1    2    0    0  0.98086016620E+02 -0.25794579633E+01 -0.12962784462E+04  0.13024462660E+04  0.80005910370E+02 0.  0.
         25    2    1    2    0    0 -0.52594708719E+02 -0.38822405652E+02 -0.12787563489E+04  0.12865221812E+04  0.12509252706E+03 0.  0.
         24    2    1    2    0    0 -0.45491307900E+02  0.41401863615E+02 -0.71343351337E+02  0.12380725578E+03  0.80341703988E+02 0.  0.
        -13    1    5    5    0    0 -0.56531867355E+02  0.40813287152E+02 -0.21812243923E+02  0.73057172268E+02  0.00000000000E+00 0.  1.
         14    1    5    5    0    0  0.11040559455E+02  0.58857646285E+00 -0.49531107414E+02  0.50750083517E+02  0.00000000000E+00 0. -1.
         11    1    3    3    0    0  0.33620446834E+02  0.36566229106E+02 -0.41970852611E+03  0.42263775322E+03  0.00000000000E+00 0. -1.
        -12    1    3    3    0    0  0.64465569786E+02 -0.39145687069E+02 -0.87656992004E+03  0.87980851282E+03  0.00000000000E+00 0.  1.
          5    1    4    4  501    0 -0.37660364821E+02 -0.40559826668E+02 -0.12634321594E+04  0.12646508199E+04  0.41800000000E+01 0.  1.
         -5    1    4    4    0  501 -0.14934343899E+02  0.17374210164E+01 -0.15324189529E+02  0.21871361279E+02  0.41800000000E+01 0.  1.
</event>
<event>
11    1  0.8479398E-009  0.1421375E+03  0.7561462E-02  0.1105195E+00
         22   -1    0    0    0    0  0.00000000000E+00  0.00000000000E+00  0.60139910736E+03  0.60139910736E+03  0.00000000000E+00 0.  1.
         22   -1    0    0    0    0 -0.00000000000E+00 -0.00000000000E+00 -0.18721546427E+03  0.18721546427E+03  0.00000000000E+00 0.  1.
        -24    2    1    2    0    0  0.68194107694E+02 -0.10179883162E+02 -0.13706682071E+03  0.17562598403E+03  0.85458215409E+02 0.  0.
         25    2    1    2    0    0 -0.56891749174E+02 -0.27884239983E+02  0.16559274981E+03  0.21698625656E+03  0.12509146567E+03 0.  0.
         24    2    1    2    0    0 -0.11302358520E+02  0.38064123145E+02  0.38565771398E+03  0.39600233104E+03  0.80680561808E+02 0.  0.
        -13    1    5    5    0    0 -0.32323402728E+02 -0.71718726888E+01  0.23452437397E+03  0.23684999495E+03  0.00000000000E+00 0.  1.
         14    1    5    5    0    0  0.21021044208E+02  0.45235995833E+02  0.15113334001E+03  0.15915233609E+03  0.00000000000E+00 0. -1.
         13    1    3    3    0    0 -0.16315570806E+02  0.48124573825E+01 -0.43227461561E+01  0.17551174636E+02  0.00000000000E+00 0. -1.
        -14    1    3    3    0    0  0.84509678500E+02 -0.14992340544E+02 -0.13274407455E+03  0.15807480939E+03  0.00000000000E+00 0.  1.
          5    1    4    4  501    0 -0.27150676005E+02  0.46174047249E+02  0.35797625487E+02  0.64561166636E+02  0.41800000000E+01 0. -1.
         -5    1    4    4    0  501 -0.29741073169E+02 -0.74058287232E+02  0.12979512432E+03  0.15242508993E+03  0.41800000000E+01 0. -1.
</event>
<event>
11    1  0.8479398E-009  0.1344094E+03  0.7561462E-02  0.1113967E+00
         22   -1    0    0    0    0  0.00000000000E+00  0.00000000000E+00  0.66672347883E+03  0.66672347883E+03  0.00000000000E+00 0. -1.
         22   -1    0    0    0    0 -0.00000000000E+00 -0.00000000000E+00 -0.80527005792E+03  0.80527005792E+03  0.00000000000E+00 0.  1.
        -24    2    1    2    0    0  0.15200528606E+02  0.46291920268E+02 -0.76079167996E+03  0.76653551065E+03  0.79991942325E+02 0.  0.
         25    2    1    2    0    0 -0.45946097577E+02 -0.59846434778E+02  0.10215479585E+03  0.17825747960E+03  0.12508991599E+03 0.  0.
         24    2    1    2    0    0  0.30745568971E+02  0.13554514510E+02  0.52009030503E+03  0.52720054649E+03  0.79482551306E+02 0.  0.
        -11    1    5    5    0    0  0.11782802636E+02  0.46381999964E+02  0.26093588796E+03  0.26528788510E+03  0.00000000000E+00 0.  1.
         12    1    5    5    0    0  0.18962766335E+02 -0.32827485453E+02  0.25915441707E+03  0.26191266139E+03  0.00000000000E+00 0. -1.
         13    1    3    3    0    0  0.75619173744E+01 -0.10085283399E+02 -0.20531142030E+02  0.24091976438E+02  0.00000000000E+00 0. -1.
        -14    1    3    3    0    0  0.76386112316E+01  0.56377203668E+02 -0.74026053793E+03  0.74244353421E+03  0.00000000000E+00 0.  1.
          5    1    4    4  501    0 -0.29264510075E+02  0.34426609502E+02  0.12593863103E+02  0.47092258170E+02  0.41800000000E+01 0. -1.
         -5    1    4    4    0  501 -0.16681587502E+02 -0.94273044280E+02  0.89560932744E+02  0.13116522143E+03  0.41800000000E+01 0. -1.
</event>
<event>
11    1  0.8479398E-009  0.1855322E+03  0.7561462E-02  0.1065254E+00
         22   -1    0    0    0    0  0.00000000000E+00  0.00000000000E+00  0.22534738067E+03  0.22534738067E+03  0.00000000000E+00 0.  1.
         22   -1    0    0    0    0 -0.00000000000E+00 -0.00000000000E+00 -0.81065672819E+03  0.81065672819E+03  0.00000000000E+00 0. -1.
         24    2    1    2    0    0  0.74774568293E+02  0.67298394356E+02 -0.11784638989E+03  0.17432142189E+03  0.79874129562E+02 0.  0.
         25    2    1    2    0    0 -0.79098608923E+02 -0.20052309039E+03 -0.60481816537E+03  0.65415342266E+03  0.12508232291E+03 0.  0.
        -24    2    1    2    0    0  0.43240406298E+01  0.13322469603E+03  0.13735520774E+03  0.20752926431E+03  0.80214870753E+02 0.  0.
        -11    1    3    3    0    0 -0.25316976647E+01 -0.15095486889E+02 -0.17038135181E+02  0.22903739170E+02  0.00000000000E+00 0.  1.
         12    1    3    3    0    0  0.77306265957E+02  0.82393881245E+02 -0.10080825471E+03  0.15141768272E+03  0.00000000000E+00 0. -1.
         11    1    5    5    0    0  0.30143313966E+02  0.57070189638E+02  0.24672262479E+02  0.69096645779E+02  0.00000000000E+00 0. -1.
        -12    1    5    5    0    0 -0.25819273336E+02  0.76154506397E+02  0.11268294526E+03  0.13843261853E+03  0.00000000000E+00 0.  1.
          5    1    4    4  501    0 -0.14908741273E+02 -0.17305913523E+03 -0.48785871523E+03  0.51787578943E+03  0.41800000000E+01 0.  1.
         -5    1    4    4    0  501 -0.64189867649E+02 -0.27463955157E+02 -0.11695945014E+03  0.13627763323E+03  0.41800000000E+01 0.  1.
</event>
<event>
11    1  0.8479398E-009  0.2001161E+03  0.7561462E-02  0.1054442E+00
         22   -1    0    0    0    0  0.00000000000E+00  0.00000000000E+00  0.68381010408E+03  0.68381010408E+03  0.00000000000E+00 0.  1.
         22   -1    0    0    0    0 -0.00000000000E+00 -0.00000000000E+00 -0.25937339643E+03  0.25937339643E+03  0.00000000000E+00 0.  1.
         24    2    1    2    0    0  0.68116234822E+02  0.14173242538E+03 -0.19349643737E+03  0.26181599115E+03  0.79867641104E+02 0.  0.
         25    2    1    2    0    0 -0.10079520923E+03 -0.10978596315E+03  0.40178649264E+03  0.44642483787E+03  0.12510043281E+03 0.  0.
        -24    2    1    2    0    0  0.32678974405E+02 -0.31946462228E+02  0.21614665238E+03  0.23494267148E+03  0.79938674808E+02 0.  0.
        -13    1    3    3    0    0  0.36039212508E+01  0.89880190193E+02 -0.12708357482E+03  0.15569737257E+03  0.00000000000E+00 0.  1.
         14    1    3    3    0    0  0.64512313571E+02  0.51852235189E+02 -0.66412862559E+02  0.10611861858E+03  0.00000000000E+00 0. -1.
         13    1    5    5    0    0  0.57197001913E+02 -0.79133011199E+01  0.13677328265E+03  0.14846227874E+03  0.00000000000E+00 0. -1.
        -14    1    5    5    0    0 -0.24518027508E+02 -0.24033161109E+02  0.79373369731E+02  0.86480392739E+02  0.00000000000E+00 0.  1.
          5    1    4    4  501    0  0.21822684525E+00 -0.43745013699E+02  0.24297100095E+03  0.24691304856E+03  0.41800000000E+01 0. -1.
         -5    1    4    4    0  501 -0.10101343607E+03 -0.66040949455E+02  0.15881549169E+03  0.19951178931E+03  0.41800000000E+01 0. -1.
</event>
<event>
11    1  0.8479398E-009  0.2128817E+03  0.7561462E-02  0.1045770E+00
         22   -1    0    0    0    0  0.00000000000E+00  0.00000000000E+00  0.12635030056E+03  0.12635030056E+03  0.00000000000E+00 0.  1.
         22   -1    0    0    0    0 -0.00000000000E+00 -0.00000000000E+00 -0.20818062174E+04  0.20818062174E+04  0.00000000000E+00 0.  1.
         24    2    1    2    0    0 -0.17541657383E+03 -0.11498048324E+02 -0.18690372988E+04  0.18792267916E+04  0.85379917435E+02 0.  0.
         25    2    1    2    0    0  0.13660465976E+03 -0.44127132109E+02 -0.11023741795E+03  0.22001753908E+03  0.12508953725E+03 0.  0.
        -24    2    1    2    0    0  0.38811914067E+02  0.55625180433E+02  0.23818799926E+02  0.10891218732E+03  0.81816892781E+02 0.  0.
        -11    1    3    3    0    0 -0.15267038898E+03 -0.25814719801E+02 -0.12420985534E+04  0.12517122128E+04  0.00000000000E+00 0.  1.
         12    1    3    3    0    0 -0.22746184846E+02  0.14316671477E+02 -0.62693874543E+03  0.62751457874E+03  0.00000000000E+00 0. -1.
         13    1    5    5    0    0  0.12334585944E+02  0.73246432373E+02  0.13653290710E+02  0.75522143859E+02  0.00000000000E+00 0. -1.
        -14    1    5    5    0    0  0.26477328123E+02 -0.17621251940E+02  0.10165509216E+02  0.33390043458E+02  0.00000000000E+00 0.  1.
          5    1    4    4  501    0  0.76954191602E+01 -0.58713000911E+02 -0.46540181169E+02  0.75431404701E+02  0.41800000000E+01 0. -1.
         -5    1    4    4    0  501  0.12890924060E+03  0.14585868801E+02 -0.63697236782E+02  0.14458613438E+03  0.41800000000E+01 0. -1.
</event>
<event>
11    1  0.8479398E-009  0.1482094E+03  0.7561462E-02  0.1098723E+00
         22   -1    0    0    0    0  0.00000000000E+00  0.00000000000E+00  0.10289873386E+03  0.10289873386E+03  0.00000000000E+00 0.  1.
         22   -1    0    0    0    0 -0.00000000000E+00 -0.00000000000E+00 -0.36513951506E+03  0.36513951506E+03  0.00000000000E+00 0.  1.
         24    2    1    2    0    0  0.75524013064E+02 -0.70412829324E+02 -0.15066817061E+03  0.20085216876E+03  0.83539529447E+02 0.  0.
         25    2    1    2    0    0 -0.21196054826E+02  0.27908271708E+02 -0.41707972654E+02  0.13644003956E+03  0.12509270579E+03 0.  0.
        -24    2    1    2    0    0 -0.54327958237E+02  0.42504557616E+02 -0.69864637939E+02  0.13074604060E+03  0.86344050370E+02 0.  0.
        -13    1    3    3    0    0  0.15233619969E+02 -0.76538433416E+01  0.87980415076E+01  0.19184630036E+02  0.00000000000E+00 0.  1.
         14    1    3    3    0    0  0.60290393095E+02 -0.62758985982E+02 -0.15946621211E+03  0.18166753873E+03  0.00000000000E+00 0. -1.
         11    1    5    5    0    0  0.78778828140E+01  0.37628391238E+02 -0.19123568981E+01  0.38491739032E+02  0.00000000000E+00 0. -1.
        -12    1    5    5    0    0 -0.62205841051E+02  0.48761663780E+01 -0.67952281041E+02  0.92254301570E+02  0.00000000000E+00 0.  1.
          5    1    4    4  501    0 -0.15921407834E+02  0.57803263035E+02 -0.71702830868E+02  0.93560017098E+02  0.41800000000E+01 0.  1.
         -5    1    4    4    0  501 -0.52746469923E+01 -0.29894991327E+02  0.29994858214E+02  0.42880022465E+02  0.41800000000E+01 0.  1.
</event>
<event>
11    1  0.8479398E-009  0.1350867E+03  0.7561462E-02  0.1113172E+00
         22   -1    0    0    0    0  0.00000000000E+00  0.00000000000E+00  0.13286436589E+04  0.13286436589E+04  0.00000000000E+00 0.  1.
         22   -1    0    0    0    0 -0.00000000000E+00 -0.00000000000E+00 -0.12917981077E+03  0.12917981077E+03  0.00000000000E+00 0. -1.
         24    2    1    2    0    0  0.29214428345E+02 -0.40848548150E+01 -0.58162644659E+02  0.10318578631E+03  0.79964019413E+02 0.  0.
         25    2    1    2    0    0 -0.55620003280E+02 -0.38992155299E+02  0.62089941001E+02  0.15529522282E+03  0.12508985777E+03 0.  0.
        -24    2    1    2    0    0  0.26405574935E+02  0.43077010114E+02  0.11955365518E+04  0.11993424606E+04  0.81004986366E+02 0.  0.
        -13    1    3    3    0    0 -0.87888913283E+01 -0.34898612522E+02 -0.20286806106E+02  0.41312374281E+02  0.00000000000E+00 0.  1.
         14    1    3    3    0    0  0.38003319674E+02  0.30813757707E+02 -0.37875838553E+02  0.61873412031E+02  0.00000000000E+00 0. -1.
         11    1    5    5    0    0 -0.21134390553E+02  0.34190159144E+02  0.32711836763E+03  0.32957860350E+03  0.00000000000E+00 0. -1.
        -12    1    5    5    0    0  0.47539965488E+02  0.88868509701E+01  0.86841818419E+03  0.86976385707E+03  0.00000000000E+00 0.  1.
          5    1    4    4  501    0 -0.93797616846E+02 -0.15122034038E+02  0.53985907477E+02  0.10935547287E+03  0.41800000000E+01 0. -1.
         -5    1    4    4    0  501  0.38177613566E+02 -0.23870121261E+02  0.81040335249E+01  0.45939749956E+02  0.41800000000E+01 0. -1.
</event>
<event>
11    1  0.8479398E-009  0.1368482E+03  0.7561462E-02  0.1111130E+00
         22   -1    0    0    0    0  0.00000000000E+00  0.00000000000E+00  0.15190491126E+04  0.15190491126E+04  0.00000000000E+00 0.  1.
         22   -1    0    0    0    0 -0.00000000000E+00 -0.00000000000E+00 -0.88826656692E+02  0.88826656692E+02  0.00000000000E+00 0.  1.
         24    2    1    2    0    0  0.15375533546E+02 -0.21901033711E+02 -0.50814524569E+02  0.98898916094E+02  0.80515944930E+02 0.  0.
         25    2    1    2    0    0 -0.39392006421E+02 -0.30359373735E+02  0.37475493153E+03  0.39820218480E+03  0.12510115716E+03 0.  0.
        -24    2    1    2    0    0  0.24016472875E+02  0.52260407446E+02  0.11062820489E+04  0.11107746684E+04  0.81562558780E+02 0.  0.
        -13    1    3    3    0    0  0.15704247675E+02 -0.16100451379E+02 -0.72781098775E+02  0.76177006167E+02  0.00000000000E+00 0.  1.
         14    1    3    3    0    0 -0.32871412920E+00 -0.58005823313E+01  0.21966574206E+02  0.22721909927E+02  0.00000000000E+00 0. -1.
         11    1    5    5    0    0  0.43136650701E+02  0.33071001030E+02  0.36767664259E+03  0.37167267219E+03  0.00000000000E+00 0. -1.
        -12    1    5    5    0    0 -0.19120177826E+02  0.19189406416E+02  0.73860540632E+03  0.73910199618E+03  0.00000000000E+00 0.  1.
          5    1    4    4  501    0  0.31396976393E+02 -0.36021860221E+02  0.25026513899E+03  0.25482044018E+03  0.41800000000E+01 0.  1.
         -5    1    4    4    0  501 -0.70788982814E+02  0.56624864861E+01  0.12448979254E+03  0.14338174461E+03  0.41800000000E+01 0.  1.
</event>
<event>
11    1  0.8479398E-009  0.1370744E+03  0.7561462E-02  0.1110870E+00
         22   -1    0    0    0    0  0.00000000000E+00  0.00000000000E+00  0.38438216056E+03  0.38438216056E+03  0.00000000000E+00 0. -1.
         22   -1    0    0    0    0 -0.00000000000E+00 -0.00000000000E+00 -0.62588919343E+03  0.62588919343E+03  0.00000000000E+00 0.  1.
        -24    2    1    2    0    0  0.60053944721E+02  0.75251459672E+01 -0.47552314222E+03  0.48572598367E+03  0.78386021247E+02 0.  0.
         25    2    1    2    0    0 -0.10648194933E+03  0.19138905914E+02 -0.88197600725E+02  0.18743369493E+03  0.12509144642E+03 0.  0.
         24    2    1    2    0    0  0.46428004607E+02 -0.26664051882E+02  0.32221371006E+03  0.33711167539E+03  0.83403090226E+02 0.  0.
        -11    1    5    5    0    0  0.62159928766E+02  0.35475668825E+01  0.16761459276E+03  0.17880462433E+03  0.00000000000E+00 0.  1.
         12    1    5    5    0    0 -0.15731924158E+02 -0.30211618764E+02  0.15459911730E+03  0.15830705107E+03  0.00000000000E+00 0. -1.
         13    1    3    3    0    0  0.65167468742E+02 -0.50558706629E+01 -0.21187155179E+03  0.22172486390E+03  0.00000000000E+00 0. -1.
        -14    1    3    3    0    0 -0.51135240214E+01  0.12581016630E+02 -0.26365159042E+03  0.26400111977E+03  0.00000000000E+00 0.  1.
          5    1    4    4  501    0 -0.12109243836E+03  0.47063990577E+02 -0.85379031705E+02  0.15551671708E+03  0.41800000000E+01 0.  1.
         -5    1    4    4    0  501  0.14610489036E+02 -0.27925084663E+02 -0.28185690206E+01  0.31916977843E+02  0.41800000000E+01 0.  1.
</event>
<event>
11    1  0.8479398E-009  0.1251174E+03  0.7561462E-02  0.1125418E+00
         22   -1    0    0    0    0  0.00000000000E+00  0.00000000000E+00  0.93596538114E+03  0.93596538114E+03  0.00000000000E+00 0.  1.
         22   -1    0    0    0    0 -0.00000000000E+00 -0.00000000000E+00 -0.16682915404E+03  0.16682915404E+03  0.00000000000E+00 0.  1.
        -24    2    1    2    0    0 -0.29709057189E+02  0.13453194052E+02 -0.13559057503E+03  0.15697839264E+03  0.72067990171E+02 0.  0.
         25    2    1    2    0    0  0.23964368797E+02 -0.13458925200E+02  0.20858110576E+03  0.24476204137E+03  0.12508775151E+03 0.  0.
         24    2    1    2    0    0  0.57446883925E+01  0.57311483716E-02  0.69614569638E+03  0.70105410117E+03  0.82613683539E+02 0.  0.
        -13    1    5    5    0    0  0.38595752281E+02  0.20709037694E+02  0.34573912563E+03  0.34850256718E+03  0.00000000000E+00 0.  1.
         14    1    5    5    0    0 -0.32851063889E+02 -0.20703306546E+02  0.35040657074E+03  0.35255153399E+03  0.00000000000E+00 0. -1.
         13    1    3    3    0    0  0.47104813964E+01  0.12745677922E+02  0.32181697950E+01  0.13964152588E+02  0.00000000000E+00 0. -1.
        -14    1    3    3    0    0 -0.34419538586E+02  0.70751613020E+00 -0.13880874483E+03  0.14301424005E+03  0.00000000000E+00 0.  1.
          5    1    4    4  501    0 -0.41902373309E+02  0.82746025813E+01  0.27918671170E+02  0.51197680970E+02  0.41800000000E+01 0.  1.
         -5    1    4    4    0  501  0.65866742106E+02 -0.21733527782E+02  0.18066243459E+03  0.19356436040E+03  0.41800000000E+01 0.  1.
</event>
<event>
11    1  0.8479398E-009  0.1381757E+03  0.7561462E-02  0.1109613E+00
         22   -1    0    0    0    0  0.00000000000E+00  0.00000000000E+00  0.97276434785E+03  0.97276434785E+03  0.00000000000E+00 0. -1.
         22   -1    0    0    0    0 -0.00000000000E+00 -0.00000000000E+00 -0.66408886653E+03  0.66408886653E+03  0.00000000000E+00 0.  1.
        -24    2    1    2    0    0  0.23455590089E+01 -0.32562577637E+02 -0.62501711423E+03  0.63039423637E+03  0.75396797423E+02 0.  0.
         25    2    1    2    0    0  0.21484646387E+02  0.83598660100E+02  0.13960786276E+03  0.20636943911E+03  0.12509062336E+03 0.  0.
         24    2    1    2    0    0 -0.23830205396E+02 -0.51036082463E+02  0.79408473279E+03  0.80008953890E+03  0.80000918796E+02 0.  0.
        -13    1    5    5    0    0  0.17290288442E+02  0.12248408350E+02  0.12787612151E+03  0.12961975172E+03  0.00000000000E+00 0.  1.
         14    1    5    5    0    0 -0.41120493838E+02 -0.63284490813E+02  0.66620861127E+03  0.67046978718E+03  0.00000000000E+00 0. -1.
         13    1    3    3    0    0 -0.25276810096E+02 -0.44553816802E+02 -0.34897174694E+03  0.35271126986E+03  0.00000000000E+00 0. -1.
        -14    1    3    3    0    0  0.27622369105E+02  0.11991239165E+02 -0.27604536729E+03  0.27768296652E+03  0.00000000000E+00 0.  1.
          5    1    4    4  501    0 -0.38497284880E+02  0.51977838014E+02  0.11877861384E+03  0.13531285266E+03  0.41800000000E+01 0.  1.
         -5    1    4    4    0  501  0.59981931267E+02  0.31620822085E+02  0.20829248918E+02  0.71056586453E+02  0.41800000000E+01 0.  1.
</event>
<event>
11    1  0.8479398E-009  0.1287700E+03  0.7561462E-02  0.1120790E+00
         22   -1    0    0    0    0  0.00000000000E+00  0.00000000000E+00  0.38162823226E+02  0.38162823226E+02  0.00000000000E+00 0.  1.
         22   -1    0    0    0    0 -0.00000000000E+00 -0.00000000000E+00 -0.16046499230E+04  0.16046499230E+04  0.00000000000E+00 0.  1.
        -24    2    1    2    0    0  0.28285673008E+02  0.15747385007E+02 -0.12674276067E+04  0.12706165966E+04  0.83938894537E+02 0.  0.
         25    2    1    2    0    0 -0.24952556914E+00 -0.21488852574E+02 -0.21784775651E+03  0.25212456647E+03  0.12508924394E+03 0.  0.
         24    2    1    2    0    0 -0.28036147439E+02  0.57414675669E+01 -0.81211736605E+02  0.12007158316E+03  0.83683026395E+02 0.  0.
        -13    1    5    5    0    0 -0.25362086987E+02 -0.23174781219E+02 -0.56979313200E+00  0.34360305661E+02  0.00000000000E+00 0.  1.
         14    1    5    5    0    0 -0.26740604514E+01  0.28916248786E+02 -0.80641943473E+02  0.85711277497E+02  0.00000000000E+00 0. -1.
         13    1    3    3    0    0  0.40863409322E+02  0.62741633918E+01 -0.27740203613E+03  0.28046581431E+03  0.00000000000E+00 0. -1.
        -14    1    3    3    0    0 -0.12577736315E+02  0.94732216157E+01 -0.99002557054E+03  0.99015078230E+03  0.00000000000E+00 0.  1.
          5    1    4    4  501    0  0.23139316389E+01 -0.20010288027E+02 -0.23414216737E+03  0.23504423594E+03  0.41800000000E+01 0. -1.
         -5    1    4    4    0  501 -0.25634572080E+01 -0.14785645469E+01  0.16294410854E+02  0.17080330531E+02  0.41800000000E+01 0. -1.
</event>
<event>
11    1  0.8479398E-009  0.1323722E+03  0.7561462E-02  0.1116388E+00
         22   -1    0    0    0    0  0.00000000000E+00  0.00000000000E+00  0.14678136769E+03  0.14678136769E+03  0.00000000000E+00 0.  1.
         22   -1    0    0    0    0 -0.00000000000E+00 -0.00000000000E+00 -0.24251507963E+04  0.24251507963E+04  0.00000000000E+00 0.  1.
        -24    2    1    2    0    0  0.42056713461E+02  0.71968368344E+01 -0.23127738179E+04  0.23148257385E+04  0.87606535358E+02 0.  0.
         25    2    1    2    0    0 -0.83989564291E+02 -0.27686869013E+02 -0.86009941820E+01  0.15343667004E+03  0.12509206604E+03 0.  0.
         24    2    1    2    0    0  0.41932850830E+02  0.20490032179E+02  0.43005383512E+02  0.10366975546E+03  0.81974079985E+02 0.  0.
        -13    1    5    5    0    0  0.31180985188E+02  0.51137872870E+02  0.17576030335E+02  0.62419970533E+02  0.00000000000E+00 0.  1.
         14    1    5    5    0    0  0.10751865643E+02 -0.30647840692E+02  0.25429353177E+02  0.41249784931E+02  0.00000000000E+00 0. -1.
         11    1    3    3    0    0  0.42967653222E+02 -0.50503731059E+01 -0.46433773893E+03  0.46634886221E+03  0.00000000000E+00 0. -1.
        -12    1    3    3    0    0 -0.91093976084E+00  0.12247209940E+02 -0.18484360790E+04  0.18484768763E+04  0.00000000000E+00 0.  1.
          5    1    4    4  501    0 -0.18223334599E+02  0.37694326705E+02 -0.37344539386E+02  0.56258681211E+02  0.41800000000E+01 0.  1.
         -5    1    4    4    0  501 -0.65766229692E+02 -0.65381195718E+02  0.28743545204E+02  0.97177988826E+02  0.41800000000E+01 0.  1.
</event>
<event>
11    1  0.8479398E-009  0.1292853E+03  0.7561462E-02  0.1120150E+00
         22   -1    0    0    0    0  0.00000000000E+00  0.00000000000E+00  0.21715536940E+03  0.21715536940E+03  0.00000000000E+00 0.  1.
         22   -1    0    0    0    0 -0.00000000000E+00 -0.00000000000E+00 -0.13348259980E+04  0.13348259980E+04  0.00000000000E+00 0.  1.
        -24    2    1    2    0    0  0.33769157406E+00  0.33240734393E+02 -0.12500221391E+04  0.12530307970E+04  0.80160897760E+02 0.  0.
         25    2    1    2    0    0 -0.13197312034E+01 -0.12223752574E+02 -0.18128726945E+02  0.12699087754E+03  0.12508745109E+03 0.  0.
         24    2    1    2    0    0  0.98203962937E+00 -0.21016981819E+02  0.15048023748E+03  0.17195969283E+03  0.80518048666E+02 0.  0.
        -11    1    5    5    0    0  0.13058759235E+02 -0.15969002897E+02  0.15628533687E+03  0.15764087911E+03  0.00000000000E+00 0.  1.
         12    1    5    5    0    0 -0.12076719605E+02 -0.50479789223E+01 -0.58050993872E+01  0.14318813726E+02  0.00000000000E+00 0. -1.
         11    1    3    3    0    0 -0.31358579323E+02  0.35521805596E+02 -0.47501114748E+03  0.47736856768E+03  0.00000000000E+00 0. -1.
        -12    1    3    3    0    0  0.31696270897E+02 -0.22810712026E+01 -0.77501099164E+03  0.77566222935E+03  0.00000000000E+00 0.  1.
          5    1    4    4  501    0 -0.13143086426E+02 -0.27152077333E+02 -0.67422569987E+02  0.73981425831E+02  0.41800000000E+01 0.  1.
         -5    1    4    4    0  501  0.11823355222E+02  0.14928324759E+02  0.49293843042E+02  0.53009451711E+02  0.41800000000E+01 0.  1.
</event>
<event>
11    1  0.8479398E-009  0.1277128E+03  0.7561462E-02  0.1122112E+00
         22   -1    0    0    0    0  0.00000000000E+00  0.00000000000E+00  0.82078280606E+03  0.82078280606E+03  0.00000000000E+00 0. -1.
         22   -1    0    0    0    0 -0.00000000000E+00 -0.00000000000E+00 -0.15715626266E+03  0.15715626266E+03  0.00000000000E+00 0. -1.
        -24    2    1    2    0    0 -0.40299468610E+02 -0.27799750352E+01 -0.12732235811E+03  0.15629005630E+03  0.81140762830E+02 0.  0.
         25    2    1    2    0    0  0.79351118543E+01 -0.20424438131E+02  0.48536930917E+03  0.50170874407E+03  0.12509266134E+03 0.  0.
         24    2    1    2    0    0  0.32364356756E+02  0.23204413166E+02  0.30557959233E+03  0.31994026835E+03  0.86005765424E+02 0.  0.
        -13    1    5    5    0    0  0.90974274626E+01  0.43364209063E+02  0.73460171698E+02  0.85788196391E+02  0.00000000000E+00 0.  1.
         14    1    5    5    0    0  0.23266929293E+02 -0.20159795897E+02  0.23211942063E+03  0.23415207196E+03  0.00000000000E+00 0. -1.
         13    1    3    3    0    0 -0.33381212430E+02 -0.72148916643E+01 -0.13836936337E+03  0.14252172018E+03  0.00000000000E+00 0. -1.
        -14    1    3    3    0    0 -0.69182561807E+01  0.44349166291E+01  0.11047005263E+02  0.13768336115E+02  0.00000000000E+00 0.  1.
          5    1    4    4  501    0 -0.26743968001E+02 -0.11167126619E+02  0.45063743759E+03  0.45158777342E+03  0.41800000000E+01 0. -1.
         -5    1    4    4    0  501  0.34679079856E+02 -0.92573115118E+01  0.34731871583E+02  0.50120970658E+02  0.41800000000E+01 0. -1.
</event>
<event>
11    1  0.8479398E-009  0.1424101E+03  0.7561462E-02  0.1104897E+00
         22   -1    0    0    0    0  0.00000000000E+00  0.00000000000E+00  0.87939508559E+03  0.87939508559E+03  0.00000000000E+00 0.  1.
         22   -1    0    0    0    0 -0.00000000000E+00 -0.00000000000E+00 -0.40870184489E+03  0.40870184489E+03  0.00000000000E+00 0. -1.
         24    2    1    2    0    0 -0.25049045976E+02 -0.15971748387E+01 -0.36296803353E+03  0.37227720649E+03  0.78832223317E+02 0.  0.
         25    2    1    2    0    0  0.90712053162E+02 -0.93862781198E+00  0.12323921938E+03  0.19764850150E+03  0.12508983708E+03 0.  0.
        -24    2    1    2    0    0 -0.65663007186E+02  0.25358026507E+01  0.71042205486E+03  0.71817122249E+03  0.82172671732E+02 0.  0.
        -13    1    3    3    0    0  0.14914351586E+02 -0.12378112647E+02 -0.24270635461E+02  0.31059930805E+02  0.00000000000E+00 0.  1.
         14    1    3    3    0    0 -0.39963397562E+02  0.10780937809E+02 -0.33869739807E+03  0.34121727568E+03  0.00000000000E+00 0. -1.
         11    1    5    5    0    0 -0.39136174144E+02 -0.13194188354E+02  0.11932660858E+03  0.12627179514E+03  0.00000000000E+00 0. -1.
        -12    1    5    5    0    0 -0.26526833042E+02  0.15729991005E+02  0.59109544628E+03  0.59189942735E+03  0.00000000000E+00 0.  1.
          5    1    4    4  501    0  0.95488668861E+02  0.46291080001E+02  0.93358129018E+02  0.14140071648E+03  0.41800000000E+01 0. -1.
         -5    1    4    4    0  501 -0.47766156985E+01 -0.47229707813E+02  0.29881090364E+02  0.56247785014E+02  0.41800000000E+01 0. -1.
</event>
<event>
11    1  0.8479398E-009  0.1328377E+03  0.7561462E-02  0.1115831E+00
         22   -1    0    0    0    0  0.00000000000E+00  0.00000000000E+00  0.80236223479E+03  0.80236223479E+03  0.00000000000E+00 0.  1.
         22   -1    0    0    0    0 -0.00000000000E+00 -0.00000000000E+00 -0.36563102123E+03  0.36563102123E+03  0.00000000000E+00 0.  1.
        -24    2    1    2    0    0  0.26025711171E+02  0.16549313345E+02 -0.28294347446E+03  0.29580600292E+03  0.80578931570E+02 0.  0.
         25    2    1    2    0    0 -0.42146569513E+02 -0.57171686581E+02 -0.27916891826E+01  0.14388745580E+03  0.12510344255E+03 0.  0.
         24    2    1    2    0    0  0.16120858343E+02  0.40622373236E+02  0.72246637720E+03  0.72829979731E+03  0.80949794867E+02 0.  0.
        -13    1    5    5    0    0  0.23482221977E+02  0.17690791999E+02  0.66915602274E+03  0.66980158378E+03  0.00000000000E+00 0.  1.
         14    1    5    5    0    0 -0.73613636344E+01  0.22931581236E+02  0.53310354466E+02  0.58498213527E+02  0.00000000000E+00 0. -1.
         11    1    3    3    0    0  0.34143223608E+02 -0.15842415725E+02 -0.63352349543E+02  0.73690311758E+02  0.00000000000E+00 0. -1.
        -12    1    3    3    0    0 -0.81175124375E+01  0.32391729070E+02 -0.21959112491E+03  0.22211569117E+03  0.00000000000E+00 0.  1.
          5    1    4    4  501    0 -0.79231716605E+02 -0.45274694366E+02 -0.30049809280E+02  0.96166139072E+02  0.41800000000E+01 0. -1.
         -5    1    4    4    0  501  0.37085147092E+02 -0.11896992215E+02  0.27258120098E+02  0.47721316724E+02  0.41800000000E+01 0. -1.
</event>
<event>
11    1  0.8479398E-009  0.2199329E+03  0.7561462E-02  0.1041260E+00
         22   -1    0    0    0    0  0.00000000000E+00  0.00000000000E+00  0.57325708972E+03  0.57325708972E+03  0.00000000000E+00 0. -1.
         22   -1    0    0    0    0 -0.00000000000E+00 -0.00000000000E+00 -0.19870243413E+04  0.19870243413E+04  0.00000000000E+00 0.  1.
        -24    2    1    2    0    0  0.25128848346E+02 -0.12265498461E+03 -0.18991515309E+04  0.19050122589E+04  0.81360095380E+02 0.  0.
         25    2    1    2    0    0  0.16400378277E+03  0.46673774038E+02  0.17049386795E+03  0.27164485561E+03  0.12508831530E+03 0.  0.
         24    2    1    2    0    0 -0.18913263112E+03  0.75981210568E+02  0.31489041137E+03  0.38362431646E+03  0.80419826469E+02 0.  0.
        -11    1    5    5    0    0 -0.77825226402E+02  0.41172058646E+02  0.70352719340E+02  0.11270052971E+03  0.00000000000E+00 0.  1.
         12    1    5    5    0    0 -0.11130740472E+03  0.34809151922E+02  0.24453769204E+03  0.27092378675E+03  0.00000000000E+00 0. -1.
         13    1    3    3    0    0  0.34323776935E+02 -0.14731302135E+02 -0.32515856705E+03  0.32729684791E+03  0.00000000000E+00 0. -1.
        -14    1    3    3    0    0 -0.91949285894E+01 -0.10792368247E+03 -0.15739929638E+04  0.15777154110E+04  0.00000000000E+00 0.  1.
          5    1    4    4  501    0  0.66322149759E+02 -0.32935197288E+02  0.10776216405E+03  0.13081861936E+03  0.41800000000E+01 0. -1.
         -5    1    4    4    0  501  0.97681633014E+02  0.79608971326E+02  0.62731703895E+02  0.14082623625E+03  0.41800000000E+01 0. -1.
</event>
<event>
11    1  0.8479398E-009  0.1259776E+03  0.7561462E-02  0.1124312E+00
         22   -1    0    0    0    0  0.00000000000E+00  0.00000000000E+00  0.94801162217E+03  0.94801162217E+03  0.00000000000E+00 0.  1.
         22   -1    0    0    0    0 -0.00000000000E+00 -0.00000000000E+00 -0.22749465603E+02  0.22749465603E+02  0.00000000000E+00 0. -1.
         24    2    1    2    0    0 -0.17749936360E+02 -0.22303290110E+02  0.18253533583E+03  0.19897154214E+03  0.73878472965E+02 0.  0.
         25    2    1    2    0    0  0.10729145545E+02 -0.18196562015E+01  0.45291104945E+03  0.46999387004E+03  0.12508954171E+03 0.  0.
        -24    2    1    2    0    0  0.70207908147E+01  0.24122946312E+02  0.28981577129E+03  0.30179567559E+03  0.80350734126E+02 0.  0.
        -11    1    3    3    0    0 -0.44139244785E+02 -0.26929624665E+02  0.13216467886E+03  0.14191892035E+03  0.00000000000E+00 0.  1.
         12    1    3    3    0    0  0.26389308425E+02  0.46263345547E+01  0.50370656965E+02  0.57052621794E+02  0.00000000000E+00 0. -1.
         11    1    5    5    0    0 -0.14059796500E+02  0.31047897103E+02  0.47482008357E+02  0.58448189961E+02  0.00000000000E+00 0. -1.
        -12    1    5    5    0    0  0.21080587315E+02 -0.69249507912E+01  0.24233376293E+03  0.24334748563E+03  0.00000000000E+00 0.  1.
          5    1    4    4  501    0 -0.24264927793E+02  0.51168697280E+02  0.14815668978E+03  0.15866599960E+03  0.41800000000E+01 0.  1.
         -5    1    4    4    0  501  0.34994073338E+02 -0.52988353481E+02  0.30475435967E+03  0.31132787044E+03  0.41800000000E+01 0.  1.
</event>
<event>
11    1  0.8479398E-009  0.1462828E+03  0.7561462E-02  0.1100739E+00
         22   -1    0    0    0    0  0.00000000000E+00  0.00000000000E+00  0.19227538264E+03  0.19227538264E+03  0.00000000000E+00 0.  1.
         22   -1    0    0    0    0 -0.00000000000E+00 -0.00000000000E+00 -0.26198432682E+04  0.26198432682E+04  0.00000000000E+00 0.  1.
         24    2    1    2    0    0  0.64612384766E+02 -0.11780531834E+02 -0.23801533659E+04  0.23823027287E+04  0.76959112068E+02 0.  0.
         25    2    1    2    0    0  0.15766205247E+02  0.12554743150E+01 -0.20149544664E+03  0.23769322911E+03  0.12508999442E+03 0.  0.
        -24    2    1    2    0    0 -0.80378590013E+02  0.10525057519E+02  0.15408092695E+03  0.19212269304E+03  0.81232398480E+02 0.  0.
        -13    1    3    3    0    0  0.34524021368E+02 -0.86227855983E+01 -0.21340677593E+04  0.21343644164E+04  0.00000000000E+00 0.  1.
         14    1    3    3    0    0  0.30088363399E+02 -0.31577462358E+01 -0.24608560653E+03  0.24793831231E+03  0.00000000000E+00 0. -1.
         13    1    5    5    0    0 -0.76543789791E+02 -0.21938103113E+02  0.89872020081E+02  0.12007169574E+03  0.00000000000E+00 0. -1.
        -14    1    5    5    0    0 -0.38348002215E+01  0.32463160632E+02  0.64208906866E+02  0.72050997300E+02  0.00000000000E+00 0.  1.
          5    1    4    4  501    0 -0.39168495247E+02 -0.29901579414E+02 -0.37980825901E+02  0.62356162546E+02  0.41800000000E+01 0. -1.
         -5    1    4    4    0  501  0.54934700493E+02  0.31157053729E+02 -0.16351462074E+03  0.17533706656E+03  0.41800000000E+01 0. -1.
</event>
<event>
11    1  0.8479398E-009  0.1722835E+03  0.7561462E-02  0.1076061E+00
         22   -1    0    0    0    0  0.00000000000E+00  0.00000000000E+00  0.27597146118E+03  0.27597146118E+03  0.00000000000E+00 0. -1.
         22   -1    0    0    0    0 -0.00000000000E+00 -0.00000000000E+00 -0.10259341897E+04  0.10259341897E+04  0.00000000000E+00 0.  1.
         24    2    1    2    0    0  0.12125212225E+03 -0.53938933128E+01 -0.80719314933E+03  0.82019859624E+03  0.80210882766E+02 0.  0.
         25    2    1    2    0    0 -0.10150398169E+03  0.35205026198E+02 -0.17081657453E+03  0.23741715475E+03  0.12508457565E+03 0.  0.
        -24    2    1    2    0    0 -0.19748140560E+02 -0.29811132885E+02  0.22804699530E+03  0.24428989993E+03  0.79958929744E+02 0.  0.
        -11    1    3    3    0    0  0.57049834764E+02  0.12527307919E+02 -0.59309254965E+03  0.59596173497E+03  0.00000000000E+00 0.  1.
         12    1    3    3    0    0  0.64202287484E+02 -0.17921201232E+02 -0.21410059967E+03  0.22423686127E+03  0.00000000000E+00 0. -1.
         13    1    5    5    0    0 -0.44181427530E+02 -0.36402482648E+02  0.19122545525E+03  0.19961040559E+03  0.00000000000E+00 0. -1.
        -14    1    5    5    0    0  0.24433286970E+02  0.65913497627E+01  0.36821540044E+02  0.44679494347E+02  0.00000000000E+00 0.  1.
          5    1    4    4  501    0 -0.12960165287E+02 -0.18538047194E+02 -0.11960219179E+03  0.12179401364E+03  0.41800000000E+01 0. -1.
         -5    1    4    4    0  501 -0.88543816401E+02  0.53743073392E+02 -0.51214382748E+02  0.11562314111E+03  0.41800000000E+01 0. -1.
</event>
<event>
11    1  0.8811097E-009  0.1528432E+03  0.7561462E-02  0.1094008E+00
         22   -1    0    0    0    0  0.00000000000E+00  0.00000000000E+00  0.85116054923E+03  0.85116054923E+03  0.00000000000E+00 0. -1.
         22   -1    0    0    0    0 -0.00000000000E+00 -0.00000000000E+00 -0.13653039275E+04  0.13653039275E+04  0.00000000000E+00 0.  1.
         24    2    1    2    0    0  0.50166820058E+02 -0.47115194577E+02 -0.52384125161E+03  0.53469456002E+03  0.82170945177E+02 0.  0.
         25    2    1    2    0    0 -0.80601855849E+02  0.12916719210E+03 -0.82011030442E+03  0.84345061723E+03  0.12508880688E+03 0.  0.
        -24    2    1    2    0    0  0.30435035791E+02 -0.82051997526E+02  0.82980817778E+03  0.83831929946E+03  0.80862934872E+02 0.  0.
        -11    1    3    3    0    0  0.55246806143E+02 -0.65577948974E+02 -0.46424317824E+03  0.47209575885E+03  0.00000000000E+00 0.  1.
         12    1    3    3    0    0 -0.50799860849E+01  0.18462754397E+02 -0.59598073364E+02  0.62598801165E+02  0.00000000000E+00 0. -1.
         11    1    5    5    0    0  0.50433679409E+01 -0.35631852837E+02  0.64720922744E+03  0.64820895441E+03  0.00000000000E+00 0. -1.
        -12    1    5    5    0    0  0.25391667850E+02 -0.46420144690E+02  0.18259895034E+03  0.19011034505E+03  0.00000000000E+00 0.  1.
          5    1    4    4  501    0  0.53507818140E+01  0.22716470278E+02 -0.41816364058E+03  0.41883525591E+03  0.41800000000E+01 0. -1.
         -5    1    4    4    0  501 -0.85952637663E+02  0.10645072183E+03 -0.40194666384E+03  0.42461536132E+03  0.41800000000E+01 0. -1.
</event>
<event>
11    1  0.8479398E-009  0.1322816E+03  0.7561462E-02  0.1116497E+00
         22   -1    0    0    0    0  0.00000000000E+00  0.00000000000E+00  0.66676631526E+03  0.66676631526E+03  0.00000000000E+00 0.  1.
         22   -1    0    0    0    0 -0.00000000000E+00 -0.00000000000E+00 -0.13777333912E+04  0.13777333912E+04  0.00000000000E+00 0.  1.
         24    2    1    2    0    0 -0.50763779681E+01  0.49692794670E+02 -0.86263694346E+03  0.86781017146E+03  0.80354551911E+02 0.  0.
         25    2    1    2    0    0 -0.26308636506E+02 -0.21477878463E+02 -0.50110156765E+03  0.51759405922E+03  0.12508950962E+03 0.  0.
        -24    2    1    2    0    0  0.31385014474E+02 -0.28214916206E+02  0.65277143514E+03  0.65909547582E+03  0.80716783182E+02 0.  0.
        -11    1    3    3    0    0  0.21030601678E+02  0.43125944182E+02 -0.76578240963E+03  0.76728406224E+03  0.00000000000E+00 0.  1.
         12    1    3    3    0    0 -0.26106979646E+02  0.65668504881E+01 -0.96854533825E+02  0.10052610922E+03  0.00000000000E+00 0. -1.
         13    1    5    5    0    0 -0.11880066027E+02  0.96808550940E+01  0.30131300406E+02  0.33804588273E+02  0.00000000000E+00 0. -1.
        -14    1    5    5    0    0  0.43265080501E+02 -0.37895771300E+02  0.62264013473E+03  0.62529088755E+03  0.00000000000E+00 0.  1.
          5    1    4    4  501    0 -0.37372925713E+02 -0.69853298290E+02 -0.28564689373E+03  0.29645883214E+03  0.41800000000E+01 0.  1.
         -5    1    4    4    0  501  0.11064289207E+02  0.48375419826E+02 -0.21545467392E+03  0.22113522708E+03  0.41800000000E+01 0.  1.
</event>
<event>
11    1  0.8479398E-009  0.1350310E+03  0.7561462E-02  0.1113238E+00
         22   -1    0    0    0    0  0.00000000000E+00  0.00000000000E+00  0.56158926736E+03  0.56158926736E+03  0.00000000000E+00 0.  1.
         22   -1    0    0    0    0 -0.00000000000E+00 -0.00000000000E+00 -0.27563445828E+04  0.27563445828E+04  0.00000000000E+00 0.  1.
        -24    2    1    2    0    0  0.11277492494E+02 -0.17339950049E+02 -0.27222761085E+04  0.27235478085E+04  0.80607681683E+02 0.  0.
         25    2    1    2    0    0 -0.79650681607E+01 -0.36296943841E+02  0.12385595531E+03  0.17991190097E+03  0.12508830481E+03 0.  0.
         24    2    1    2    0    0 -0.33124243332E+01  0.53636893890E+02  0.40366483779E+03  0.41447414070E+03  0.77172686227E+02 0.  0.
        -11    1    5    5    0    0 -0.88299984592E+01  0.70433640983E+02  0.36659281111E+03  0.37340213686E+03  0.00000000000E+00 0.  1.
         12    1    5    5    0    0  0.55175741260E+01 -0.16796747092E+02  0.37072026674E+02  0.41072003833E+02  0.00000000000E+00 0. -1.
         11    1    3    3    0    0 -0.13770102943E+02 -0.15780831744E+02 -0.19058989905E+03  0.19173721601E+03  0.00000000000E+00 0. -1.
        -12    1    3    3    0    0  0.25047595437E+02 -0.15591183052E+01 -0.25316862095E+04  0.25318105925E+04  0.00000000000E+00 0.  1.
          5    1    4    4  501    0  0.35577236257E+02 -0.47942491791E+02  0.14530804669E+02  0.61586028798E+02  0.41800000000E+01 0.  1.
         -5    1    4    4    0  501 -0.43542304418E+02  0.11645547950E+02  0.10932515065E+03  0.11832587217E+03  0.41800000000E+01 0.  1.
</event>
<event>
11    1  0.8479398E-009  0.1975513E+03  0.7561462E-02  0.1056269E+00
         22   -1    0    0    0    0  0.00000000000E+00  0.00000000000E+00  0.12713177215E+04  0.12713177215E+04  0.00000000000E+00 0. -1.
         22   -1    0    0    0    0 -0.00000000000E+00 -0.00000000000E+00 -0.30968156492E+03  0.30968156492E+03  0.00000000000E+00 0.  1.
         24    2    1    2    0    0 -0.46041063707E+02 -0.28559238911E+02 -0.23402574764E+03  0.25319895041E+03  0.80039042082E+02 0.  0.
         25    2    1    2    0    0 -0.22628858070E+02 -0.11329000854E+03  0.63096156751E+02  0.18159192559E+03  0.12509121148E+03 0.  0.
        -24    2    1    2    0    0  0.68669921777E+02  0.14184924745E+03  0.11325657475E+04  0.11462084104E+04  0.79068202354E+02 0.  0.
        -13    1    3    3    0    0  0.12847105655E+02  0.11551364866E+02 -0.99308354731E+02  0.10079995770E+03  0.00000000000E+00 0.  1.
         14    1    3    3    0    0 -0.58888169362E+02 -0.40110603777E+02 -0.13471739291E+03  0.15239899271E+03  0.00000000000E+00 0. -1.
         13    1    5    5    0    0  0.58288166326E+02  0.13562072566E+03  0.80522642472E+03  0.81864527521E+03  0.00000000000E+00 0. -1.
        -14    1    5    5    0    0  0.10381755451E+02  0.62285217912E+01  0.32733932275E+03  0.32756313521E+03  0.00000000000E+00 0.  1.
          5    1    4    4  501    0  0.19065477617E+02 -0.12268448423E+03  0.61504081176E+02  0.13861890026E+03  0.41800000000E+01 0. -1.
         -5    1    4    4    0  501 -0.41694335687E+02  0.93944756865E+01  0.15920755751E+01  0.42973025335E+02  0.41800000000E+01 0. -1.
</event>
<event>
11    1  0.8479398E-009  0.2174174E+03  0.7561462E-02  0.1042847E+00
         22   -1    0    0    0    0  0.00000000000E+00  0.00000000000E+00  0.38808971312E+03  0.38808971312E+03  0.00000000000E+00 0. -1.
         22   -1    0    0    0    0 -0.00000000000E+00 -0.00000000000E+00 -0.28481294366E+03  0.28481294366E+03  0.00000000000E+00 0.  1.
        -24    2    1    2    0    0  0.29002561613E+02  0.11215355351E+02 -0.14929629067E+03  0.17231575748E+03  0.80227209161E+02 0.  0.
         25    2    1    2    0    0  0.19518264880E+01 -0.18403191188E+03  0.66538654321E+02  0.23226861582E+03  0.12509901341E+03 0.  0.
         24    2    1    2    0    0 -0.30954388101E+02  0.17281655653E+03  0.18603440581E+03  0.26831828348E+03  0.81007189496E+02 0.  0.
        -11    1    5    5    0    0 -0.66260991105E+01  0.55772428111E+01 -0.74465082864E+01  0.11421966225E+02  0.00000000000E+00 0.  1.
         12    1    5    5    0    0 -0.24328288990E+02  0.16723931372E+03  0.19348091410E+03  0.25689631726E+03  0.00000000000E+00 0. -1.
         11    1    3    3    0    0  0.10236027021E+02 -0.96048726250E+01  0.54453656532E+01  0.15055956775E+02  0.00000000000E+00 0. -1.
        -12    1    3    3    0    0  0.18766534592E+02  0.20820227976E+02 -0.15474165633E+03  0.15725980070E+03  0.00000000000E+00 0.  1.
          5    1    4    4  501    0  0.18437508131E+02 -0.19504721967E+03  0.41940398152E+02  0.20039917416E+03  0.41800000000E+01 0. -1.
         -5    1    4    4    0  501 -0.16485681644E+02  0.11015307786E+02  0.24598256170E+02  0.31869441656E+02  0.41800000000E+01 0. -1.
</event>
<event>
11    1  0.8479398E-009  0.2232368E+03  0.7561462E-02  0.1039209E+00
         22   -1    0    0    0    0  0.00000000000E+00  0.00000000000E+00  0.95228957643E+02  0.95228957643E+02  0.00000000000E+00 0. -1.
         22   -1    0    0    0    0 -0.00000000000E+00 -0.00000000000E+00 -0.93712301945E+03  0.93712301945E+03  0.00000000000E+00 0.  1.
        -24    2    1    2    0    0 -0.18191320029E+02  0.19185691179E+02 -0.43483908987E+03  0.44302196222E+03  0.80525834738E+02 0.  0.
         25    2    1    2    0    0 -0.17191755516E+03 -0.45206799547E+02 -0.21846456286E+03  0.30818336514E+03  0.12510364033E+03 0.  0.
         24    2    1    2    0    0  0.19010887519E+03  0.26021108368E+02 -0.18859040908E+03  0.28114664974E+03  0.81600329374E+02 0.  0.
        -11    1    5    5    0    0  0.49457591769E+02 -0.25711709746E+02 -0.31453467721E+02  0.64003640782E+02  0.00000000000E+00 0.  1.
         12    1    5    5    0    0  0.14065128342E+03  0.51732818114E+02 -0.15713694135E+03  0.21714300895E+03  0.00000000000E+00 0. -1.
         13    1    3    3    0    0  0.90361460490E+01 -0.11803367952E+01 -0.26402056314E+01  0.94876665279E+01  0.00000000000E+00 0. -1.
        -14    1    3    3    0    0 -0.27227466078E+02  0.20366027974E+02 -0.43219888424E+03  0.43353429569E+03  0.00000000000E+00 0.  1.
          5    1    4    4  501    0 -0.12678450220E+03 -0.23321851488E+02 -0.60632916574E+02  0.14252032040E+03  0.41800000000E+01 0. -1.
         -5    1    4    4    0  501 -0.45133052963E+02 -0.21884948060E+02 -0.15783164629E+03  0.16566304474E+03  0.41800000000E+01 0. -1.
</event>
<event>
11    1  0.8479398E-009  0.1448106E+03  0.7561462E-02  0.1102302E+00
         22   -1    0    0    0    0  0.00000000000E+00  0.00000000000E+00  0.15523962189E+04  0.15523962189E+04  0.00000000000E+00 0.  1.
         22   -1    0    0    0    0 -0.00000000000E+00 -0.00000000000E+00 -0.23551420878E+03  0.23551420878E+03  0.00000000000E+00 0. -1.
        -24    2    1    2    0    0  0.31329105894E+01 -0.27462267309E+02 -0.15199970486E+03  0.17447170494E+03  0.81070798022E+02 0.  0.
         25    2    1    2    0    0  0.51114660392E+02  0.75580623135E+02  0.15026961159E+02  0.15555749638E+03  0.12508871259E+03 0.  0.
         24    2    1    2    0    0 -0.54247570981E+02 -0.48118355826E+02  0.14538547538E+04  0.14578812264E+04  0.80410508275E+02 0.  0.
        -13    1    5    5    0    0 -0.22642244275E+02 -0.62650732273E+02  0.11713576706E+04  0.11732504328E+04  0.00000000000E+00 0.  1.
         14    1    5    5    0    0 -0.31605326707E+02  0.14532376447E+02  0.28249708320E+03  0.28463079359E+03  0.00000000000E+00 0. -1.
         13    1    3    3    0    0 -0.30809156323E+02  0.57619512441E+01 -0.96291801154E+02  0.10126458001E+03  0.00000000000E+00 0. -1.
        -14    1    3    3    0    0  0.33942066912E+02 -0.33224218553E+02 -0.55707903709E+02  0.73207124929E+02  0.00000000000E+00 0.  1.
          5    1    4    4  501    0  0.49297771365E+01  0.30221111677E+01  0.58611331694E+02  0.59044021386E+02  0.41800000000E+01 0. -1.
         -5    1    4    4    0  501  0.46184883256E+02  0.72558511967E+02 -0.43584370535E+02  0.96513474992E+02  0.41800000000E+01 0. -1.
</event>
<event>
11    1  0.8479398E-009  0.1694360E+03  0.7561462E-02  0.1078524E+00
         22   -1    0    0    0    0  0.00000000000E+00  0.00000000000E+00  0.16123565417E+04  0.16123565417E+04  0.00000000000E+00 0.  1.
         22   -1    0    0    0    0 -0.00000000000E+00 -0.00000000000E+00 -0.16410839764E+03  0.16410839764E+03  0.00000000000E+00 0. -1.
         24    2    1    2    0    0  0.89824409473E+02 -0.66662543455E+02 -0.71374693334E+02  0.15383552003E+03  0.77837658868E+02 0.  0.
         25    2    1    2    0    0 -0.11869952662E+03  0.45729342769E+02  0.10849102876E+03  0.20880331663E+03  0.12509105205E+03 0.  0.
        -24    2    1    2    0    0  0.28875117151E+02  0.20933200686E+02  0.14111318087E+04  0.14138261027E+04  0.79619695956E+02 0.  0.
        -11    1    3    3    0    0  0.12364475562E+02 -0.68012317134E+01 -0.52208503541E+02  0.54082019662E+02  0.00000000000E+00 0.  1.
         12    1    3    3    0    0  0.77459933911E+02 -0.59861311742E+02 -0.19166189793E+02  0.99753500370E+02  0.00000000000E+00 0. -1.
         11    1    5    5    0    0 -0.25546324836E+02 -0.39309139153E+01  0.55833229104E+03  0.55893024075E+03  0.00000000000E+00 0. -1.
        -12    1    5    5    0    0  0.54421441986E+02  0.24864114601E+02  0.85279951761E+03  0.85489586195E+03  0.00000000000E+00 0.  1.
          5    1    4    4  501    0 -0.27848397653E+02 -0.28939550332E+02 -0.10220500146E+02  0.41652873232E+02  0.41800000000E+01 0. -1.
         -5    1    4    4    0  501 -0.90851128970E+02  0.74668893101E+02  0.11871152891E+03  0.16715044340E+03  0.41800000000E+01 0. -1.
</event>
<event>
11    1  0.8479398E-009  0.1348965E+03  0.7561462E-02  0.1113395E+00
         22   -1    0    0    0    0  0.00000000000E+00  0.00000000000E+00  0.10735682810E+03  0.10735682810E+03  0.00000000000E+00 0. -1.
         22   -1    0    0    0    0 -0.00000000000E+00 -0.00000000000E+00 -0.96638684615E+03  0.96638684615E+03  0.00000000000E+00 0. -1.
        -24    2    1    2    0    0  0.28519473736E+02  0.23975301478E+02 -0.64287244272E+03  0.64912640050E+03  0.81804222078E+02 0.  0.
         25    2    1    2    0    0  0.22645639185E+02 -0.96402145642E+01 -0.28155863371E+03  0.30907664827E+03  0.12508937434E+03 0.  0.
         24    2    1    2    0    0 -0.51165112920E+02 -0.14335086914E+02  0.65401058394E+02  0.11554062549E+03  0.79050453521E+02 0.  0.
        -13    1    5    5    0    0 -0.27871399635E+02  0.18173436519E+02 -0.58976452140E+01  0.33791580780E+02  0.00000000000E+00 0.  1.
         14    1    5    5    0    0 -0.23293713285E+02 -0.32508523433E+02  0.71298703608E+02  0.81749044707E+02  0.00000000000E+00 0. -1.
         11    1    3    3    0    0  0.13910539409E+02  0.21527176516E+02 -0.62659124350E+03  0.62711522774E+03  0.00000000000E+00 0. -1.
        -12    1    3    3    0    0  0.14608934326E+02  0.24481249624E+01 -0.16281199221E+02  0.22011172755E+02  0.00000000000E+00 0.  1.
          5    1    4    4  501    0  0.42064675710E+02 -0.55972828683E+02 -0.11171331208E+03  0.13190803989E+03  0.41800000000E+01 0.  1.
         -5    1    4    4    0  501 -0.19419036525E+02  0.46332614119E+02 -0.16984532164E+03  0.17716860837E+03  0.41800000000E+01 0.  1.
</event>
<event>
11    1  0.8479398E-009  0.1338047E+03  0.7561462E-02  0.1114681E+00
         22   -1    0    0    0    0  0.00000000000E+00  0.00000000000E+00  0.45587979278E+03  0.45587979278E+03  0.00000000000E+00 0. -1.
         22   -1    0    0    0    0 -0.00000000000E+00 -0.00000000000E+00 -0.42274779758E+03  0.42274779758E+03  0.00000000000E+00 0.  1.
        -24    2    1    2    0    0 -0.45703672124E+02 -0.11054481667E+02 -0.37363337351E+03  0.38517599867E+03  0.80917395781E+02 0.  0.
         25    2    1    2    0    0  0.56607220571E+02  0.10612045325E+02  0.85336465092E+02  0.16201149887E+03  0.12509364718E+03 0.  0.
         24    2    1    2    0    0 -0.10903548446E+02  0.44243634176E+00  0.32142890362E+03  0.33144009282E+03  0.80105629828E+02 0.  0.
        -11    1    5    5    0    0 -0.28834823533E+02 -0.28046076819E+02  0.10559659692E+03  0.11299854315E+03  0.00000000000E+00 0.  1.
         12    1    5    5    0    0  0.17931275086E+02  0.28488513161E+02  0.21583230670E+03  0.21844154967E+03  0.00000000000E+00 0. -1.
         13    1    3    3    0    0 -0.15726715703E+02  0.24797209927E+02 -0.48464031245E+02  0.56665629190E+02  0.00000000000E+00 0. -1.
        -14    1    3    3    0    0 -0.29976956421E+02 -0.35851691595E+02 -0.32516934226E+03  0.32851036948E+03  0.00000000000E+00 0.  1.
          5    1    4    4  501    0  0.50577494908E+02  0.51521955059E+02  0.94946815840E+02  0.11935227305E+03  0.41800000000E+01 0.  1.
         -5    1    4    4    0  501  0.60297256631E+01 -0.40909909733E+02 -0.96103507479E+01  0.42659225819E+02  0.41800000000E+01 0.  1.
</event>
<event>
11    1  0.8479398E-009  0.1479441E+03  0.7561462E-02  0.1098998E+00
         22   -1    0    0    0    0  0.00000000000E+00  0.00000000000E+00  0.11120908549E+03  0.11120908549E+03  0.00000000000E+00 0. -1.
         22   -1    0    0    0    0 -0.00000000000E+00 -0.00000000000E+00 -0.83000791674E+03  0.83000791674E+03  0.00000000000E+00 0. -1.
        -24    2    1    2    0    0 -0.61948928479E+02 -0.45870764210E+02 -0.61680853956E+03  0.62674478850E+03  0.80090315810E+02 0.  0.
         25    2    1    2    0    0 -0.11989796861E+02 -0.17919423042E+02 -0.13210600567E+03  0.18320501654E+03  0.12508885001E+03 0.  0.
         24    2    1    2    0    0  0.73938725339E+02  0.63790187252E+02  0.30115713975E+02  0.13126719719E+03  0.82389305960E+02 0.  0.
        -11    1    5    5    0    0  0.45564840584E+02 -0.84885077280E+01  0.26819031079E+02  0.53548761787E+02  0.00000000000E+00 0.  1.
         12    1    5    5    0    0  0.28373884756E+02  0.72278694980E+02  0.32966828964E+01  0.77718435408E+02  0.00000000000E+00 0. -1.
         13    1    3    3    0    0 -0.45640213347E+02 -0.62077808526E+02 -0.56274475875E+03  0.56799502365E+03  0.00000000000E+00 0. -1.
        -14    1    3    3    0    0 -0.16308715132E+02  0.16207044316E+02 -0.54063780809E+02  0.58749764851E+02  0.00000000000E+00 0.  1.
          5    1    4    4  501    0  0.21777385495E+02 -0.35237010730E+02 -0.13838630155E+03  0.14451346754E+03  0.41800000000E+01 0. -1.
         -5    1    4    4    0  501 -0.33767182355E+02  0.17317587688E+02  0.62802958736E+01  0.38691548997E+02  0.41800000000E+01 0. -1.
</event>
<event>
11    1  0.8479398E-009  0.1447665E+03  0.7561462E-02  0.1102350E+00
         22   -1    0    0    0    0  0.00000000000E+00  0.00000000000E+00  0.69257314536E+03  0.69257314536E+03  0.00000000000E+00 0. -1.
         22   -1    0    0    0    0 -0.00000000000E+00 -0.00000000000E+00 -0.17869446716E+03  0.17869446716E+03  0.00000000000E+00 0. -1.
        -24    2    1    2    0    0  0.16965072537E+02 -0.63286487088E-01 -0.11037687214E+03  0.14080461313E+03  0.85761690073E+02 0.  0.
         25    2    1    2    0    0 -0.83772584503E+02  0.24374519846E+02  0.76021613339E+02  0.17040554326E+03  0.12508717099E+03 0.  0.
         24    2    1    2    0    0  0.66807511966E+02 -0.24311233359E+02  0.54823393699E+03  0.56005745613E+03  0.89719701170E+02 0.  0.
        -13    1    5    5    0    0  0.16931442228E+02 -0.53855004632E+02  0.27868165321E+03  0.28434222180E+03  0.00000000000E+00 0.  1.
         14    1    5    5    0    0  0.49876069738E+02  0.29543771274E+02  0.26955228378E+03  0.27571523433E+03  0.00000000000E+00 0. -1.
         13    1    3    3    0    0  0.38879959313E+02  0.30291653724E+02 -0.71400234197E+02  0.86759604453E+02  0.00000000000E+00 0. -1.
        -14    1    3    3    0    0 -0.21914886776E+02 -0.30354940211E+02 -0.38976637942E+02  0.54045008677E+02  0.00000000000E+00 0.  1.
          5    1    4    4  501    0 -0.10898764978E+03  0.92150290691E+01  0.85847994302E+02  0.13910634454E+03  0.41800000000E+01 0. -1.
         -5    1    4    4    0  501  0.25215065278E+02  0.15159490777E+02 -0.98263809630E+01  0.31299198718E+02  0.41800000000E+01 0. -1.
</event>
<event>
11    1  0.8479398E-009  0.1406752E+03  0.7561462E-02  0.1106807E+00
         22   -1    0    0    0    0  0.00000000000E+00  0.00000000000E+00  0.11498610523E+04  0.11498610523E+04  0.00000000000E+00 0.  1.
         22   -1    0    0    0    0 -0.00000000000E+00 -0.00000000000E+00 -0.22035857468E+03  0.22035857468E+03  0.00000000000E+00 0.  1.
        -24    2    1    2    0    0  0.52187583525E+02 -0.37828511848E+02 -0.18873662311E+03  0.21627221743E+03  0.83651771914E+02 0.  0.
         25    2    1    2    0    0 -0.34970373901E+02  0.57085843633E+02  0.30629606100E+03  0.33756005863E+03  0.12509114918E+03 0.  0.
         24    2    1    2    0    0 -0.17217209624E+02 -0.19257331785E+02  0.81194303968E+03  0.81638735089E+03  0.81052636383E+02 0.  0.
        -11    1    5    5    0    0 -0.37930811188E+02  0.15102123206E+02  0.53470710920E+03  0.53626347367E+03  0.00000000000E+00 0.  1.
         12    1    5    5    0    0  0.20713601564E+02 -0.34359454991E+02  0.27723593048E+03  0.28012387722E+03  0.00000000000E+00 0. -1.
         13    1    3    3    0    0 -0.15217891851E+02 -0.29203623314E+02 -0.34316795687E+02  0.47561311097E+02  0.00000000000E+00 0. -1.
        -14    1    3    3    0    0  0.67405475376E+02 -0.86248885344E+01 -0.15441982742E+03  0.16871090633E+03  0.00000000000E+00 0.  1.
          5    1    4    4  501    0 -0.24011826558E+02  0.96202260384E+02  0.19096917301E+03  0.21521649602E+03  0.41800000000E+01 0.  1.
         -5    1    4    4    0  501 -0.10958547343E+02 -0.39116416751E+02  0.11532688798E+03  0.12234356261E+03  0.41800000000E+01 0.  1.
</event>
<event>
11    1  0.8479398E-009  0.3530675E+03  0.7561462E-02  0.9799382E-01
         22   -1    0    0    0    0  0.00000000000E+00  0.00000000000E+00  0.14265938991E+04  0.14265938991E+04  0.00000000000E+00 0. -1.
         22   -1    0    0    0    0 -0.00000000000E+00 -0.00000000000E+00 -0.74177764618E+03  0.74177764618E+03  0.00000000000E+00 0.  1.
         24    2    1    2    0    0 -0.12841245566E+03 -0.37392554138E+02 -0.71146610485E+03  0.72814201623E+03  0.78222858456E+02 0.  0.
         25    2    1    2    0    0  0.11338416885E+02  0.24463184346E+02  0.21314132313E+03  0.24860091425E+03  0.12508470672E+03 0.  0.
        -24    2    1    2    0    0  0.11707403878E+03  0.12929369792E+02  0.11831410347E+04  0.11916286148E+04  0.79262529799E+02 0.  0.
        -13    1    3    3    0    0 -0.97613056631E+02  0.87465286453E+01 -0.50044513423E+03  0.50995111821E+03  0.00000000000E+00 0.  1.
         14    1    3    3    0    0 -0.30799399029E+02 -0.46139082783E+02 -0.21102097061E+03  0.21819089802E+03  0.00000000000E+00 0. -1.
         13    1    5    5    0    0  0.12347814900E+03  0.58883761083E+01  0.91429440286E+03  0.92261356014E+03  0.00000000000E+00 0. -1.
        -14    1    5    5    0    0 -0.64041102292E+01  0.70409936840E+01  0.26884663180E+03  0.26901505469E+03  0.00000000000E+00 0.  1.
          5    1    4    4  501    0  0.22421534220E+02 -0.42092926778E+02  0.38838504154E+02  0.61647720854E+02  0.41800000000E+01 0. -1.
         -5    1    4    4    0  501 -0.11083117335E+02  0.66556111124E+02  0.17430281898E+03  0.18695319340E+03  0.41800000000E+01 0. -1.
</event>
<event>
11    1  0.8479398E-009  0.1376011E+03  0.7561462E-02  0.1110267E+00
         22   -1    0    0    0    0  0.00000000000E+00  0.00000000000E+00  0.23817976789E+03  0.23817976789E+03  0.00000000000E+00 0. -1.
         22   -1    0    0    0    0 -0.00000000000E+00 -0.00000000000E+00 -0.45698352250E+03  0.45698352250E+03  0.00000000000E+00 0. -1.
         24    2    1    2    0    0  0.43075484580E+02  0.30799814660E+02 -0.32136357583E+03  0.33433793254E+03  0.75519396885E+02 0.  0.
         25    2    1    2    0    0 -0.83554713605E+02 -0.40865448892E+02 -0.66392473473E+02  0.16943485659E+03  0.12509530373E+03 0.  0.
        -24    2    1    2    0    0  0.40479229025E+02  0.10065634232E+02  0.16895229470E+03  0.19139050126E+03  0.79659030336E+02 0.  0.
        -13    1    3    3    0    0  0.45319109025E+02  0.15418286565E+02 -0.85708370053E+02  0.98170616279E+02  0.00000000000E+00 0.  1.
         14    1    3    3    0    0 -0.22436244453E+01  0.15381528095E+02 -0.23565520578E+03  0.23616731626E+03  0.00000000000E+00 0. -1.
         13    1    5    5    0    0  0.22829521855E+02  0.35872711549E+02  0.14741531020E+03  0.15342526580E+03  0.00000000000E+00 0. -1.
        -14    1    5    5    0    0  0.17649707170E+02 -0.25807077317E+02  0.21536984496E+02  0.37965235466E+02  0.00000000000E+00 0.  1.
          5    1    4    4  501    0  0.30289018655E+02  0.39895085623E+01 -0.15096835456E+01  0.30872194189E+02  0.41800000000E+01 0. -1.
         -5    1    4    4    0  501 -0.11384373226E+03 -0.44854957454E+02 -0.64882789927E+02  0.13856266240E+03  0.41800000000E+01 0. -1.
</event>
<event>
11    1  0.8479398E-009  0.1367802E+03  0.7561462E-02  0.1111208E+00
         22   -1    0    0    0    0  0.00000000000E+00  0.00000000000E+00  0.19982963650E+03  0.19982963650E+03  0.00000000000E+00 0. -1.
         22   -1    0    0    0    0 -0.00000000000E+00 -0.00000000000E+00 -0.61587113926E+03  0.61587113926E+03  0.00000000000E+00 0.  1.
         24    2    1    2    0    0  0.16771991669E+02  0.49875536821E+02 -0.36873860211E+03  0.38099619883E+03  0.80131628950E+02 0.  0.
         25    2    1    2    0    0 -0.98420000492E+00  0.63377164512E+01 -0.20969937223E+03  0.24425877496E+03  0.12508951648E+03 0.  0.
        -24    2    1    2    0    0 -0.15787791664E+02 -0.56213253272E+02  0.16239647157E+03  0.19044580197E+03  0.80546913657E+02 0.  0.
        -11    1    3    3    0    0  0.41433204858E+02  0.32133879888E+02 -0.31439447075E+03  0.31873685062E+03  0.00000000000E+00 0.  1.
         12    1    3    3    0    0 -0.24661213190E+02  0.17741656932E+02 -0.54344131355E+02  0.62259348209E+02  0.00000000000E+00 0. -1.
         11    1    5    5    0    0  0.10902417076E+02 -0.47687237410E+02  0.15341101012E+03  0.16102134434E+03  0.00000000000E+00 0. -1.
        -12    1    5    5    0    0 -0.26690208739E+02 -0.85260158621E+01  0.89854614593E+01  0.29424457627E+02  0.00000000000E+00 0.  1.
          5    1    4    4  501    0 -0.16850232706E+02 -0.72897515576E+01  0.11480285628E+02  0.22053121732E+02  0.41800000000E+01 0.  1.
         -5    1    4    4    0  501  0.15866032701E+02  0.13627468009E+02 -0.22117965785E+03  0.22220565323E+03  0.41800000000E+01 0.  1.
</event>
<event>
11    1  0.8479398E-009  0.1565047E+03  0.7561462E-02  0.1090412E+00
         22   -1    0    0    0    0  0.00000000000E+00  0.00000000000E+00  0.27999942290E+03  0.27999942290E+03  0.00000000000E+00 0. -1.
         22   -1    0    0    0    0 -0.00000000000E+00 -0.00000000000E+00 -0.31497139751E+03  0.31497139751E+03  0.00000000000E+00 0.  1.
        -24    2    1    2    0    0 -0.85976457825E+01  0.59938508836E+01 -0.23487994836E+03  0.24564901091E+03  0.71168817986E+02 0.  0.
         25    2    1    2    0    0  0.38114978934E+02  0.84364922474E+02  0.76738418222E+02  0.17351050573E+03  0.12508764529E+03 0.  0.
         24    2    1    2    0    0 -0.29517333152E+02 -0.90358773358E+02  0.12316955554E+03  0.17581130377E+03  0.81871205219E+02 0.  0.
        -13    1    5    5    0    0  0.61865875412E+01  0.13833134050E+02  0.12103299601E+02  0.19393796026E+02  0.00000000000E+00 0.  1.
         14    1    5    5    0    0 -0.35703920693E+02 -0.10419190741E+03  0.11106625594E+03  0.15641750775E+03  0.00000000000E+00 0. -1.
         11    1    3    3    0    0 -0.25621647463E+02  0.16506718216E+02 -0.42874337805E+02  0.52603701459E+02  0.00000000000E+00 0. -1.
        -12    1    3    3    0    0  0.17024001680E+02 -0.10512867332E+02 -0.19200561056E+03  0.19304530945E+03  0.00000000000E+00 0.  1.
          5    1    4    4  501    0  0.71961582835E+01  0.38502149450E+01 -0.32784373330E+02  0.34042567232E+02  0.41800000000E+01 0.  1.
         -5    1    4    4    0  501  0.30918820651E+02  0.80514707529E+02  0.10952279155E+03  0.13946793850E+03  0.41800000000E+01 0.  1.
</event>
<event>
11    1  0.8479398E-009  0.2227806E+03  0.7561462E-02  0.1039489E+00
         22   -1    0    0    0    0  0.00000000000E+00  0.00000000000E+00  0.89483602826E+03  0.89483602826E+03  0.00000000000E+00 0. -1.
         22   -1    0    0    0    0 -0.00000000000E+00 -0.00000000000E+00 -0.14404519075E+04  0.14404519075E+04  0.00000000000E+00 0.  1.
        -24    2    1    2    0    0 -0.59185504280E+01 -0.57138041378E+02 -0.10523546750E+04  0.10572263132E+04  0.83530415193E+02 0.  0.
         25    2    1    2    0    0 -0.14802902468E+03  0.15707554125E+03 -0.33227376582E+03  0.41549835255E+03  0.12509079785E+03 0.  0.
         24    2    1    2    0    0  0.15394757511E+03 -0.99937499870E+02  0.83901256163E+03  0.86256326999E+03  0.79912179358E+02 0.  0.
        -11    1    5    5    0    0  0.38506466057E+02  0.52053793004E+01  0.10107952572E+03  0.10829087876E+03  0.00000000000E+00 0.  1.
         12    1    5    5    0    0  0.11544110905E+03 -0.10514287917E+03  0.73793303591E+03  0.75427239124E+03  0.00000000000E+00 0. -1.
         11    1    3    3    0    0 -0.29291495710E+02  0.41358843308E+01 -0.18043933206E+03  0.18284816054E+03  0.00000000000E+00 0. -1.
        -12    1    3    3    0    0  0.23372945282E+02 -0.61273925709E+02 -0.87191534296E+03  0.87437815265E+03  0.00000000000E+00 0.  1.
          5    1    4    4  501    0 -0.93042609362E+02  0.78684722277E+02 -0.28208849816E+03  0.30731027622E+03  0.41800000000E+01 0. -1.
         -5    1    4    4    0  501 -0.54986415320E+02  0.78390818972E+02 -0.50185267666E+02  0.10818807633E+03  0.41800000000E+01 0. -1.
</event>
<event>
11    1  0.8479398E-009  0.1490686E+03  0.7561462E-02  0.1097834E+00
         22   -1    0    0    0    0  0.00000000000E+00  0.00000000000E+00  0.26424946089E+04  0.26424946089E+04  0.00000000000E+00 0.  1.
         22   -1    0    0    0    0 -0.00000000000E+00 -0.00000000000E+00 -0.25701311614E+03  0.25701311614E+03  0.00000000000E+00 0.  1.
        -24    2    1    2    0    0  0.68642536168E+02 -0.39833357685E+02 -0.21298550347E+03  0.24152227628E+03  0.81680420516E+02 0.  0.
         25    2    1    2    0    0 -0.93949103577E+02  0.57240297746E+02  0.21030884042E+03  0.26828927004E+03  0.12508572384E+03 0.  0.
         24    2    1    2    0    0  0.25306567409E+02 -0.17406940061E+02  0.23881581558E+04  0.23896961788E+04  0.80031403441E+02 0.  0.
        -11    1    5    5    0    0  0.44904871590E+02  0.90723804435E+01  0.18252853526E+04  0.18258601737E+04  0.00000000000E+00 0.  1.
         12    1    5    5    0    0 -0.19598304182E+02 -0.26479320505E+02  0.56287280322E+03  0.56383600501E+03  0.00000000000E+00 0. -1.
         11    1    3    3    0    0 -0.15022159947E+02  0.48240931720E+01 -0.55375823248E+02  0.57579674928E+02  0.00000000000E+00 0. -1.
        -12    1    3    3    0    0  0.83664696115E+02 -0.44657450857E+02 -0.15760968022E+03  0.18394260135E+03  0.00000000000E+00 0.  1.
          5    1    4    4  501    0 -0.24093719166E+02 -0.16103739919E+02  0.14448063973E+03  0.14741765634E+03  0.41800000000E+01 0.  1.
         -5    1    4    4    0  501 -0.69855384410E+02  0.73344037666E+02  0.65828200694E+02  0.12087161370E+03  0.41800000000E+01 0.  1.
</event>
<event>
11    1  0.8479398E-009  0.2072596E+03  0.7561462E-02  0.1049505E+00
         22   -1    0    0    0    0  0.00000000000E+00  0.00000000000E+00  0.37637518671E+03  0.37637518671E+03  0.00000000000E+00 0.  1.
         22   -1    0    0    0    0 -0.00000000000E+00 -0.00000000000E+00 -0.38136798682E+03  0.38136798682E+03  0.00000000000E+00 0.  1.
         24    2    1    2    0    0  0.10136073559E+03 -0.22806569154E+02 -0.17850445573E+03  0.22536060176E+03  0.90163306270E+02 0.  0.
         25    2    1    2    0    0  0.15630369730E+02 -0.11359134877E+03 -0.98732237985E+02  0.19632354778E+03  0.12509027789E+03 0.  0.
        -24    2    1    2    0    0 -0.11699110532E+03  0.13639791793E+03  0.27224389361E+03  0.33605902398E+03  0.80793683264E+02 0.  0.
        -13    1    3    3    0    0  0.65621249802E+02 -0.20909191196E+02 -0.17656089499E+03  0.18951805281E+03  0.00000000000E+00 0.  1.
         14    1    3    3    0    0  0.35739485785E+02 -0.18973779580E+01 -0.19435607422E+01  0.35842548956E+02  0.00000000000E+00 0. -1.
         13    1    5    5    0    0  0.29636937032E+01 -0.69821487620E+01  0.27373268893E+01  0.80639221350E+01  0.00000000000E+00 0. -1.
        -14    1    5    5    0    0 -0.11995479902E+03  0.14338006669E+03  0.26950656672E+03  0.32799510185E+03  0.00000000000E+00 0.  1.
          5    1    4    4  501    0  0.69866066221E+02 -0.68275247467E+02 -0.68253215528E+02  0.11924240209E+03  0.41800000000E+01 0.  1.
         -5    1    4    4    0  501 -0.54235696492E+02 -0.45316101306E+02 -0.30479022456E+02  0.77081145694E+02  0.41800000000E+01 0.  1.
</event>
<event>
11    1  0.8479398E-009  0.1400963E+03  0.7561462E-02  0.1107451E+00
         22   -1    0    0    0    0  0.00000000000E+00  0.00000000000E+00  0.11494748789E+04  0.11494748789E+04  0.00000000000E+00 0.  1.
         22   -1    0    0    0    0 -0.00000000000E+00 -0.00000000000E+00 -0.33745829539E+03  0.33745829539E+03  0.00000000000E+00 0.  1.
         24    2    1    2    0    0 -0.20916883492E+01  0.33100446199E+02 -0.18488877177E+03  0.20435183895E+03  0.80472364570E+02 0.  0.
         25    2    1    2    0    0 -0.55033264235E+02 -0.57115865916E+01 -0.10713860874E+03  0.17374588411E+03  0.12509064061E+03 0.  0.
        -24    2    1    2    0    0  0.57124952584E+02 -0.27388859607E+02  0.11040439640E+04  0.11088354512E+04  0.81176188514E+02 0.  0.
        -13    1    3    3    0    0 -0.52042469732E+01  0.46527662876E+02 -0.18472713849E+03  0.19056763443E+03  0.00000000000E+00 0.  1.
         14    1    3    3    0    0  0.31125586240E+01 -0.13427216677E+02 -0.16163327601E+00  0.13784204518E+02  0.00000000000E+00 0. -1.
         11    1    5    5    0    0  0.25847306786E+02 -0.38380341095E+01  0.82454668424E+02  0.86496162452E+02  0.00000000000E+00 0. -1.
        -12    1    5    5    0    0  0.31277645798E+02 -0.23550825498E+02  0.10215892956E+04  0.10223392887E+04  0.00000000000E+00 0.  1.
          5    1    4    4  501    0 -0.21591139643E+02 -0.65264975417E+01 -0.13064753096E+03  0.13264622960E+03  0.41800000000E+01 0. -1.
         -5    1    4    4    0  501 -0.33442124592E+02  0.81491095005E+00  0.23508922219E+02  0.41099654511E+02  0.41800000000E+01 0. -1.
</event>
<event>
11    1  0.8479398E-009  0.1369798E+03  0.7561462E-02  0.1110979E+00
         22   -1    0    0    0    0  0.00000000000E+00  0.00000000000E+00  0.31482191386E+03  0.31482191386E+03  0.00000000000E+00 0. -1.
         22   -1    0    0    0    0 -0.00000000000E+00 -0.00000000000E+00 -0.13228346978E+04  0.13228346978E+04  0.00000000000E+00 0.  1.
        -24    2    1    2    0    0  0.24841993364E+02  0.15637421092E+01 -0.11723731753E+04  0.11753768214E+04  0.80201247569E+02 0.  0.
         25    2    1    2    0    0  0.28550749239E+02 -0.21935516136E+02 -0.11017525198E+03  0.17052891369E+03  0.12508082229E+03 0.  0.
         24    2    1    2    0    0 -0.53392742602E+02  0.20371774027E+02  0.27453564339E+03  0.29175087655E+03  0.80516832614E+02 0.  0.
        -13    1    5    5    0    0 -0.48855582054E+02  0.37324351621E+02  0.10784601329E+03  0.12413999236E+03  0.00000000000E+00 0.  1.
         14    1    5    5    0    0 -0.45371605481E+01 -0.16952577594E+02  0.16668963011E+03  0.16761088419E+03  0.00000000000E+00 0. -1.
         11    1    3    3    0    0  0.30633201249E+02 -0.25735343546E+02 -0.31247242193E+03  0.31502335690E+03  0.00000000000E+00 0. -1.
        -12    1    3    3    0    0 -0.57912078856E+01  0.27299085655E+02 -0.85990075342E+03  0.86035346451E+03  0.00000000000E+00 0.  1.
          5    1    4    4  501    0  0.48612501366E+02 -0.63994215216E+02 -0.86319172538E+02  0.11801231638E+03  0.41800000000E+01 0.  1.
         -5    1    4    4    0  501 -0.20061752127E+02  0.42058699080E+02 -0.23856079444E+02  0.52516597311E+02  0.41800000000E+01 0.  1.
</event>
<event>
11    1  0.8479398E-009  0.1542381E+03  0.7561462E-02  0.1092625E+00
         22   -1    0    0    0    0  0.00000000000E+00  0.00000000000E+00  0.26843357241E+03  0.26843357241E+03  0.00000000000E+00 0.  1.
         22   -1    0    0    0    0 -0.00000000000E+00 -0.00000000000E+00 -0.84632877807E+03  0.84632877807E+03  0.00000000000E+00 0.  1.
         24    2    1    2    0    0 -0.84474298419E+02  0.17205023674E+02 -0.42527498861E+03  0.44322641773E+03  0.90326748576E+02 0.  0.
         25    2    1    2    0    0  0.96711531456E+02 -0.11334168296E+02 -0.38981520368E+03  0.42081599406E+03  0.12509446088E+03 0.  0.
        -24    2    1    2    0    0 -0.12237233037E+02 -0.58708553778E+01  0.23719498663E+03  0.25071993870E+03  0.80092503790E+02 0.  0.
        -13    1    3    3    0    0 -0.67000722530E+02  0.40770571539E+01 -0.41246933086E+03  0.41789552297E+03  0.00000000000E+00 0.  1.
         14    1    3    3    0    0 -0.17473575889E+02  0.13127966520E+02 -0.12805657745E+02  0.25330894765E+02  0.00000000000E+00 0. -1.
         13    1    5    5    0    0  0.16860892319E+02  0.22918072075E+02  0.38614563044E+02  0.47964697399E+02  0.00000000000E+00 0. -1.
        -14    1    5    5    0    0 -0.29098125356E+02 -0.28788927453E+02  0.19858042358E+03  0.20275524130E+03  0.00000000000E+00 0.  1.
          5    1    4    4  501    0  0.22170506483E+02  0.35801280880E+02 -0.26245339328E+03  0.26584303473E+03  0.41800000000E+01 0.  1.
         -5    1    4    4    0  501  0.74541024974E+02 -0.47135449177E+02 -0.12736181040E+03  0.15497295933E+03  0.41800000000E+01 0.  1.
</event>
<event>
11    1  0.8479398E-009  0.2252395E+03  0.7561462E-02  0.1037984E+00
         22   -1    0    0    0    0  0.00000000000E+00  0.00000000000E+00  0.74006944370E+03  0.74006944370E+03  0.00000000000E+00 0. -1.
         22   -1    0    0    0    0 -0.00000000000E+00 -0.00000000000E+00 -0.88177713299E+03  0.88177713299E+03  0.00000000000E+00 0. -1.
        -24    2    1    2    0    0 -0.72961834515E+02  0.36700574775E+01 -0.70538236211E+03  0.71353564648E+03  0.78942658949E+02 0.  0.
         25    2    1    2    0    0 -0.10762241275E+03 -0.73077110669E+02 -0.10432705836E+03  0.20845756980E+03  0.12509026930E+03 0.  0.
         24    2    1    2    0    0  0.18058424726E+03  0.69407053192E+02  0.66800173117E+03  0.69985336040E+03  0.78360728840E+02 0.  0.
        -13    1    5    5    0    0  0.59727531505E+02 -0.12725389974E+02  0.23763418105E+03  0.24535549224E+03  0.00000000000E+00 0.  1.
         14    1    5    5    0    0  0.12085671576E+03  0.82132443166E+02  0.43036755012E+03  0.45449786816E+03  0.00000000000E+00 0. -1.
         13    1    3    3    0    0 -0.40268952737E+02  0.38377845212E+02 -0.27869346091E+03  0.28419094410E+03  0.00000000000E+00 0. -1.
        -14    1    3    3    0    0 -0.32692881778E+02 -0.34707787734E+02 -0.42668890120E+03  0.42934470238E+03  0.00000000000E+00 0.  1.
          5    1    4    4  501    0 -0.50930443999E+02  0.19391866658E+02  0.43859947919E+01  0.54833055438E+02  0.41800000000E+01 0. -1.
         -5    1    4    4    0  501 -0.56691968748E+02 -0.92468977327E+02 -0.10871305315E+03  0.15362451436E+03  0.41800000000E+01 0. -1.
</event>
<event>
11    1  0.8479398E-009  0.1322143E+03  0.7561462E-02  0.1116578E+00
         22   -1    0    0    0    0  0.00000000000E+00  0.00000000000E+00  0.29510087360E+03  0.29510087360E+03  0.00000000000E+00 0. -1.
         22   -1    0    0    0    0 -0.00000000000E+00 -0.00000000000E+00 -0.12502225786E+04  0.12502225786E+04  0.00000000000E+00 0. -1.
        -24    2    1    2    0    0 -0.33510473439E+01  0.44354249032E+02 -0.11425657955E+04  0.11465389699E+04  0.84359253264E+02 0.  0.
         25    2    1    2    0    0 -0.14396286139E+02 -0.11148240970E+02 -0.57885836041E+02  0.13901222466E+03  0.12506835035E+03 0.  0.
         24    2    1    2    0    0  0.17747333483E+02 -0.33206008062E+02  0.24532992650E+03  0.25977225765E+03  0.76663199737E+02 0.  0.
        -11    1    5    5    0    0  0.10560566867E+02  0.24439588255E+02  0.62471967958E+02  0.67908510712E+02  0.00000000000E+00 0.  1.
         12    1    5    5    0    0  0.71867666165E+01 -0.57645596317E+02  0.18285795854E+03  0.19186374694E+03  0.00000000000E+00 0. -1.
         11    1    3    3    0    0  0.26174996269E+02  0.24922205909E+02 -0.95427552533E+03  0.95495969812E+03  0.00000000000E+00 0. -1.
        -12    1    3    3    0    0 -0.29526043613E+02  0.19432043122E+02 -0.18829027013E+03  0.19157927178E+03  0.00000000000E+00 0.  1.
          5    1    4    4  501    0 -0.11364672300E+02  0.55605656985E+02 -0.12909177314E+02  0.58354640982E+02  0.41800000000E+01 0.  1.
         -5    1    4    4    0  501 -0.30316138396E+01 -0.66753897955E+02 -0.44976658727E+02  0.80657583679E+02  0.41800000000E+01 0.  1.
</event>
<event>
11    1  0.8479398E-009  0.1329333E+03  0.7561462E-02  0.1115716E+00
         22   -1    0    0    0    0  0.00000000000E+00  0.00000000000E+00  0.12046000001E+04  0.12046000001E+04  0.00000000000E+00 0.  1.
         22   -1    0    0    0    0 -0.00000000000E+00 -0.00000000000E+00 -0.91578089963E+02  0.91578089963E+02  0.00000000000E+00 0.  1.
        -24    2    1    2    0    0 -0.46440975992E+02 -0.17083149551E+02 -0.46283769934E+02  0.10116012253E+03  0.75117140397E+02 0.  0.
         25    2    1    2    0    0  0.30380900737E+02 -0.29193521779E+02  0.26750557308E+03  0.29830020098E+03  0.12509403437E+03 0.  0.
         24    2    1    2    0    0  0.16060075255E+02  0.46276671330E+02  0.89180010699E+03  0.89671776655E+03  0.79974156359E+02 0.  0.
        -11    1    5    5    0    0  0.92481562187E+01  0.51327021667E+02  0.88284744605E+03  0.88438656963E+03  0.00000000000E+00 0.  1.
         12    1    5    5    0    0  0.68119190364E+01 -0.50503503368E+01  0.89526609448E+01  0.12331196920E+02  0.00000000000E+00 0. -1.
         11    1    3    3    0    0 -0.30115044505E+02  0.97657771292E+01  0.12872676935E+02  0.34175899695E+02  0.00000000000E+00 0. -1.
        -12    1    3    3    0    0 -0.16325931487E+02 -0.26848926681E+02 -0.59156446869E+02  0.66984222836E+02  0.00000000000E+00 0.  1.
          5    1    4    4  501    0 -0.40559170965E+02 -0.15879265660E+02  0.17769988827E+03  0.18300797829E+03  0.41800000000E+01 0. -1.
         -5    1    4    4    0  501  0.70940071702E+02 -0.13314256119E+02  0.89805684807E+02  0.11529222269E+03  0.41800000000E+01 0. -1.
</event>
<event>
11    1  0.8479398E-009  0.1679371E+03  0.7561462E-02  0.1079841E+00
         22   -1    0    0    0    0  0.00000000000E+00  0.00000000000E+00  0.27040134037E+03  0.27040134037E+03  0.00000000000E+00 0.  1.
         22   -1    0    0    0    0 -0.00000000000E+00 -0.00000000000E+00 -0.19144023049E+04  0.19144023049E+04  0.00000000000E+00 0. -1.
        -24    2    1    2    0    0  0.19031503558E+02 -0.15559456123E+01 -0.18046094639E+04  0.18065092571E+04  0.80596275760E+02 0.  0.
         25    2    1    2    0    0  0.15923999262E+02  0.10903748148E+03  0.13916105529E+01  0.16670904243E+03  0.12508885692E+03 0.  0.
         24    2    1    2    0    0 -0.34955502820E+02 -0.10748153587E+03  0.15921688889E+03  0.21158534567E+03  0.81511797089E+02 0.  0.
        -13    1    5    5    0    0  0.16424781099E+00 -0.51158705381E+02  0.12876984093E+03  0.13856013873E+03  0.00000000000E+00 0.  1.
         14    1    5    5    0    0 -0.35119750631E+02 -0.56322830490E+02  0.30447047965E+02  0.73025206939E+02  0.00000000000E+00 0. -1.
         13    1    3    3    0    0  0.20866486073E+02 -0.38376025491E+02 -0.76478167191E+03  0.76602815566E+03  0.00000000000E+00 0. -1.
        -14    1    3    3    0    0 -0.18349825157E+01  0.36820079878E+02 -0.10398277920E+04  0.10404811015E+04  0.00000000000E+00 0.  1.
          5    1    4    4  501    0 -0.19941945564E+02  0.78002163347E+02 -0.51405258501E+02  0.95613763033E+02  0.41800000000E+01 0.  1.
         -5    1    4    4    0  501  0.35865944826E+02  0.31035318136E+02  0.52796869054E+02  0.71095279393E+02  0.41800000000E+01 0.  1.
</event>
<event>
11    1  0.8479398E-009  0.1289324E+03  0.7561462E-02  0.1120588E+00
         22   -1    0    0    0    0  0.00000000000E+00  0.00000000000E+00  0.25770084080E+03  0.25770084080E+03  0.00000000000E+00 0.  1.
         22   -1    0    0    0    0 -0.00000000000E+00 -0.00000000000E+00 -0.10161150047E+04  0.10161150047E+04  0.00000000000E+00 0. -1.
        -24    2    1    2    0    0 -0.19284003651E+02 -0.20279160061E+02 -0.71496976521E+03  0.72001228686E+03  0.80329390243E+02 0.  0.
         25    2    1    2    0    0  0.34918039993E+02  0.37934024137E+02 -0.27540047460E+03  0.30684064548E+03  0.12508997005E+03 0.  0.
         24    2    1    2    0    0 -0.15634036342E+02 -0.17654864076E+02  0.23195607587E+03  0.24696291319E+03  0.81430596492E+02 0.  0.
        -13    1    5    5    0    0 -0.59073624007E+01  0.32749383528E+02  0.83812949820E+02  0.90177766715E+02  0.00000000000E+00 0.  1.
         14    1    5    5    0    0 -0.97266739417E+01 -0.50404247604E+02  0.14814312604E+03  0.15678514648E+03  0.00000000000E+00 0. -1.
         13    1    3    3    0    0 -0.50648232619E+02 -0.16779018404E+02 -0.42825806353E+03  0.43156893760E+03  0.00000000000E+00 0. -1.
        -14    1    3    3    0    0  0.31364228969E+02 -0.35001416566E+01 -0.28671170168E+03  0.28844334926E+03  0.00000000000E+00 0.  1.
          5    1    4    4  501    0  0.19438765715E+02 -0.36687615898E+02 -0.17943845616E+03  0.18422670469E+03  0.41800000000E+01 0.  1.
         -5    1    4    4    0  501  0.15479274278E+02  0.74621640035E+02 -0.95962018439E+02  0.12261394079E+03  0.41800000000E+01 0.  1.
</event>
<event>
11    1  0.8479398E-009  0.1320078E+03  0.7561462E-02  0.1116826E+00
         22   -1    0    0    0    0  0.00000000000E+00  0.00000000000E+00  0.44582283370E+03  0.44582283370E+03  0.00000000000E+00 0. -1.
         22   -1    0    0    0    0 -0.00000000000E+00 -0.00000000000E+00 -0.19715133210E+03  0.19715133210E+03  0.00000000000E+00 0. -1.
        -24    2    1    2    0    0 -0.27521810074E+02 -0.36104092156E+02 -0.11857380955E+03  0.15043423236E+03  0.80683049356E+02 0.  0.
         25    2    1    2    0    0  0.44678016785E+02 -0.46235088131E+01  0.21472651849E+02  0.13463275662E+03  0.12508957735E+03 0.  0.
         24    2    1    2    0    0 -0.17156206712E+02  0.40727600969E+02  0.34577265930E+03  0.35790717682E+03  0.81152587092E+02 0.  0.
        -11    1    5    5    0    0  0.30578368838E+02  0.28171629996E+02  0.12687973356E+03  0.13351832895E+03  0.00000000000E+00 0.  1.
         12    1    5    5    0    0 -0.47734575550E+02  0.12555970973E+02  0.21889292574E+03  0.22438884787E+03  0.00000000000E+00 0. -1.
         13    1    3    3    0    0 -0.70091902861E+01 -0.23692703246E+02 -0.12350919654E+03  0.12595632007E+03  0.00000000000E+00 0. -1.
        -14    1    3    3    0    0 -0.20512619788E+02 -0.12411388910E+02  0.49353869892E+01  0.24477912287E+02  0.00000000000E+00 0.  1.
          5    1    4    4  501    0 -0.10734218432E+02  0.46090145094E+02 -0.16588530443E+02  0.50320737896E+02  0.41800000000E+01 0. -1.
         -5    1    4    4    0  501  0.55412235217E+02 -0.50713653907E+02  0.38061182292E+02  0.84312018727E+02  0.41800000000E+01 0. -1.
</event>
<event>
11    1  0.8479398E-009  0.1306606E+03  0.7561462E-02  0.1118460E+00
         22   -1    0    0    0    0  0.00000000000E+00  0.00000000000E+00  0.15230857784E+04  0.15230857784E+04  0.00000000000E+00 0.  1.
         22   -1    0    0    0    0 -0.00000000000E+00 -0.00000000000E+00 -0.40595059497E+03  0.40595059497E+03  0.00000000000E+00 0.  1.
         24    2    1    2    0    0 -0.33342775179E+02  0.16605433807E+02 -0.36338438894E+03  0.37400322971E+03  0.80266559785E+02 0.  0.
         25    2    1    2    0    0  0.31110671734E+02 -0.47355650665E+02  0.95512342684E+02  0.16727954218E+03  0.12509758623E+03 0.  0.
        -24    2    1    2    0    0  0.22321034450E+01  0.30750216858E+02  0.13850072297E+04  0.13877536015E+04  0.81636229727E+02 0.  0.
        -11    1    3    3    0    0 -0.30721210932E+02 -0.26225792957E+02 -0.23986516968E+03  0.24324244005E+03  0.00000000000E+00 0.  1.
         12    1    3    3    0    0 -0.26215642472E+01  0.42831226764E+02 -0.12351921927E+03  0.13076078966E+03  0.00000000000E+00 0. -1.
         11    1    5    5    0    0 -0.11637788979E+02 -0.25666276401E+02  0.36006768027E+03  0.36116883899E+03  0.00000000000E+00 0. -1.
        -12    1    5    5    0    0  0.13869892424E+02  0.56416493258E+02  0.10249395494E+04  0.10265847625E+04  0.00000000000E+00 0.  1.
          5    1    4    4  501    0 -0.68715099896E+01  0.38121255510E+02  0.94145016541E+01  0.40081828958E+02  0.41800000000E+01 0.  1.
         -5    1    4    4    0  501  0.37982181723E+02 -0.85476906175E+02  0.86097841030E+02  0.12719771322E+03  0.41800000000E+01 0.  1.
</event>
<event>
11    1  0.8479398E-009  0.1919009E+03  0.7561462E-02  0.1060403E+00
         22   -1    0    0    0    0  0.00000000000E+00  0.00000000000E+00  0.11835978613E+03  0.11835978613E+03  0.00000000000E+00 0.  1.
         22   -1    0    0    0    0 -0.00000000000E+00 -0.00000000000E+00 -0.16012214709E+04  0.16012214709E+04  0.00000000000E+00 0.  1.
         24    2    1    2    0    0 -0.70898391351E+02  0.11683398206E+03 -0.10766136893E+04  0.10882737901E+04  0.81031135784E+02 0.  0.
         25    2    1    2    0    0  0.15264305214E+03 -0.12533809163E+03 -0.45113005449E+03  0.50810977295E+03  0.12509067400E+03 0.  0.
        -24    2    1    2    0    0 -0.81744660791E+02  0.85041095713E+01  0.44882059074E+02  0.12319769393E+03  0.80054750736E+02 0.  0.
        -11    1    3    3    0    0 -0.18382537919E+02 -0.26607734111E+01 -0.31572375761E+03  0.31626964530E+03  0.00000000000E+00 0.  1.
         12    1    3    3    0    0 -0.52515853432E+02  0.11949475547E+03 -0.76088993170E+03  0.77200414481E+03  0.00000000000E+00 0. -1.
         11    1    5    5    0    0  0.72177258714E+01 -0.11490895552E+02 -0.99250212164E+01  0.16811968757E+02  0.00000000000E+00 0. -1.
        -12    1    5    5    0    0 -0.88962386662E+02  0.19995005123E+02  0.54807080290E+02  0.10638572517E+03  0.00000000000E+00 0.  1.
          5    1    4    4  501    0  0.13286577321E+02 -0.40020610939E+02 -0.19653364087E+02  0.46710914749E+02  0.41800000000E+01 0.  1.
         -5    1    4    4    0  501  0.13935647482E+03 -0.85317480689E+02 -0.43147669040E+03  0.46139885820E+03  0.41800000000E+01 0.  1.
</event>
<event>
11    1  0.8479398E-009  0.1428194E+03  0.7561462E-02  0.1104450E+00
         22   -1    0    0    0    0  0.00000000000E+00  0.00000000000E+00  0.23636505656E+03  0.23636505656E+03  0.00000000000E+00 0.  1.
         22   -1    0    0    0    0 -0.00000000000E+00 -0.00000000000E+00 -0.56906880859E+03  0.56906880859E+03  0.00000000000E+00 0.  1.
         24    2    1    2    0    0 -0.32508418114E+02  0.68288539276E+02 -0.40856921545E+03  0.42268530123E+03  0.77549585578E+02 0.  0.
         25    2    1    2    0    0 -0.37997461912E+02 -0.52374260317E+02 -0.10252701121E+03  0.17420208780E+03  0.12509080347E+03 0.  0.
        -24    2    1    2    0    0  0.70505880026E+02 -0.15914278960E+02  0.17839247463E+03  0.20854647611E+03  0.80270880785E+02 0.  0.
        -13    1    3    3    0    0 -0.37028838252E+02  0.67246199164E+02 -0.41053221193E+03  0.41764803746E+03  0.00000000000E+00 0.  1.
         14    1    3    3    0    0  0.45204201385E+01  0.10423401118E+01  0.19629964807E+01  0.50372637731E+01  0.00000000000E+00 0. -1.
         11    1    5    5    0    0  0.10048100756E+02  0.30150667203E+02  0.58945867923E+02  0.66967472752E+02  0.00000000000E+00 0. -1.
        -12    1    5    5    0    0  0.60457779270E+02 -0.46064946162E+02  0.11944660671E+03  0.14157900336E+03  0.00000000000E+00 0.  1.
          5    1    4    4  501    0  0.37283078289E+01  0.32161374683E+02  0.28246511344E+01  0.32767443520E+02  0.41800000000E+01 0.  1.
         -5    1    4    4    0  501 -0.41725769741E+02 -0.84535635000E+02 -0.10535166234E+03  0.14143464428E+03  0.41800000000E+01 0.  1.
</event>
<event>
11    1  0.8479398E-009  0.2300719E+03  0.7561462E-02  0.1035085E+00
         22   -1    0    0    0    0  0.00000000000E+00  0.00000000000E+00  0.20012550515E+04  0.20012550515E+04  0.00000000000E+00 0. -1.
         22   -1    0    0    0    0 -0.00000000000E+00 -0.00000000000E+00 -0.30303591770E+03  0.30303591770E+03  0.00000000000E+00 0.  1.
        -24    2    1    2    0    0  0.41370927530E+02  0.18156525891E+03 -0.21282154917E+03  0.29479997971E+03  0.83285769238E+02 0.  0.
         25    2    1    2    0    0 -0.80935058503E+02 -0.26425553765E+03  0.44607223564E+03  0.53945398164E+03  0.12509470821E+03 0.  0.
         24    2    1    2    0    0  0.39564130973E+02  0.82690278745E+02  0.14649684473E+04  0.14700370078E+04  0.80456510898E+02 0.  0.
        -13    1    5    5    0    0  0.82958127049E+01  0.22490879619E+02  0.82681071184E+02  0.86086117967E+02  0.00000000000E+00 0.  1.
         14    1    5    5    0    0  0.31268318268E+02  0.60199399126E+02  0.13822873761E+04  0.13839508899E+04  0.00000000000E+00 0. -1.
         13    1    3    3    0    0  0.15936429796E+01 -0.83508162849E+01 -0.30111450603E+01  0.90190257315E+01  0.00000000000E+00 0. -1.
        -14    1    3    3    0    0  0.39777284550E+02  0.18991607519E+03 -0.20981040411E+03  0.28578095398E+03  0.00000000000E+00 0.  1.
          5    1    4    4  501    0 -0.26980270887E+02 -0.33069660627E+01  0.11792856153E+02  0.29923484054E+02  0.41800000000E+01 0. -1.
         -5    1    4    4    0  501 -0.53954787615E+02 -0.26094857159E+03  0.43427937949E+03  0.50953049758E+03  0.41800000000E+01 0. -1.
</event>
<event>
11    1  0.8479398E-009  0.2323123E+03  0.7561462E-02  0.1033768E+00
         22   -1    0    0    0    0  0.00000000000E+00  0.00000000000E+00  0.71942198296E+03  0.71942198296E+03  0.00000000000E+00 0. -1.
         22   -1    0    0    0    0 -0.00000000000E+00 -0.00000000000E+00 -0.60652086886E+03  0.60652086886E+03  0.00000000000E+00 0. -1.
         24    2    1    2    0    0  0.16849040816E+01  0.52371703459E+01 -0.49341039020E+03  0.49985287780E+03  0.79804883475E+02 0.  0.
         25    2    1    2    0    0 -0.11584094050E+03 -0.16312123787E+03  0.64249456234E+02  0.24453718720E+03  0.12507110600E+03 0.  0.
        -24    2    1    2    0    0  0.11415603642E+03  0.15788406752E+03  0.54206204807E+03  0.58155278683E+03  0.80083709252E+02 0.  0.
        -11    1    3    3    0    0 -0.16536337902E+01 -0.13011332280E+02 -0.11090619546E+02  0.17176469787E+02  0.00000000000E+00 0.  1.
         12    1    3    3    0    0  0.33385378718E+01  0.18248502626E+02 -0.48231977066E+03  0.48267640801E+03  0.00000000000E+00 0. -1.
         13    1    5    5    0    0  0.77811830860E+02  0.14751252064E+03  0.37738662051E+03  0.41259579022E+03  0.00000000000E+00 0. -1.
        -14    1    5    5    0    0  0.36344205561E+02  0.10371546881E+02  0.16467542756E+03  0.16895699661E+03  0.00000000000E+00 0.  1.
          5    1    4    4  501    0 -0.60054871494E+02 -0.10393531203E+02  0.54046514731E+02  0.81566606130E+02  0.41800000000E+01 0. -1.
         -5    1    4    4    0  501 -0.55786069009E+02 -0.15272770666E+03  0.10202941503E+02  0.16297058107E+03  0.41800000000E+01 0. -1.
</event>
<event>
11    1  0.8479398E-009  0.1351803E+03  0.7561462E-02  0.1113063E+00
         22   -1    0    0    0    0  0.00000000000E+00  0.00000000000E+00  0.22176291565E+03  0.22176291565E+03  0.00000000000E+00 0. -1.
         22   -1    0    0    0    0 -0.00000000000E+00 -0.00000000000E+00 -0.19822934233E+04  0.19822934233E+04  0.00000000000E+00 0. -1.
         24    2    1    2    0    0 -0.27840907763E+01 -0.72075055663E+01 -0.16990911123E+04  0.17010200152E+04  0.80615040273E+02 0.  0.
         25    2    1    2    0    0  0.53417947357E+02 -0.31147295526E+00 -0.25501377678E+03  0.28902012079E+03  0.12508808798E+03 0.  0.
        -24    2    1    2    0    0 -0.50633856580E+02  0.75189785215E+01  0.19357438148E+03  0.21401620298E+03  0.75574939649E+02 0.  0.
        -13    1    3    3    0    0  0.33776370729E+02  0.89772236249E+01 -0.47868454822E+03  0.47995867579E+03  0.00000000000E+00 0.  1.
         14    1    3    3    0    0 -0.36560461506E+02 -0.16184729191E+02 -0.12204065641E+04  0.12210613394E+04  0.00000000000E+00 0. -1.
         11    1    5    5    0    0 -0.37931975043E+02 -0.22416946278E+02  0.16481948654E+03  0.17060720194E+03  0.00000000000E+00 0. -1.
        -12    1    5    5    0    0 -0.12701881537E+02  0.29935924800E+02  0.28754894940E+02  0.43409001039E+02  0.00000000000E+00 0.  1.
          5    1    4    4  501    0  0.36732180245E+02  0.60921852346E+02 -0.15336276627E+03  0.16911042439E+03  0.41800000000E+01 0.  1.
         -5    1    4    4    0  501  0.16685767112E+02 -0.61233325301E+02 -0.10165101052E+03  0.11990969640E+03  0.41800000000E+01 0.  1.
</event>
<event>
11    1  0.8479398E-009  0.2143325E+03  0.7561462E-02  0.1044827E+00
         22   -1    0    0    0    0  0.00000000000E+00  0.00000000000E+00  0.36945824042E+03  0.36945824042E+03  0.00000000000E+00 0. -1.
         22   -1    0    0    0    0 -0.00000000000E+00 -0.00000000000E+00 -0.25761059174E+04  0.25761059174E+04  0.00000000000E+00 0.  1.
         24    2    1    2    0    0 -0.16084744492E+03  0.64768206964E+02 -0.24262050855E+04  0.24337055225E+04  0.79903892108E+02 0.  0.
         25    2    1    2    0    0  0.17822217056E+03 -0.65643773523E+02 -0.47802989520E+02  0.23239156734E+03  0.12509383551E+03 0.  0.
        -24    2    1    2    0    0 -0.17374725648E+02  0.87556655831E+00  0.26736039802E+03  0.27946706805E+03  0.79483407003E+02 0.  0.
        -13    1    3    3    0    0 -0.12150555837E+03  0.80355308534E+02 -0.20383634305E+04  0.20435620987E+04  0.00000000000E+00 0.  1.
         14    1    3    3    0    0 -0.39341886543E+02 -0.15587101570E+02 -0.38784165499E+03  0.39014342377E+03  0.00000000000E+00 0. -1.
         13    1    5    5    0    0 -0.26297769757E+02  0.36186729054E+02  0.13730357613E+03  0.14440680064E+03  0.00000000000E+00 0. -1.
        -14    1    5    5    0    0  0.89230441083E+01 -0.35311162496E+02  0.13005682188E+03  0.13506026741E+03  0.00000000000E+00 0.  1.
          5    1    4    4  501    0  0.87025053149E+02 -0.45929164016E+02 -0.86703762486E+02  0.13121685415E+03  0.41800000000E+01 0.  1.
         -5    1    4    4    0  501  0.91197117415E+02 -0.19714609507E+02  0.38900772966E+02  0.10117471320E+03  0.41800000000E+01 0.  1.
</event>
<event>
11    1  0.8479398E-009  0.1422819E+03  0.7561462E-02  0.1105037E+00
         22   -1    0    0    0    0  0.00000000000E+00  0.00000000000E+00  0.17171595064E+03  0.17171595064E+03  0.00000000000E+00 0. -1.
         22   -1    0    0    0    0 -0.00000000000E+00 -0.00000000000E+00 -0.24082966793E+04  0.24082966793E+04  0.00000000000E+00 0. -1.
         24    2    1    2    0    0  0.33997957847E+01  0.70248949769E+02 -0.22079771946E+04  0.22105753004E+04  0.80829409740E+02 0.  0.
         25    2    1    2    0    0 -0.12934609677E+02 -0.23967969264E+02 -0.16214080763E+03  0.20658603330E+03  0.12508549068E+03 0.  0.
        -24    2    1    2    0    0  0.95348138925E+01 -0.46280980505E+02  0.13353727356E+03  0.16285129621E+03  0.80346122579E+02 0.  0.
        -11    1    3    3    0    0  0.21004792613E+02 -0.97545565425E+01 -0.32955641839E+03  0.33036916562E+03  0.00000000000E+00 0.  1.
         12    1    3    3    0    0 -0.17604996829E+02  0.80003506311E+02 -0.18784207762E+04  0.18802061348E+04  0.00000000000E+00 0. -1.
         11    1    5    5    0    0  0.38500627013E+02 -0.17365323293E+02  0.10437394288E+03  0.11259561575E+03  0.00000000000E+00 0. -1.
        -12    1    5    5    0    0 -0.28965813120E+02 -0.28915657211E+02  0.29163330676E+02  0.50255680453E+02  0.00000000000E+00 0.  1.
          5    1    4    4  501    0 -0.49318737975E+02  0.19710276255E+02 -0.26599636166E+02  0.59547006219E+02  0.41800000000E+01 0. -1.
         -5    1    4    4    0  501  0.36384128298E+02 -0.43678245519E+02 -0.13554117146E+03  0.14703902708E+03  0.41800000000E+01 0. -1.
</event>
<event>
11    1  0.8479398E-009  0.1283888E+03  0.7561462E-02  0.1121265E+00
         22   -1    0    0    0    0  0.00000000000E+00  0.00000000000E+00  0.19839295270E+03  0.19839295270E+03  0.00000000000E+00 0.  1.
         22   -1    0    0    0    0 -0.00000000000E+00 -0.00000000000E+00 -0.17185584708E+04  0.17185584708E+04  0.00000000000E+00 0. -1.
         24    2    1    2    0    0  0.18193262657E+02  0.67822366402E+01 -0.16073691674E+04  0.16093778237E+04  0.78002215247E+02 0.  0.
         25    2    1    2    0    0  0.97328124599E+01  0.10091280622E+02 -0.43872808421E+02  0.13330425494E+03  0.12509452219E+03 0.  0.
        -24    2    1    2    0    0 -0.27926075117E+02 -0.16873517262E+02  0.13107645772E+03  0.17426934485E+03  0.11010987934E+03 0.  0.
        -13    1    3    3    0    0  0.30366568044E+02 -0.96218930840E+00 -0.23783781869E+03  0.23977047830E+03  0.00000000000E+00 0.  1.
         14    1    3    3    0    0 -0.12173305387E+02  0.77444259486E+01 -0.13695313487E+04  0.13696073454E+04  0.00000000000E+00 0. -1.
         13    1    5    5    0    0  0.21971238563E+02  0.10686736987E+02 -0.65584036592E+01  0.25297318632E+02  0.00000000000E+00 0. -1.
        -14    1    5    5    0    0 -0.49897313680E+02 -0.27560254249E+02  0.13763486138E+03  0.14897202621E+03  0.00000000000E+00 0.  1.
          5    1    4    4  501    0 -0.90227937317E+01  0.50490227296E+02 -0.65759437533E+02  0.83501196901E+02  0.41800000000E+01 0. -1.
         -5    1    4    4    0  501  0.18755606192E+02 -0.40398946674E+02  0.21886629112E+02  0.49803058037E+02  0.41800000000E+01 0. -1.
</event>
<event>
11    1  0.8479398E-009  0.1600843E+03  0.7561462E-02  0.1086998E+00
         22   -1    0    0    0    0  0.00000000000E+00  0.00000000000E+00  0.25442312304E+03  0.25442312304E+03  0.00000000000E+00 0.  1.
         22   -1    0    0    0    0 -0.00000000000E+00 -0.00000000000E+00 -0.23727263858E+04  0.23727263858E+04  0.00000000000E+00 0.  1.
         24    2    1    2    0    0 -0.84162274528E+02 -0.53932287344E+02 -0.23028101988E+04  0.23064522939E+04  0.82434170695E+02 0.  0.
         25    2    1    2    0    0  0.91833276140E+02  0.39908225661E+02  0.10334420657E+03  0.19064027615E+03  0.12505068084E+03 0.  0.
        -24    2    1    2    0    0 -0.76710016118E+01  0.14024061683E+02  0.81162729498E+02  0.13005693872E+03  0.10035885649E+03 0.  0.
        -13    1    3    3    0    0 -0.27525890459E+02 -0.26284582242E+02 -0.16862181845E+04  0.16866476573E+04  0.00000000000E+00 0.  1.
         14    1    3    3    0    0 -0.56636384069E+02 -0.27647705102E+02 -0.61659201426E+03  0.61980463668E+03  0.00000000000E+00 0. -1.
         11    1    5    5    0    0  0.21279891131E+02  0.47483963033E+02  0.64275626392E+02  0.82697742774E+02  0.00000000000E+00 0. -1.
        -12    1    5    5    0    0 -0.28950892743E+02 -0.33459901350E+02  0.16887103106E+02  0.47359195942E+02  0.00000000000E+00 0.  1.
          5    1    4    4  501    0  0.10635195282E+03  0.59597634583E+02  0.50053406805E+02  0.13185382758E+03  0.41800000000E+01 0.  1.
         -5    1    4    4    0  501 -0.14518676677E+02 -0.19689408922E+02  0.53290799763E+02  0.58786448570E+02  0.41800000000E+01 0.  1.
</event>
<event>
11    1  0.8479398E-009  0.1300130E+03  0.7561462E-02  0.1119253E+00
         22   -1    0    0    0    0  0.00000000000E+00  0.00000000000E+00  0.58187170819E+03  0.58187170819E+03  0.00000000000E+00 0.  1.
         22   -1    0    0    0    0 -0.00000000000E+00 -0.00000000000E+00 -0.14846884727E+03  0.14846884727E+03  0.00000000000E+00 0.  1.
        -24    2    1    2    0    0 -0.34055685750E+02 -0.21245760813E+02 -0.75864349776E+02  0.11673825981E+03  0.79128058559E+02 0.  0.
         25    2    1    2    0    0  0.24856981205E+02 -0.12993463344E+02  0.36774381504E+02  0.13336892863E+03  0.12509283107E+03 0.  0.
         24    2    1    2    0    0  0.91987045453E+01  0.34239224157E+02  0.47249282919E+03  0.48023336702E+03  0.78215551701E+02 0.  0.
        -13    1    5    5    0    0  0.46142318428E+01  0.33863740682E+02  0.47412301627E+03  0.47535321460E+03  0.00000000000E+00 0.  1.
         14    1    5    5    0    0  0.45844727026E+01  0.37548347498E+00 -0.16301870789E+01  0.48801524272E+01  0.00000000000E+00 0. -1.
         11    1    3    3    0    0 -0.90668048221E+01 -0.34811294255E+02 -0.27038101495E+00  0.35973688486E+02  0.00000000000E+00 0. -1.
        -12    1    3    3    0    0 -0.24988880928E+02  0.13565533441E+02 -0.75593968761E+02  0.80764571321E+02  0.00000000000E+00 0.  1.
          5    1    4    4  501    0  0.63428547729E+02  0.40810512833E+01 -0.16003247254E+02  0.65676570931E+02  0.41800000000E+01 0.  1.
         -5    1    4    4    0  501 -0.38571566524E+02 -0.17074514627E+02  0.52777628758E+02  0.67692357702E+02  0.41800000000E+01 0.  1.
</event>
<event>
11    1  0.8479398E-009  0.1269667E+03  0.7561462E-02  0.1123053E+00
         22   -1    0    0    0    0  0.00000000000E+00  0.00000000000E+00  0.29391764203E+02  0.29391764203E+02  0.00000000000E+00 0. -1.
         22   -1    0    0    0    0 -0.00000000000E+00 -0.00000000000E+00 -0.15030323179E+04  0.15030323179E+04  0.00000000000E+00 0. -1.
         24    2    1    2    0    0 -0.15046582504E+02  0.67418248490E+01 -0.69336637591E+03  0.69835967985E+03  0.81715722761E+02 0.  0.
         25    2    1    2    0    0  0.29382101672E+02 -0.17129108987E+02 -0.72081176481E+03  0.73237569014E+03  0.12509131442E+03 0.  0.
        -24    2    1    2    0    0 -0.14335519168E+02  0.10387284138E+02 -0.59462412956E+02  0.10168871210E+03  0.80569304526E+02 0.  0.
        -13    1    3    3    0    0  0.30177670005E+01 -0.35669528949E+02 -0.23986968204E+03  0.24252605339E+03  0.00000000000E+00 0.  1.
         14    1    3    3    0    0 -0.18064349505E+02  0.42411353798E+02 -0.45349669387E+03  0.45583362646E+03  0.00000000000E+00 0. -1.
         11    1    5    5    0    0 -0.28970823966E+02  0.36308341969E+02 -0.54334120705E+02  0.71482872148E+02  0.00000000000E+00 0. -1.
        -12    1    5    5    0    0  0.14635304799E+02 -0.25921057830E+02 -0.51282922514E+01  0.30205839949E+02  0.00000000000E+00 0.  1.
          5    1    4    4  501    0  0.24497976417E+02  0.33054427501E+02 -0.84715400633E+02  0.94270448872E+02  0.41800000000E+01 0.  1.
         -5    1    4    4    0  501  0.48841252546E+01 -0.50183536489E+02 -0.63609636418E+03  0.63810524127E+03  0.41800000000E+01 0.  1.
</event>
<event>
11    1  0.8479398E-009  0.1343065E+03  0.7561462E-02  0.1114088E+00
         22   -1    0    0    0    0  0.00000000000E+00  0.00000000000E+00  0.89644925486E+03  0.89644925486E+03  0.00000000000E+00 0. -1.
         22   -1    0    0    0    0 -0.00000000000E+00 -0.00000000000E+00 -0.21061498398E+04  0.21061498398E+04  0.00000000000E+00 0. -1.
         24    2    1    2    0    0 -0.37948416011E+02 -0.14742075371E+02 -0.20236111215E+04  0.20255783888E+04  0.79425607741E+02 0.  0.
         25    2    1    2    0    0  0.15734252283E+02  0.58429396729E+02 -0.17618100593E+02  0.14006973485E+03  0.12509025564E+03 0.  0.
        -24    2    1    2    0    0  0.22214163728E+02 -0.43687321359E+02  0.83152863708E+03  0.83695097106E+03  0.81516885098E+02 0.  0.
        -13    1    3    3    0    0 -0.22980487455E+01  0.31086487990E+02 -0.68754638286E+03  0.68825262756E+03  0.00000000000E+00 0.  1.
         14    1    3    3    0    0 -0.35650367265E+02 -0.45828563361E+02 -0.13360647386E+04  0.13373257612E+04  0.00000000000E+00 0. -1.
         11    1    5    5    0    0  0.32930741969E+02  0.14477121455E+02  0.31490652521E+03  0.31695447691E+03  0.00000000000E+00 0. -1.
        -12    1    5    5    0    0 -0.10716578240E+02 -0.58164442814E+02  0.51662211186E+03  0.51999649415E+03  0.00000000000E+00 0.  1.
          5    1    4    4  501    0 -0.49885835908E+02  0.48840488515E+02 -0.22428474563E+02  0.73447251915E+02  0.41800000000E+01 0. -1.
         -5    1    4    4    0  501  0.65620088190E+02  0.95889082144E+01  0.48103739701E+01  0.66622482936E+02  0.41800000000E+01 0. -1.
</event>
<event>
11    1  0.8479398E-009  0.1660712E+03  0.7561462E-02  0.1081502E+00
         22   -1    0    0    0    0  0.00000000000E+00  0.00000000000E+00  0.12096632279E+04  0.12096632279E+04  0.00000000000E+00 0.  1.
         22   -1    0    0    0    0 -0.00000000000E+00 -0.00000000000E+00 -0.27343318530E+03  0.27343318530E+03  0.00000000000E+00 0.  1.
        -24    2    1    2    0    0 -0.18290167000E+02 -0.10767106042E+03 -0.21279480544E+03  0.25250282201E+03  0.80922545936E+02 0.  0.
         25    2    1    2    0    0 -0.23479247890E+01  0.11120000390E+03  0.13989910264E+03  0.21815112859E+03  0.12508877794E+03 0.  0.
         24    2    1    2    0    0  0.20638091789E+02 -0.35289434758E+01  0.10091257454E+04  0.10124424626E+04  0.79161769531E+02 0.  0.
        -13    1    5    5    0    0 -0.77665443434E+01 -0.22468258636E+02  0.81438280578E+03  0.81472970746E+03  0.00000000000E+00 0.  1.
         14    1    5    5    0    0  0.28404636132E+02  0.18939315160E+02  0.19474293961E+03  0.19771275513E+03  0.00000000000E+00 0. -1.
         11    1    3    3    0    0 -0.49168421134E+02 -0.48543505864E+02 -0.11373449324E+03  0.13307719771E+03  0.00000000000E+00 0. -1.
        -12    1    3    3    0    0  0.30878254135E+02 -0.59127554557E+02 -0.99060312207E+02  0.11942562431E+03  0.00000000000E+00 0.  1.
          5    1    4    4  501    0 -0.46145715967E+02  0.13559122495E+02  0.85122568693E+02  0.97860109370E+02  0.41800000000E+01 0.  1.
         -5    1    4    4    0  501  0.43797791178E+02  0.97640881401E+02  0.54776533950E+02  0.12029101922E+03  0.41800000000E+01 0.  1.
</event>
<event>
11    1  0.8479398E-009  0.1648452E+03  0.7561462E-02  0.1082607E+00
         22   -1    0    0    0    0  0.00000000000E+00  0.00000000000E+00  0.22915459859E+04  0.22915459859E+04  0.00000000000E+00 0.  1.
         22   -1    0    0    0    0 -0.00000000000E+00 -0.00000000000E+00 -0.40180930061E+03  0.40180930061E+03  0.00000000000E+00 0.  1.
         24    2    1    2    0    0 -0.23751882376E+02 -0.54817232030E+02 -0.36527369274E+03  0.37881511581E+03  0.80665609254E+02 0.  0.
         25    2    1    2    0    0 -0.21270582632E+02  0.14898824264E+03  0.32014808679E+03  0.37522069226E+03  0.12508331740E+03 0.  0.
        -24    2    1    2    0    0  0.45022465008E+02 -0.94171010607E+02  0.19348622912E+04  0.19393194784E+04  0.79829517121E+02 0.  0.
        -11    1    3    3    0    0 -0.19612343338E+01  0.21006957763E+02 -0.91487808696E+02  0.93889072072E+02  0.00000000000E+00 0.  1.
         12    1    3    3    0    0 -0.21790648043E+02 -0.75824189793E+02 -0.27378588404E+03  0.28492604374E+03  0.00000000000E+00 0. -1.
         13    1    5    5    0    0  0.35994948961E+02 -0.28118301011E+00  0.42996551313E+03  0.43146964887E+03  0.00000000000E+00 0. -1.
        -14    1    5    5    0    0  0.90275160469E+01 -0.93889827597E+02  0.15048967781E+04  0.15078498296E+04  0.00000000000E+00 0.  1.
          5    1    4    4  501    0 -0.45098488406E+02  0.54924150130E+00  0.73733354900E+02  0.86534706029E+02  0.41800000000E+01 0.  1.
         -5    1    4    4    0  501  0.23827905774E+02  0.14843900114E+03  0.24641473189E+03  0.28868598623E+03  0.41800000000E+01 0.  1.
</event>
<event>
11    1  0.8479398E-009  0.1287576E+03  0.7561462E-02  0.1120805E+00
         22   -1    0    0    0    0  0.00000000000E+00  0.00000000000E+00  0.42388555446E+02  0.42388555446E+02  0.00000000000E+00 0. -1.
         22   -1    0    0    0    0 -0.00000000000E+00 -0.00000000000E+00 -0.14591866004E+04  0.14591866004E+04  0.00000000000E+00 0. -1.
        -24    2    1    2    0    0  0.13971628270E+02 -0.68147042754E+01 -0.74521715156E+03  0.74982926065E+03  0.81570034657E+02 0.  0.
         25    2    1    2    0    0 -0.18080264207E+01 -0.22126772243E+02 -0.65179055186E+03  0.66405634371E+03  0.12508813342E+03 0.  0.
         24    2    1    2    0    0 -0.12163601849E+02  0.28941476518E+02 -0.19790341531E+02  0.87689551482E+02  0.79449591240E+02 0.  0.
        -13    1    5    5    0    0 -0.38337667248E+01  0.31909529343E+02 -0.48201763708E+02  0.57933805803E+02  0.00000000000E+00 0.  1.
         14    1    5    5    0    0 -0.83298351242E+01 -0.29680528251E+01  0.28411422178E+02  0.29755745679E+02  0.00000000000E+00 0. -1.
         13    1    3    3    0    0 -0.14261493970E+02  0.13107680800E+02 -0.60865866351E+03  0.60896680548E+03  0.00000000000E+00 0. -1.
        -14    1    3    3    0    0  0.28233122240E+02 -0.19922385075E+02 -0.13655848805E+03  0.14086245517E+03  0.00000000000E+00 0.  1.
          5    1    4    4  501    0  0.18330912680E+02 -0.66113089912E+02 -0.49962848698E+03  0.50433427448E+03  0.41800000000E+01 0. -1.
         -5    1    4    4    0  501 -0.20138939100E+02  0.43986317669E+02 -0.15216206488E+03  0.15972206923E+03  0.41800000000E+01 0. -1.
</event>
<event>
11    1  0.8479398E-009  0.1418787E+03  0.7561462E-02  0.1105479E+00
         22   -1    0    0    0    0  0.00000000000E+00  0.00000000000E+00  0.79659357684E+03  0.79659357684E+03  0.00000000000E+00 0. -1.
         22   -1    0    0    0    0 -0.00000000000E+00 -0.00000000000E+00 -0.37951201920E+03  0.37951201920E+03  0.00000000000E+00 0.  1.
         24    2    1    2    0    0  0.16523510141E+02  0.63799476781E+02 -0.34455878307E+03  0.36027618813E+03  0.82065687819E+02 0.  0.
         25    2    1    2    0    0 -0.56311383201E+02 -0.98098641487E+02  0.29762655224E+03  0.34208766512E+03  0.12509232865E+03 0.  0.
        -24    2    1    2    0    0  0.39787873060E+02  0.34299164705E+02  0.46401378847E+03  0.47374174279E+03  0.79768010032E+02 0.  0.
        -11    1    3    3    0    0  0.75476670614E+01  0.83035423425E+02 -0.28949081683E+03  0.30125866270E+03  0.00000000000E+00 0.  1.
         12    1    3    3    0    0  0.89758430793E+01 -0.19235946644E+02 -0.55067966245E+02  0.59017525436E+02  0.00000000000E+00 0. -1.
         13    1    5    5    0    0  0.61430704778E+02  0.99766351138E+01  0.27599467945E+03  0.28292459741E+03  0.00000000000E+00 0. -1.
        -14    1    5    5    0    0 -0.21642831717E+02  0.24322529591E+02  0.18801910903E+03  0.19081714538E+03  0.00000000000E+00 0.  1.
          5    1    4    4  501    0 -0.40333791295E+02 -0.11905788307E+03  0.16868057283E+03  0.21040960599E+03  0.41800000000E+01 0. -1.
         -5    1    4    4    0  501 -0.15977591906E+02  0.20959241581E+02  0.12894597941E+03  0.13167805913E+03  0.41800000000E+01 0. -1.
</event>
<event>
11    1  0.8479398E-009  0.1285580E+03  0.7561462E-02  0.1121054E+00
         22   -1    0    0    0    0  0.00000000000E+00  0.00000000000E+00  0.15353870370E+04  0.15353870370E+04  0.00000000000E+00 0. -1.
         22   -1    0    0    0    0 -0.00000000000E+00 -0.00000000000E+00 -0.25104986052E+03  0.25104986052E+03  0.00000000000E+00 0. -1.
         24    2    1    2    0    0  0.24054100108E+02 -0.17568046182E+02 -0.21755209074E+03  0.23411388998E+03  0.81198308580E+02 0.  0.
         25    2    1    2    0    0 -0.21454741386E+02  0.16619953156E+02  0.14631371909E+03  0.19440031311E+03  0.12508896263E+03 0.  0.
        -24    2    1    2    0    0 -0.25993587219E+01  0.94809302583E+00  0.13555755482E+04  0.13579226945E+04  0.79757894773E+02 0.  0.
        -11    1    3    3    0    0 -0.29438065664E+02 -0.42177560056E+01 -0.98976259214E+02  0.10334741924E+03  0.00000000000E+00 0.  1.
         12    1    3    3    0    0  0.53492165772E+02 -0.13350290177E+02 -0.11857583153E+03  0.13076647074E+03  0.00000000000E+00 0. -1.
         11    1    5    5    0    0  0.10192735062E+02  0.17958390038E+02  0.12526224827E+04  0.12527926723E+04  0.00000000000E+00 0. -1.
        -12    1    5    5    0    0 -0.12792093784E+02 -0.17010297013E+02  0.10295306553E+03  0.10513002221E+03  0.00000000000E+00 0.  1.
          5    1    4    4  501    0  0.51600492418E+02  0.94965902578E+01  0.45166733973E+02  0.69356342911E+02  0.41800000000E+01 0.  1.
         -5    1    4    4    0  501 -0.73055233803E+02  0.71233628985E+01  0.10114698512E+03  0.12504397020E+03  0.41800000000E+01 0.  1.
</event>
<event>
11    1  0.8479398E-009  0.1506977E+03  0.7561462E-02  0.1096168E+00
         22   -1    0    0    0    0  0.00000000000E+00  0.00000000000E+00  0.33952244266E+03  0.33952244266E+03  0.00000000000E+00 0. -1.
         22   -1    0    0    0    0 -0.00000000000E+00 -0.00000000000E+00 -0.30055110793E+04  0.30055110793E+04  0.00000000000E+00 0.  1.
        -24    2    1    2    0    0 -0.18782833637E+02 -0.47338875884E+02 -0.21076417120E+04  0.21099374248E+04  0.84193743310E+02 0.  0.
         25    2    1    2    0    0  0.56113434283E+02 -0.28395045479E+02 -0.88091341843E+03  0.89196962751E+03  0.12508544880E+03 0.  0.
         24    2    1    2    0    0 -0.37330600646E+02  0.75733921363E+02  0.32256649381E+03  0.34312646963E+03  0.80977963925E+02 0.  0.
        -11    1    5    5    0    0 -0.12225914909E+02 -0.11552396273E+02  0.15371850939E+02  0.22786501624E+02  0.00000000000E+00 0.  1.
         12    1    5    5    0    0 -0.25104685737E+02  0.87286317636E+02  0.30719464287E+03  0.32033996800E+03  0.00000000000E+00 0. -1.
         11    1    3    3    0    0  0.60353809136E+01 -0.51365360783E+02 -0.64192177611E+03  0.64400185773E+03  0.00000000000E+00 0. -1.
        -12    1    3    3    0    0 -0.24818214551E+02  0.40264848988E+01 -0.14657199359E+04  0.14659355671E+04  0.00000000000E+00 0.  1.
          5    1    4    4  501    0 -0.30890153411E+02 -0.57336377797E+01 -0.80546002271E+02  0.86557536135E+02  0.41800000000E+01 0. -1.
         -5    1    4    4    0  501  0.87003587693E+02 -0.22661407699E+02 -0.80036741616E+03  0.80541209137E+03  0.41800000000E+01 0. -1.
</event>
<event>
11    1  0.8479398E-009  0.1494547E+03  0.7561462E-02  0.1097437E+00
         22   -1    0    0    0    0  0.00000000000E+00  0.00000000000E+00  0.13795081969E+03  0.13795081969E+03  0.00000000000E+00 0.  1.
         22   -1    0    0    0    0 -0.00000000000E+00 -0.00000000000E+00 -0.68491233950E+03  0.68491233950E+03  0.00000000000E+00 0.  1.
         24    2    1    2    0    0 -0.77873522150E+02  0.48857073699E+01 -0.48539116128E+03  0.49775398200E+03  0.77886401583E+02 0.  0.
         25    2    1    2    0    0  0.10489112360E+03 -0.38692612008E+01 -0.13713421076E+03  0.21323819273E+03  0.12509043163E+03 0.  0.
        -24    2    1    2    0    0 -0.27017601447E+02 -0.10164461690E+01  0.75563852226E+02  0.11187098447E+03  0.77937394438E+02 0.  0.
        -11    1    3    3    0    0 -0.66897323517E+02  0.33872297486E+01 -0.17835954036E+03  0.19052257309E+03  0.00000000000E+00 0.  1.
         12    1    3    3    0    0 -0.10976198633E+02  0.14984776213E+01 -0.30703162092E+03  0.30723140890E+03  0.00000000000E+00 0. -1.
         13    1    5    5    0    0 -0.34632375822E+02 -0.18944698044E+02  0.63677897373E+01  0.39985644738E+02  0.00000000000E+00 0. -1.
        -14    1    5    5    0    0  0.76147743743E+01  0.17928251875E+02  0.69196062489E+02  0.71885339729E+02  0.00000000000E+00 0.  1.
          5    1    4    4  501    0  0.79033649612E+01 -0.46029648934E+02 -0.10231435285E+02  0.47993191462E+02  0.41800000000E+01 0. -1.
         -5    1    4    4    0  501  0.96987758636E+02  0.42160387733E+02 -0.12690277548E+03  0.16524500127E+03  0.41800000000E+01 0. -1.
</event>
<event>
11    1  0.8479398E-009  0.1374059E+03  0.7561462E-02  0.1110490E+00
         22   -1    0    0    0    0  0.00000000000E+00  0.00000000000E+00  0.10489102661E+04  0.10489102661E+04  0.00000000000E+00 0. -1.
         22   -1    0    0    0    0 -0.00000000000E+00 -0.00000000000E+00 -0.28126784103E+03  0.28126784103E+03  0.00000000000E+00 0. -1.
        -24    2    1    2    0    0 -0.42791703167E+02 -0.35186554563E+02 -0.23106350130E+03  0.25117736971E+03  0.81427918683E+02 0.  0.
         25    2    1    2    0    0  0.32947345813E+02  0.83758788253E+02  0.12020411212E+03  0.19544343950E+03  0.12509215510E+03 0.  0.
         24    2    1    2    0    0  0.98443573543E+01 -0.48572233690E+02  0.87850181422E+03  0.88355729789E+03  0.80323644158E+02 0.  0.
        -13    1    5    5    0    0 -0.14100304274E+02  0.18437538920E+02  0.22217786781E+03  0.22338703268E+03  0.00000000000E+00 0.  1.
         14    1    5    5    0    0  0.23944661628E+02 -0.67009772611E+02  0.65632394641E+03  0.66017026522E+03  0.00000000000E+00 0. -1.
         11    1    3    3    0    0 -0.28164263211E+02 -0.33539782725E+02 -0.23231231851E+03  0.23640464479E+03  0.00000000000E+00 0. -1.
        -12    1    3    3    0    0 -0.14627439956E+02 -0.16467718371E+01  0.12488172110E+01  0.14772724921E+02  0.00000000000E+00 0.  1.
          5    1    4    4  501    0 -0.93397626532E+01  0.31511942413E+02 -0.20843636095E+02  0.39142856905E+02  0.41800000000E+01 0.  1.
         -5    1    4    4    0  501  0.42287108466E+02  0.52246845840E+02  0.14104774821E+03  0.15630058259E+03  0.41800000000E+01 0.  1.
</event>
<event>
11    1  0.8479398E-009  0.1475277E+03  0.7561462E-02  0.1099432E+00
         22   -1    0    0    0    0  0.00000000000E+00  0.00000000000E+00  0.82808593639E+03  0.82808593639E+03  0.00000000000E+00 0.  1.
         22   -1    0    0    0    0 -0.00000000000E+00 -0.00000000000E+00 -0.44745844436E+03  0.44745844436E+03  0.00000000000E+00 0. -1.
         24    2    1    2    0    0 -0.68021921789E+02  0.37844798235E+02 -0.40536462581E+03  0.42036787579E+03  0.79557906875E+02 0.  0.
         25    2    1    2    0    0  0.88797246910E+02 -0.20085142441E+02  0.15658783906E+03  0.22012599659E+03  0.12508932420E+03 0.  0.
        -24    2    1    2    0    0 -0.20775325120E+02 -0.17759655794E+02  0.62940427877E+03  0.63505050836E+03  0.79952376603E+02 0.  0.
        -13    1    3    3    0    0  0.16202284247E+02  0.10914282196E+02 -0.40842872257E+02  0.45274449582E+02  0.00000000000E+00 0.  1.
         14    1    3    3    0    0 -0.84224206037E+02  0.26930516039E+02 -0.36452175355E+03  0.37509342621E+03  0.00000000000E+00 0. -1.
         11    1    5    5    0    0 -0.14715926085E+02 -0.49694024044E+02  0.36730126441E+03  0.37093971659E+03  0.00000000000E+00 0. -1.
        -12    1    5    5    0    0 -0.60593990351E+01  0.31934368250E+02  0.26210301436E+03  0.26411079177E+03  0.00000000000E+00 0.  1.
          5    1    4    4  501    0  0.39480220365E+02 -0.21233709259E+02 -0.10184890134E+02  0.46160184098E+02  0.41800000000E+01 0.  1.
         -5    1    4    4    0  501  0.49317026545E+02  0.11485668176E+01  0.16677272920E+03  0.17396581250E+03  0.41800000000E+01 0.  1.
</event>
<event>
11    1  0.8479398E-009  0.2089326E+03  0.7561462E-02  0.1048381E+00
         22   -1    0    0    0    0  0.00000000000E+00  0.00000000000E+00  0.10871412389E+03  0.10871412389E+03  0.00000000000E+00 0.  1.
         22   -1    0    0    0    0 -0.00000000000E+00 -0.00000000000E+00 -0.13064722470E+04  0.13064722470E+04  0.00000000000E+00 0. -1.
         24    2    1    2    0    0  0.86536795778E+02  0.13831541198E+03 -0.94682557087E+03  0.96438033704E+03  0.83252643114E+02 0.  0.
         25    2    1    2    0    0 -0.44356450052E+02 -0.19292564177E+03 -0.25476227717E+03  0.34603691306E+03  0.12509967792E+03 0.  0.
        -24    2    1    2    0    0 -0.42180345726E+02  0.54610229795E+02  0.38297249728E+01  0.10476912077E+03  0.78742892436E+02 0.  0.
        -13    1    3    3    0    0  0.35882290642E+02  0.16377318479E+02 -0.39556993722E+03  0.39753154664E+03  0.00000000000E+00 0.  1.
         14    1    3    3    0    0  0.50654505136E+02  0.12193809350E+03 -0.55125563366E+03  0.56684879040E+03  0.00000000000E+00 0. -1.
         11    1    5    5    0    0  0.14415428816E+02  0.12071417754E+02 -0.22419186288E+02  0.29259932132E+02  0.00000000000E+00 0. -1.
        -12    1    5    5    0    0 -0.56595774543E+02  0.42538812041E+02  0.26248911261E+02  0.75509188635E+02  0.00000000000E+00 0.  1.
          5    1    4    4  501    0  0.34871955246E+02 -0.73559691363E+02 -0.48454096769E+02  0.94828019856E+02  0.41800000000E+01 0. -1.
         -5    1    4    4    0  501 -0.79228405297E+02 -0.11936595041E+03 -0.20630818040E+03  0.25120889320E+03  0.41800000000E+01 0. -1.
</event>
<event>
11    1  0.8479398E-009  0.1346945E+03  0.7561462E-02  0.1113632E+00
         22   -1    0    0    0    0  0.00000000000E+00  0.00000000000E+00  0.42334765059E+03  0.42334765059E+03  0.00000000000E+00 0. -1.
         22   -1    0    0    0    0 -0.00000000000E+00 -0.00000000000E+00 -0.91899894487E+03  0.91899894487E+03  0.00000000000E+00 0.  1.
        -24    2    1    2    0    0 -0.45219815481E+02 -0.21660191406E+02 -0.78457867129E+03  0.79048407647E+03  0.82385606176E+02 0.  0.
         25    2    1    2    0    0  0.34036630495E+02  0.38902059141E+02 -0.90769944619E+02  0.16296389353E+03  0.12508471260E+03 0.  0.
         24    2    1    2    0    0  0.11183184986E+02 -0.17241867735E+02  0.37969732163E+03  0.38889862546E+03  0.81545933093E+02 0.  0.
        -13    1    5    5    0    0  0.28339409340E+02  0.24531242378E+02  0.13695688918E+03  0.14199328670E+03  0.00000000000E+00 0.  1.
         14    1    5    5    0    0 -0.17156224354E+02 -0.41773110113E+02  0.24274043245E+03  0.24690533876E+03  0.00000000000E+00 0. -1.
         11    1    3    3    0    0  0.23047497011E+02 -0.15464193423E+02 -0.20724614071E+03  0.20909636830E+03  0.00000000000E+00 0. -1.
        -12    1    3    3    0    0 -0.68267312492E+02 -0.61959979829E+01 -0.57733253057E+03  0.58138770816E+03  0.00000000000E+00 0.  1.
          5    1    4    4  501    0 -0.38512505394E+02  0.50389762703E+01 -0.69971570878E+02  0.80137990272E+02  0.41800000000E+01 0.  1.
         -5    1    4    4    0  501  0.72549135889E+02  0.33863082871E+02 -0.20798373741E+02  0.82825903255E+02  0.41800000000E+01 0.  1.
</event>
<event>
11    1  0.8479398E-009  0.2469639E+03  0.7561462E-02  0.1025529E+00
         22   -1    0    0    0    0  0.00000000000E+00  0.00000000000E+00  0.26620333388E+03  0.26620333388E+03  0.00000000000E+00 0. -1.
         22   -1    0    0    0    0 -0.00000000000E+00 -0.00000000000E+00 -0.87980739153E+03  0.87980739153E+03  0.00000000000E+00 0.  1.
         24    2    1    2    0    0  0.46305804662E+02 -0.59444220435E+01 -0.44288967278E+03  0.45241588809E+03  0.79682556709E+02 0.  0.
         25    2    1    2    0    0  0.49123302678E+02  0.19856484852E+03 -0.33362345380E+03  0.41084491046E+03  0.12509130103E+03 0.  0.
        -24    2    1    2    0    0 -0.95429107340E+02 -0.19262042647E+03  0.16290906894E+03  0.28274992685E+03  0.84845819980E+02 0.  0.
        -13    1    3    3    0    0 -0.15630762088E+02  0.19435316209E+02 -0.10083834858E+03  0.10387696946E+03  0.00000000000E+00 0.  1.
         14    1    3    3    0    0  0.61936566751E+02 -0.25379738253E+02 -0.34205132420E+03  0.34853891863E+03  0.00000000000E+00 0. -1.
         13    1    5    5    0    0 -0.10653748914E+03 -0.17466263890E+03  0.12614580420E+03  0.24035398465E+03  0.00000000000E+00 0. -1.
        -14    1    5    5    0    0  0.11108381798E+02 -0.17957787571E+02  0.36763264739E+02  0.42395942198E+02  0.00000000000E+00 0.  1.
          5    1    4    4  501    0  0.76467371221E+02  0.14317355723E+03 -0.16623801105E+03  0.23237571962E+03  0.41800000000E+01 0.  1.
         -5    1    4    4    0  501 -0.27344068543E+02  0.55391291288E+02 -0.16738544275E+03  0.17846919084E+03  0.41800000000E+01 0.  1.
</event>
<event>
11    1  0.8479398E-009  0.1550327E+03  0.7561462E-02  0.1091844E+00
         22   -1    0    0    0    0  0.00000000000E+00  0.00000000000E+00  0.78601697113E+03  0.78601697113E+03  0.00000000000E+00 0. -1.
         22   -1    0    0    0    0 -0.00000000000E+00 -0.00000000000E+00 -0.20085524534E+03  0.20085524534E+03  0.00000000000E+00 0.  1.
         24    2    1    2    0    0 -0.45557713226E+02 -0.69312284698E+02 -0.94843650882E+02  0.15071315391E+03  0.82700898442E+02 0.  0.
         25    2    1    2    0    0  0.10678080571E+03  0.78065871228E+02  0.38179450869E+02  0.18601733216E+03  0.12509339181E+03 0.  0.
        -24    2    1    2    0    0 -0.61223092487E+02 -0.87535865299E+01  0.64182592581E+03  0.65014173041E+03  0.83179674492E+02 0.  0.
        -11    1    3    3    0    0 -0.54518804003E+02 -0.72534699416E+02 -0.10364011238E+03  0.13774924865E+03  0.00000000000E+00 0.  1.
         12    1    3    3    0    0  0.89610907772E+01  0.32224147175E+01  0.87964615002E+01  0.12963905255E+02  0.00000000000E+00 0. -1.
         13    1    5    5    0    0 -0.81045804923E+02 -0.35160603156E+01  0.55681567107E+03  0.56269394587E+03  0.00000000000E+00 0. -1.
        -14    1    5    5    0    0  0.19822712436E+02 -0.52375262143E+01  0.85010254741E+02  0.87447784536E+02  0.00000000000E+00 0.  1.
          5    1    4    4  501    0 -0.61048912074E+01  0.42006225870E+01  0.49825282169E+02  0.50546474357E+02  0.41800000000E+01 0.  1.
         -5    1    4    4    0  501  0.11288569692E+03  0.73865248641E+02 -0.11645831300E+02  0.13547085780E+03  0.41800000000E+01 0.  1.
</event>
<event>
11    1  0.8479398E-009  0.1450841E+03  0.7561462E-02  0.1102010E+00
         22   -1    0    0    0    0  0.00000000000E+00  0.00000000000E+00  0.12752671589E+04  0.12752671589E+04  0.00000000000E+00 0. -1.
         22   -1    0    0    0    0 -0.00000000000E+00 -0.00000000000E+00 -0.39956600543E+03  0.39956600543E+03  0.00000000000E+00 0.  1.
         24    2    1    2    0    0 -0.39571917438E+02 -0.20232510569E+02 -0.37539970972E+03  0.38687081263E+03  0.82272671484E+02 0.  0.
         25    2    1    2    0    0  0.88836731262E+01  0.86209118804E+02  0.36769171411E+03  0.39793974728E+03  0.12509162253E+03 0.  0.
        -24    2    1    2    0    0  0.30688244312E+02 -0.65976608234E+02  0.88340914903E+03  0.89002260438E+03  0.80211162170E+02 0.  0.
        -11    1    3    3    0    0 -0.52345888005E+02  0.23515842641E+01 -0.33347574966E+03  0.33756732299E+03  0.00000000000E+00 0.  1.
         12    1    3    3    0    0  0.12773970567E+02 -0.22584094834E+02 -0.41923960061E+02  0.49303489640E+02  0.00000000000E+00 0. -1.
         11    1    5    5    0    0  0.27633224034E+02 -0.65341871075E+02  0.88400393309E+03  0.88684615853E+03  0.00000000000E+00 0. -1.
        -12    1    5    5    0    0  0.30550202777E+01 -0.63473715878E+00 -0.59478405409E+00  0.31764458485E+01  0.00000000000E+00 0.  1.
          5    1    4    4  501    0  0.24856837460E+02  0.90918833383E+02  0.13548555045E+03  0.16509967720E+03  0.41800000000E+01 0.  1.
         -5    1    4    4    0  501 -0.15973164334E+02 -0.47097145797E+01  0.23220616366E+03  0.23284007008E+03  0.41800000000E+01 0.  1.
</event>
<event>
11    1  0.8479398E-009  0.1552466E+03  0.7561462E-02  0.1091635E+00
         22   -1    0    0    0    0  0.00000000000E+00  0.00000000000E+00  0.12713494046E+04  0.12713494046E+04  0.00000000000E+00 0.  1.
         22   -1    0    0    0    0 -0.00000000000E+00 -0.00000000000E+00 -0.14494983752E+03  0.14494983752E+03  0.00000000000E+00 0.  1.
         24    2    1    2    0    0  0.96794663593E+02  0.14129490632E+02 -0.10115483400E+02  0.12717660672E+03  0.80639425142E+02 0.  0.
         25    2    1    2    0    0 -0.78311617918E+02  0.75304167286E+02  0.21094492602E+02  0.16702065736E+03  0.12508994865E+03 0.  0.
        -24    2    1    2    0    0 -0.18483045675E+02 -0.89433657918E+02  0.11154205578E+04  0.11221019780E+04  0.81300836739E+02 0.  0.
        -11    1    3    3    0    0  0.10340459068E+03  0.12488578978E+02 -0.28154996053E+02  0.10789428985E+03  0.00000000000E+00 0.  1.
         12    1    3    3    0    0 -0.66099270905E+01  0.16409116536E+01  0.18039512653E+02  0.19282316872E+02  0.00000000000E+00 0. -1.
         11    1    5    5    0    0  0.23664335321E+02 -0.53394402572E+00  0.19122406370E+03  0.19268349281E+03  0.00000000000E+00 0. -1.
        -12    1    5    5    0    0 -0.42147380997E+02 -0.88899713893E+02  0.92419649413E+03  0.92941848519E+03  0.00000000000E+00 0.  1.
          5    1    4    4  501    0 -0.10309170915E+03  0.74653687920E+02 -0.91648610317E+01  0.12768140308E+03  0.41800000000E+01 0. -1.
         -5    1    4    4    0  501  0.24780091227E+02  0.65047936659E+00  0.30259353634E+02  0.39339254276E+02  0.41800000000E+01 0. -1.
</event>
<event>
11    1  0.8479398E-009  0.1639348E+03  0.7561462E-02  0.1083434E+00
         22   -1    0    0    0    0  0.00000000000E+00  0.00000000000E+00  0.21759504658E+04  0.21759504658E+04  0.00000000000E+00 0. -1.
         22   -1    0    0    0    0 -0.00000000000E+00 -0.00000000000E+00 -0.82177548795E+03  0.82177548795E+03  0.00000000000E+00 0.  1.
         24    2    1    2    0    0  0.46909601284E+02 -0.36272314989E+02 -0.80607008398E+03  0.81229060090E+03  0.80937312131E+02 0.  0.
         25    2    1    2    0    0  0.49662625869E+02 -0.36447447288E+02  0.50639047152E+03  0.52523679047E+03  0.12509030178E+03 0.  0.
        -24    2    1    2    0    0 -0.96572227153E+02  0.72719762277E+02  0.16538545903E+04  0.16601985624E+04  0.80061861705E+02 0.  0.
        -13    1    3    3    0    0  0.65050032978E+02 -0.28248599177E+02 -0.73770544921E+03  0.74110648354E+03  0.00000000000E+00 0.  1.
         14    1    3    3    0    0 -0.18140431694E+02 -0.80237158120E+01 -0.68364634768E+02  0.71184117361E+02  0.00000000000E+00 0. -1.
         13    1    5    5    0    0 -0.80482593366E+02  0.18695512200E+02  0.12029328319E+04  0.12057671285E+04  0.00000000000E+00 0. -1.
        -14    1    5    5    0    0 -0.16089633787E+02  0.54024250077E+02  0.45092175844E+03  0.45443143393E+03  0.00000000000E+00 0.  1.
          5    1    4    4  501    0  0.38772999605E+02  0.39538020866E+02  0.13505311262E+03  0.14602539581E+03  0.41800000000E+01 0.  1.
         -5    1    4    4    0  501  0.10889626265E+02 -0.75985468154E+02  0.37133735890E+03  0.37921139467E+03  0.41800000000E+01 0.  1.
</event>
<event>
11    1  0.8479398E-009  0.1419625E+03  0.7561462E-02  0.1105387E+00
         22   -1    0    0    0    0  0.00000000000E+00  0.00000000000E+00  0.25024143508E+03  0.25024143508E+03  0.00000000000E+00 0.  1.
         22   -1    0    0    0    0 -0.00000000000E+00 -0.00000000000E+00 -0.47062847324E+03  0.47062847324E+03  0.00000000000E+00 0.  1.
         24    2    1    2    0    0 -0.45457526917E+02  0.50374724202E+02 -0.41043518239E+03  0.42387052922E+03  0.81272301570E+02 0.  0.
         25    2    1    2    0    0  0.21768258316E+02 -0.52752105321E+02  0.82557294302E+02  0.16037595913E+03  0.12509236482E+03 0.  0.
        -24    2    1    2    0    0  0.23689268601E+02  0.23773811184E+01  0.10749084993E+03  0.13662341998E+03  0.80900201980E+02 0.  0.
        -11    1    3    3    0    0 -0.24473585691E+02  0.71716828136E+02 -0.28326450778E+03  0.29322523971E+03  0.00000000000E+00 0.  1.
         12    1    3    3    0    0 -0.20983941226E+02 -0.21342103933E+02 -0.12717067461E+03  0.13064528951E+03  0.00000000000E+00 0. -1.
         11    1    5    5    0    0  0.16162538157E+02  0.26168770050E+02  0.50281620338E+01  0.31165920154E+02  0.00000000000E+00 0. -1.
        -12    1    5    5    0    0  0.75267304443E+01 -0.23791388932E+02  0.10246268790E+03  0.10545749983E+03  0.00000000000E+00 0.  1.
          5    1    4    4  501    0 -0.45647181697E+02 -0.27564314700E+02  0.38220787923E+01  0.53624036849E+02  0.41800000000E+01 0. -1.
         -5    1    4    4    0  501  0.67415440013E+02 -0.25187790621E+02  0.78735215510E+02  0.10675192228E+03  0.41800000000E+01 0. -1.
</event>
<event>
11    1  0.8479398E-009  0.1780554E+03  0.7561462E-02  0.1071227E+00
         22   -1    0    0    0    0  0.00000000000E+00  0.00000000000E+00  0.12800945176E+04  0.12800945176E+04  0.00000000000E+00 0.  1.
         22   -1    0    0    0    0 -0.00000000000E+00 -0.00000000000E+00 -0.18904300613E+03  0.18904300613E+03  0.00000000000E+00 0.  1.
        -24    2    1    2    0    0  0.14144051394E+02  0.12521211128E+03 -0.11323165200E+03  0.18773605465E+03  0.80902980152E+02 0.  0.
         25    2    1    2    0    0  0.28861694240E+02 -0.13423804811E+03  0.20014928212E+03  0.27305762176E+03  0.12509148139E+03 0.  0.
         24    2    1    2    0    0 -0.43005745634E+02  0.90259368229E+01  0.10041338813E+04  0.10083438473E+04  0.80879546666E+02 0.  0.
        -13    1    5    5    0    0 -0.16573422754E+02  0.44625449239E+02  0.54365732841E+03  0.54573748249E+03  0.00000000000E+00 0.  1.
         14    1    5    5    0    0 -0.26432322879E+02 -0.35599512416E+02  0.46047655294E+03  0.46260636483E+03  0.00000000000E+00 0. -1.
         13    1    3    3    0    0  0.16382657989E+02  0.13628389789E+02 -0.60801938506E+02  0.64428256356E+02  0.00000000000E+00 0. -1.
        -14    1    3    3    0    0 -0.22386065951E+01  0.11158372149E+03 -0.52429713495E+02  0.12330779829E+03  0.00000000000E+00 0.  1.
          5    1    4    4  501    0  0.20397654704E+02  0.92766871546E+01  0.87351054739E+02  0.90276244970E+02  0.41800000000E+01 0.  1.
         -5    1    4    4    0  501  0.84640395355E+01 -0.14351473526E+03  0.11279822738E+03  0.18278137679E+03  0.41800000000E+01 0.  1.
</event>
<event>
11    1  0.8479398E-009  0.1466382E+03  0.7561462E-02  0.1100364E+00
         22   -1    0    0    0    0  0.00000000000E+00  0.00000000000E+00  0.11411565485E+04  0.11411565485E+04  0.00000000000E+00 0. -1.
         22   -1    0    0    0    0 -0.00000000000E+00 -0.00000000000E+00 -0.42851676303E+03  0.42851676303E+03  0.00000000000E+00 0.  1.
         24    2    1    2    0    0 -0.22001892593E+01  0.73199773483E+02 -0.40334238116E+03  0.41767753739E+03  0.80039997062E+02 0.  0.
         25    2    1    2    0    0 -0.60186686957E+02 -0.91154094631E+01  0.34958748305E+03  0.37625261224E+03  0.12509633062E+03 0.  0.
        -24    2    1    2    0    0  0.62386876217E+02 -0.64084364020E+02  0.76639468360E+03  0.77574316193E+03  0.80110637178E+02 0.  0.
        -13    1    3    3    0    0 -0.19210930257E+02  0.70313648995E+02 -0.38736130605E+03  0.39415967640E+03  0.00000000000E+00 0.  1.
         14    1    3    3    0    0  0.17010740998E+02  0.28861244876E+01 -0.15981075115E+02  0.23517860993E+02  0.00000000000E+00 0. -1.
         11    1    5    5    0    0  0.45906211860E+02 -0.32606803915E+02  0.68000204345E+03  0.68232936551E+03  0.00000000000E+00 0. -1.
        -12    1    5    5    0    0  0.16480664356E+02 -0.31477560104E+02  0.86392640152E+02  0.93413796412E+02  0.00000000000E+00 0.  1.
          5    1    4    4  501    0  0.16643209797E+02  0.42725340027E+02  0.12783538212E+03  0.13587423757E+03  0.41800000000E+01 0. -1.
         -5    1    4    4    0  501 -0.76829896754E+02 -0.51840749490E+02  0.22175210093E+03  0.24037837467E+03  0.41800000000E+01 0. -1.
</event>
<event>
11    1  0.8479398E-009  0.1759718E+03  0.7561462E-02  0.1072949E+00
         22   -1    0    0    0    0  0.00000000000E+00  0.00000000000E+00  0.53430108970E+03  0.53430108970E+03  0.00000000000E+00 0.  1.
         22   -1    0    0    0    0 -0.00000000000E+00 -0.00000000000E+00 -0.50471451143E+03  0.50471451143E+03  0.00000000000E+00 0.  1.
        -24    2    1    2    0    0  0.32547938772E+02 -0.29137930248E+02 -0.38768733223E+03  0.39825523525E+03  0.79983607944E+02 0.  0.
         25    2    1    2    0    0 -0.12408755782E+03  0.10546800290E+03  0.53696264727E+01  0.20542174189E+03  0.12509211610E+03 0.  0.
         24    2    1    2    0    0  0.91539619053E+02 -0.76330072653E+02  0.41190428402E+03  0.43533862398E+03  0.75158475833E+02 0.  0.
        -11    1    5    5    0    0  0.91282981097E+02 -0.88199240267E+02  0.39324188833E+03  0.41322012458E+03  0.00000000000E+00 0.  1.
         12    1    5    5    0    0  0.25663795550E+00  0.11869167614E+02  0.18662395696E+02  0.22118499407E+02  0.00000000000E+00 0. -1.
         13    1    3    3    0    0  0.34837198513E+02 -0.33941584372E+02 -0.10720513871E+03  0.11772256927E+03  0.00000000000E+00 0. -1.
        -14    1    3    3    0    0 -0.22892597410E+01  0.48036541242E+01 -0.28048219351E+03  0.28053266598E+03  0.00000000000E+00 0.  1.
          5    1    4    4  501    0 -0.36133593738E+02  0.53394704140E+02 -0.56535343609E+02  0.85850733856E+02  0.41800000000E+01 0.  1.
         -5    1    4    4    0  501 -0.87953964086E+02  0.52073298760E+02  0.61904970081E+02  0.11957100804E+03  0.41800000000E+01 0.  1.
</event>
<event>
11    1  0.8479398E-009  0.1525189E+03  0.7561462E-02  0.1094332E+00
         22   -1    0    0    0    0  0.00000000000E+00  0.00000000000E+00  0.49435974169E+03  0.49435974169E+03  0.00000000000E+00 0.  1.
         22   -1    0    0    0    0 -0.00000000000E+00 -0.00000000000E+00 -0.56920143186E+03  0.56920143186E+03  0.00000000000E+00 0.  1.
        -24    2    1    2    0    0  0.17182054016E+02  0.59828091370E+01 -0.45484477302E+03  0.46097903703E+03  0.72710989888E+02 0.  0.
         25    2    1    2    0    0 -0.68536767897E+02  0.64061012901E+02 -0.43633999091E+02  0.16233481348E+03  0.12509022289E+03 0.  0.
         24    2    1    2    0    0  0.51354713881E+02 -0.70043822038E+02  0.42363708194E+03  0.44024732305E+03  0.82497785508E+02 0.  0.
        -11    1    5    5    0    0  0.42412436052E+02 -0.37068839879E+02  0.38316029576E+03  0.38727861530E+03  0.00000000000E+00 0.  1.
         12    1    5    5    0    0  0.89422778297E+01 -0.32974982159E+02  0.40476786181E+02  0.52968707750E+02  0.00000000000E+00 0. -1.
         11    1    3    3    0    0 -0.23108836997E+02  0.67718964999E+01 -0.69920183551E+02  0.73950720059E+02  0.00000000000E+00 0. -1.
        -12    1    3    3    0    0  0.40290891013E+02 -0.78908736287E+00 -0.38492458947E+03  0.38702831697E+03  0.00000000000E+00 0.  1.
          5    1    4    4  501    0 -0.86804429323E+02  0.78976378777E+02 -0.58201013951E+01  0.11757390584E+03  0.41800000000E+01 0. -1.
         -5    1    4    4    0  501  0.18267661426E+02 -0.14915365875E+02 -0.37813897696E+02  0.44760907633E+02  0.41800000000E+01 0. -1.
</event>
<event>
11    1  0.8479398E-009  0.1383193E+03  0.7561462E-02  0.1109450E+00
         22   -1    0    0    0    0  0.00000000000E+00  0.00000000000E+00  0.12099180966E+03  0.12099180966E+03  0.00000000000E+00 0. -1.
         22   -1    0    0    0    0 -0.00000000000E+00 -0.00000000000E+00 -0.32202643527E+04  0.32202643527E+04  0.00000000000E+00 0. -1.
         24    2    1    2    0    0  0.57359549965E+02  0.17623871116E+02 -0.26476528539E+04  0.26495568239E+04  0.80529557265E+02 0.  0.
         25    2    1    2    0    0 -0.41181749464E+02 -0.35993041627E+02 -0.54740463930E+03  0.56417353219E+03  0.12509396370E+03 0.  0.
        -24    2    1    2    0    0 -0.16177800502E+02  0.18369170511E+02  0.95784950138E+02  0.12752580629E+03  0.80553876027E+02 0.  0.
        -11    1    3    3    0    0  0.37363555749E+02  0.10224794933E+02 -0.41543020239E+03  0.41723235108E+03  0.00000000000E+00 0.  1.
         12    1    3    3    0    0  0.19995994216E+02  0.73990761827E+01 -0.22322226515E+04  0.22323244728E+04  0.00000000000E+00 0. -1.
         13    1    5    5    0    0  0.73256976432E+01  0.12398590366E+02  0.10157775257E+03  0.10259352175E+03  0.00000000000E+00 0. -1.
        -14    1    5    5    0    0 -0.23503498145E+02  0.59705801449E+01 -0.57928024293E+01  0.24932284539E+02  0.00000000000E+00 0.  1.
          5    1    4    4  501    0 -0.18490723741E+02 -0.26563868014E+02 -0.24834752096E+02  0.41009550839E+02  0.41800000000E+01 0. -1.
         -5    1    4    4    0  501 -0.22691025723E+02 -0.94291736131E+01 -0.52256988721E+03  0.52316398135E+03  0.41800000000E+01 0. -1.
</event>
<event>
11    1  0.8479398E-009  0.1549101E+03  0.7561462E-02  0.1091965E+00
         22   -1    0    0    0    0  0.00000000000E+00  0.00000000000E+00  0.12662376140E+03  0.12662376140E+03  0.00000000000E+00 0.  1.
         22   -1    0    0    0    0 -0.00000000000E+00 -0.00000000000E+00 -0.18843696589E+04  0.18843696589E+04  0.00000000000E+00 0. -1.
         24    2    1    2    0    0 -0.18657001220E+02  0.18661104556E+02 -0.16679952971E+04  0.16700759810E+04  0.79051569080E+02 0.  0.
         25    2    1    2    0    0  0.28997800665E+02 -0.10543378403E+03 -0.13493639686E+03  0.21404002072E+03  0.12509254180E+03 0.  0.
        -24    2    1    2    0    0 -0.10340799445E+02  0.86772679477E+02  0.45185796443E+02  0.12687741862E+03  0.80122987456E+02 0.  0.
        -13    1    3    3    0    0  0.16304939371E+02  0.16931133505E+00 -0.82958152916E+02  0.84545460254E+02  0.00000000000E+00 0.  1.
         14    1    3    3    0    0 -0.34961940591E+02  0.18491793221E+02 -0.15850371442E+04  0.15855305207E+04  0.00000000000E+00 0. -1.
         13    1    5    5    0    0 -0.11430973497E+02  0.21340542089E+02 -0.22269916531E+02  0.32894301544E+02  0.00000000000E+00 0. -1.
        -14    1    5    5    0    0  0.10901740515E+01  0.65432137387E+02  0.67455712975E+02  0.93983117077E+02  0.00000000000E+00 0.  1.
          5    1    4    4  501    0  0.52547889716E+02 -0.85321040152E+02 -0.30198808431E+02  0.10473968225E+03  0.41800000000E+01 0. -1.
         -5    1    4    4    0  501 -0.23550089051E+02 -0.20112743881E+02 -0.10473758843E+03  0.10930033847E+03  0.41800000000E+01 0. -1.
</event>
<event>
11    1  0.8479398E-009  0.1644883E+03  0.7561462E-02  0.1082930E+00
         22   -1    0    0    0    0  0.00000000000E+00  0.00000000000E+00  0.17942249399E+03  0.17942249399E+03  0.00000000000E+00 0.  1.
         22   -1    0    0    0    0 -0.00000000000E+00 -0.00000000000E+00 -0.34802780528E+03  0.34802780528E+03  0.00000000000E+00 0. -1.
         24    2    1    2    0    0 -0.39808526818E+02  0.90226757006E+02 -0.18569312466E+03  0.22727243445E+03  0.86285783455E+02 0.  0.
         25    2    1    2    0    0  0.23285939047E+02 -0.15041236125E+03  0.12687031575E+02  0.19742005164E+03  0.12509037791E+03 0.  0.
        -24    2    1    2    0    0  0.16522587771E+02  0.60185604243E+02  0.44007818058E+01  0.10275781319E+03  0.81513792854E+02 0.  0.
        -13    1    3    3    0    0 -0.16221877612E+01  0.46461535448E+02 -0.18081486102E+02  0.49882320606E+02  0.00000000000E+00 0.  1.
         14    1    3    3    0    0 -0.38186339056E+02  0.43765221558E+02 -0.16761163856E+03  0.17739011384E+03  0.00000000000E+00 0. -1.
         11    1    5    5    0    0  0.28782767054E+02  0.27522285407E+02 -0.32920404858E+02  0.51668916471E+02  0.00000000000E+00 0. -1.
        -12    1    5    5    0    0 -0.12260179283E+02  0.32663318836E+02  0.37321186664E+02  0.51088896714E+02  0.00000000000E+00 0.  1.
          5    1    4    4  501    0  0.61802705979E+01 -0.16870587193E+03  0.22160999720E+02  0.17031866978E+03  0.41800000000E+01 0. -1.
         -5    1    4    4    0  501  0.17105668449E+02  0.18293510679E+02 -0.94739681452E+01  0.27101381855E+02  0.41800000000E+01 0. -1.
</event>
<event>
11    1  0.8479398E-009  0.1319227E+03  0.7561462E-02  0.1116929E+00
         22   -1    0    0    0    0  0.00000000000E+00  0.00000000000E+00  0.15120582310E+04  0.15120582310E+04  0.00000000000E+00 0.  1.
         22   -1    0    0    0    0 -0.00000000000E+00 -0.00000000000E+00 -0.21006620666E+03  0.21006620666E+03  0.00000000000E+00 0.  1.
         24    2    1    2    0    0  0.29709971428E+02 -0.13953864929E+02 -0.12652313542E+03  0.15374543208E+03  0.80945421985E+02 0.  0.
         25    2    1    2    0    0  0.40824281284E+01  0.39270634378E+02 -0.57105296116E+01  0.13129482918E+03  0.12508746171E+03 0.  0.
        -24    2    1    2    0    0 -0.33792399557E+02 -0.25316769449E+02  0.14342256894E+04  0.14370841764E+04  0.80154456842E+02 0.  0.
        -13    1    3    3    0    0  0.37624198279E+02 -0.41214697316E+02 -0.10184342457E+03  0.11613059330E+03  0.00000000000E+00 0.  1.
         14    1    3    3    0    0 -0.79142268510E+01  0.27260832387E+02 -0.24679710846E+02  0.37614838781E+02  0.00000000000E+00 0. -1.
         11    1    5    5    0    0  0.76952806002E+01 -0.51125319386E+00  0.13585923017E+02  0.15622292648E+02  0.00000000000E+00 0. -1.
        -12    1    5    5    0    0 -0.41487680157E+02 -0.24805516255E+02  0.14206397664E+04  0.14214618838E+04  0.00000000000E+00 0.  1.
          5    1    4    4  501    0 -0.58265041693E+01  0.80866503092E+02 -0.23915812500E+02  0.84633196565E+02  0.41800000000E+01 0.  1.
         -5    1    4    4    0  501  0.99089322977E+01 -0.41595868715E+02  0.18205282888E+02  0.46661632617E+02  0.41800000000E+01 0.  1.
</event>
<event>
11    1  0.8479398E-009  0.1658846E+03  0.7561462E-02  0.1081670E+00
         22   -1    0    0    0    0  0.00000000000E+00  0.00000000000E+00  0.85762162381E+03  0.85762162381E+03  0.00000000000E+00 0.  1.
         22   -1    0    0    0    0 -0.00000000000E+00 -0.00000000000E+00 -0.53429315644E+03  0.53429315644E+03  0.00000000000E+00 0. -1.
        -24    2    1    2    0    0  0.68983766422E+02  0.65936557901E+02 -0.33610176471E+03  0.36150827693E+03  0.92830212504E+02 0.  0.
         25    2    1    2    0    0 -0.14911435884E+03 -0.10506921182E+03 -0.11329314336E+03  0.24851032789E+03  0.12508962967E+03 0.  0.
         24    2    1    2    0    0  0.80130592415E+02  0.39132653915E+02  0.77272337544E+03  0.78189617543E+03  0.79422526799E+02 0.  0.
        -11    1    5    5    0    0  0.88452921910E+02  0.10158509222E+02  0.59789133159E+03  0.60448420914E+03  0.00000000000E+00 0.  1.
         12    1    5    5    0    0 -0.83223294945E+01  0.28974144693E+02  0.17483204384E+03  0.17741196629E+03  0.00000000000E+00 0. -1.
         13    1    3    3    0    0  0.46697902292E+02  0.35880841617E+02 -0.31082298187E+03  0.31635273815E+03  0.00000000000E+00 0. -1.
        -14    1    3    3    0    0  0.22285864130E+02  0.30055716284E+02 -0.25278782836E+02  0.45155538785E+02  0.00000000000E+00 0.  1.
          5    1    4    4  501    0 -0.83782183362E+02 -0.47505922816E+02 -0.12785662030E+03  0.16012824456E+03  0.41800000000E+01 0.  1.
         -5    1    4    4    0  501 -0.65332175474E+02 -0.57563288999E+02  0.14563476939E+02  0.88382083327E+02  0.41800000000E+01 0.  1.
</event>
<event>
11    1  0.8479398E-009  0.1371545E+03  0.7561462E-02  0.1110778E+00
         22   -1    0    0    0    0  0.00000000000E+00  0.00000000000E+00  0.12654431557E+04  0.12654431557E+04  0.00000000000E+00 0. -1.
         22   -1    0    0    0    0 -0.00000000000E+00 -0.00000000000E+00 -0.20009209450E+03  0.20009209450E+03  0.00000000000E+00 0. -1.
         24    2    1    2    0    0  0.22031551194E+02  0.52552684095E+02 -0.16203622463E+03  0.19666789721E+03  0.95788046473E+02 0.  0.
         25    2    1    2    0    0 -0.35649640740E+02 -0.34786165967E+02  0.21908139289E+03  0.25714861938E+03  0.12509109285E+03 0.  0.
        -24    2    1    2    0    0  0.13618089545E+02 -0.17766518128E+02  0.10083058930E+04  0.10117187336E+04  0.79955741916E+02 0.  0.
        -13    1    3    3    0    0  0.21749989766E+02  0.45601170188E+02 -0.19803559202E+02  0.54265179760E+02  0.00000000000E+00 0.  1.
         14    1    3    3    0    0  0.28156142825E+00  0.69515139070E+01 -0.14223266543E+03  0.14240271745E+03  0.00000000000E+00 0. -1.
         11    1    5    5    0    0 -0.26388293536E+02  0.15369263399E+02  0.31908047803E+03  0.32053846533E+03  0.00000000000E+00 0. -1.
        -12    1    5    5    0    0  0.40006383082E+02 -0.33135781527E+02  0.68922541494E+03  0.69118026831E+03  0.00000000000E+00 0.  1.
          5    1    4    4  501    0 -0.19486244440E+02 -0.80086932625E+02  0.16607539192E+03  0.18545117606E+03  0.41800000000E+01 0.  1.
         -5    1    4    4    0  501 -0.16163396300E+02  0.45300766658E+02  0.53006000968E+02  0.71697443318E+02  0.41800000000E+01 0.  1.
</event>
<event>
11    1  0.8479398E-009  0.1332266E+03  0.7561462E-02  0.1115367E+00
         22   -1    0    0    0    0  0.00000000000E+00  0.00000000000E+00  0.58287196476E+03  0.58287196476E+03  0.00000000000E+00 0. -1.
         22   -1    0    0    0    0 -0.00000000000E+00 -0.00000000000E+00 -0.15822968607E+04  0.15822968607E+04  0.00000000000E+00 0. -1.
        -24    2    1    2    0    0  0.56286338713E+00  0.16809914034E+02 -0.15424746441E+04  0.15444726558E+04  0.76712885927E+02 0.  0.
         25    2    1    2    0    0  0.34964835984E+02 -0.43776515892E+02  0.10378715996E+03  0.17193110048E+03  0.12509838385E+03 0.  0.
         24    2    1    2    0    0 -0.35527699371E+02  0.26966601858E+02  0.43926258824E+03  0.44876506911E+03  0.80305982249E+02 0.  0.
        -11    1    5    5    0    0 -0.58304814635E+02  0.20790094001E+02  0.23029199586E+03  0.23846610403E+03  0.00000000000E+00 0.  1.
         12    1    5    5    0    0  0.22777115265E+02  0.61765078568E+01  0.20897059239E+03  0.21029896507E+03  0.00000000000E+00 0. -1.
         13    1    3    3    0    0  0.23731028956E+02 -0.40265960315E+01 -0.12690501627E+04  0.12692784133E+04  0.00000000000E+00 0. -1.
        -14    1    3    3    0    0 -0.23168165569E+02  0.20836510066E+02 -0.27342448143E+03  0.27519424248E+03  0.00000000000E+00 0.  1.
          5    1    4    4  501    0 -0.15646943552E+02  0.37710420292E+02  0.29967904461E+02  0.50817815172E+02  0.41800000000E+01 0. -1.
         -5    1    4    4    0  501  0.50611779535E+02 -0.81486936184E+02  0.73819255498E+02  0.12111328531E+03  0.41800000000E+01 0. -1.
</event>
<event>
11    1  0.8479398E-009  0.1736370E+03  0.7561462E-02  0.1074909E+00
         22   -1    0    0    0    0  0.00000000000E+00  0.00000000000E+00  0.16463156701E+04  0.16463156701E+04  0.00000000000E+00 0. -1.
         22   -1    0    0    0    0 -0.00000000000E+00 -0.00000000000E+00 -0.81472763049E+02  0.81472763049E+02  0.00000000000E+00 0.  1.
         24    2    1    2    0    0  0.99462905145E+01  0.11297312787E+03  0.40530257798E+02  0.14459058207E+03  0.80011738585E+02 0.  0.
         25    2    1    2    0    0  0.81043459997E+01 -0.14666475785E+03  0.30655850622E+03  0.36221695326E+03  0.12508705720E+03 0.  0.
        -24    2    1    2    0    0 -0.18050636514E+02  0.33691629983E+02  0.12177541430E+04  0.12209808978E+04  0.80051536664E+02 0.  0.
        -13    1    3    3    0    0  0.17629468438E+02  0.12405214310E+03  0.36006787501E+02  0.13036955592E+03  0.00000000000E+00 0.  1.
         14    1    3    3    0    0 -0.76831779236E+01 -0.11079015226E+02  0.45234702966E+01  0.14221026155E+02  0.00000000000E+00 0. -1.
         11    1    5    5    0    0 -0.35995004336E+02  0.40950405124E+02  0.11201359314E+04  0.11214620283E+04  0.00000000000E+00 0. -1.
        -12    1    5    5    0    0  0.17944367821E+02 -0.72587751417E+01  0.97618211636E+02  0.99518869548E+02  0.00000000000E+00 0.  1.
          5    1    4    4  501    0  0.24260386528E+02 -0.78119790894E+02  0.27121190168E+03  0.28331014118E+03  0.41800000000E+01 0.  1.
         -5    1    4    4    0  501 -0.16156040528E+02 -0.68544966959E+02  0.35346604538E+02  0.78906812085E+02  0.41800000000E+01 0.  1.
</event>
<event>
11    1  0.8479398E-009  0.1412801E+03  0.7561462E-02  0.1106137E+00
         22   -1    0    0    0    0  0.00000000000E+00  0.00000000000E+00  0.89583140529E+03  0.89583140529E+03  0.00000000000E+00 0. -1.
         22   -1    0    0    0    0 -0.00000000000E+00 -0.00000000000E+00 -0.26542906692E+03  0.26542906692E+03  0.00000000000E+00 0.  1.
         24    2    1    2    0    0  0.31595157568E+02 -0.26442732565E+02 -0.23265925542E+03  0.24984728828E+03  0.81214938537E+02 0.  0.
         25    2    1    2    0    0 -0.90840452925E+02  0.30870612687E+02  0.29457032565E+03  0.33410353176E+03  0.12509400690E+03 0.  0.
        -24    2    1    2    0    0  0.59245295357E+02 -0.44278801222E+01  0.56849126814E+03  0.57730965216E+03  0.81083299027E+02 0.  0.
        -11    1    3    3    0    0 -0.82456693019E+01 -0.50525594500E+01 -0.18073143738E+03  0.18098997728E+03  0.00000000000E+00 0.  1.
         12    1    3    3    0    0  0.39840826870E+02 -0.21390173115E+02 -0.51927818040E+02  0.68857310999E+02  0.00000000000E+00 0. -1.
         11    1    5    5    0    0  0.44245002718E+02  0.23526213142E+02  0.49136469743E+03  0.49391332119E+03  0.00000000000E+00 0. -1.
        -12    1    5    5    0    0  0.15000292639E+02 -0.27954093264E+02  0.77126570717E+02  0.83396330975E+02  0.00000000000E+00 0.  1.
          5    1    4    4  501    0 -0.62569287866E+02  0.64251376188E+02  0.26826166963E+03  0.28288681645E+03  0.41800000000E+01 0.  1.
         -5    1    4    4    0  501 -0.28271165059E+02 -0.33380763501E+02  0.26308656023E+02  0.51216715313E+02  0.41800000000E+01 0.  1.
</event>
<event>
11    1  0.8479398E-009  0.1322207E+03  0.7561462E-02  0.1116570E+00
         22   -1    0    0    0    0  0.00000000000E+00  0.00000000000E+00  0.34615260617E+03  0.34615260617E+03  0.00000000000E+00 0. -1.
         22   -1    0    0    0    0 -0.00000000000E+00 -0.00000000000E+00 -0.45871817399E+03  0.45871817399E+03  0.00000000000E+00 0.  1.
        -24    2    1    2    0    0 -0.30491169320E+02 -0.30605609685E+02 -0.41562515911E+03  0.42548144186E+03  0.80148423128E+02 0.  0.
         25    2    1    2    0    0 -0.25763008740E+02  0.14306301602E+02  0.17307495782E+03  0.21557258446E+03  0.12509274662E+03 0.  0.
         24    2    1    2    0    0  0.56254178060E+02  0.16299308083E+02  0.12998463347E+03  0.16381675385E+03  0.80682860074E+02 0.  0.
        -11    1    5    5    0    0  0.58489920800E+02  0.23577618555E+02  0.42605520221E+02  0.76106539044E+02  0.00000000000E+00 0.  1.
         12    1    5    5    0    0 -0.22357427402E+01 -0.72783104721E+01  0.87379113246E+02  0.87710214802E+02  0.00000000000E+00 0. -1.
         11    1    3    3    0    0  0.13883505187E+02  0.98427117967E+00 -0.12545349594E+02  0.18737830784E+02  0.00000000000E+00 0. -1.
        -12    1    3    3    0    0 -0.44374674507E+02 -0.31589880865E+02 -0.40307980952E+03  0.40674361108E+03  0.00000000000E+00 0.  1.
          5    1    4    4  501    0  0.47940633731E+02  0.20246480743E+02  0.52300640909E+02  0.73898943054E+02  0.41800000000E+01 0.  1.
         -5    1    4    4    0  501 -0.73703642471E+02 -0.59401791411E+01  0.12077431692E+03  0.14167364140E+03  0.41800000000E+01 0.  1.
</event>
<event>
11    1  0.8479398E-009  0.2299155E+03  0.7561462E-02  0.1035178E+00
         22   -1    0    0    0    0  0.00000000000E+00  0.00000000000E+00  0.22876534162E+03  0.22876534162E+03  0.00000000000E+00 0. -1.
         22   -1    0    0    0    0 -0.00000000000E+00 -0.00000000000E+00 -0.89282960408E+03  0.89282960408E+03  0.00000000000E+00 0.  1.
        -24    2    1    2    0    0  0.35246396305E+01 -0.18528195365E+02 -0.63708096486E+03  0.64231204372E+03  0.79604576600E+02 0.  0.
         25    2    1    2    0    0 -0.16810445698E+03  0.11233813073E+03 -0.10462418574E+03  0.25975403114E+03  0.12508785865E+03 0.  0.
         24    2    1    2    0    0  0.16457981735E+03 -0.93809935360E+02  0.77640888147E+02  0.21952887083E+03  0.79233814510E+02 0.  0.
        -13    1    5    5    0    0  0.12929202890E+03 -0.83741944262E+02  0.26067519155E+02  0.15623270311E+03  0.00000000000E+00 0.  1.
         14    1    5    5    0    0  0.35287788457E+02 -0.10067991099E+02  0.51573368992E+02  0.63296167721E+02  0.00000000000E+00 0. -1.
         13    1    3    3    0    0  0.22687205649E+02  0.18988125861E+02 -0.12300161462E+03  0.12650950725E+03  0.00000000000E+00 0. -1.
        -14    1    3    3    0    0 -0.19162566019E+02 -0.37516321225E+02 -0.51407935024E+03  0.51580253648E+03  0.00000000000E+00 0.  1.
          5    1    4    4  501    0 -0.18448739454E+03  0.82476259133E+02 -0.79393124358E+02  0.21716047674E+03  0.41800000000E+01 0.  1.
         -5    1    4    4    0  501  0.16382937554E+02  0.29861871593E+02 -0.25231061386E+02  0.42593554402E+02  0.41800000000E+01 0.  1.
</event>
<event>
11    1  0.8479398E-009  0.2004053E+03  0.7561462E-02  0.1054237E+00
         22   -1    0    0    0    0  0.00000000000E+00  0.00000000000E+00  0.14083353382E+04  0.14083353382E+04  0.00000000000E+00 0.  1.
         22   -1    0    0    0    0 -0.00000000000E+00 -0.00000000000E+00 -0.64777148785E+03  0.64777148785E+03  0.00000000000E+00 0. -1.
        -24    2    1    2    0    0 -0.36176083101E+02 -0.73892514706E+02 -0.53497598123E+03  0.54730371753E+03  0.81075557382E+02 0.  0.
         25    2    1    2    0    0 -0.12025983325E+03  0.95760209502E+02 -0.30196286998E+01  0.19821234365E+03  0.12508624944E+03 0.  0.
         24    2    1    2    0    0  0.15643591635E+03 -0.21867694796E+02  0.12985594603E+04  0.13105907649E+04  0.80256395844E+02 0.  0.
        -11    1    5    5    0    0  0.13859716372E+03  0.54787734728E+01  0.89171592954E+03  0.90243918895E+03  0.00000000000E+00 0.  1.
         12    1    5    5    0    0  0.17838752629E+02 -0.27346468269E+02  0.40684353076E+03  0.40815157594E+03  0.00000000000E+00 0. -1.
         13    1    3    3    0    0 -0.40063254015E+02 -0.59307693832E+02 -0.52342897086E+03  0.52829949310E+03  0.00000000000E+00 0. -1.
        -14    1    3    3    0    0  0.38871709149E+01 -0.14584820874E+02 -0.11547010371E+02  0.19004224429E+02  0.00000000000E+00 0.  1.
          5    1    4    4  501    0 -0.92417318541E+02  0.11904787372E+03  0.24137728185E+02  0.15268745635E+03  0.41800000000E+01 0.  1.
         -5    1    4    4    0  501 -0.27842514713E+02 -0.23287664221E+02 -0.27157356885E+02  0.45524887297E+02  0.41800000000E+01 0.  1.
</event>
<event>
11    1  0.8479398E-009  0.1497143E+03  0.7561462E-02  0.1097171E+00
         22   -1    0    0    0    0  0.00000000000E+00  0.00000000000E+00  0.71065749378E+03  0.71065749378E+03  0.00000000000E+00 0.  1.
         22   -1    0    0    0    0 -0.00000000000E+00 -0.00000000000E+00 -0.24877433696E+03  0.24877433696E+03  0.00000000000E+00 0. -1.
        -24    2    1    2    0    0 -0.68939477917E+02  0.45441126868E+02 -0.19916133644E+03  0.22989118894E+03  0.79794568704E+02 0.  0.
         25    2    1    2    0    0  0.10348797791E+03  0.19861170350E+02  0.21348180829E+03  0.26893514038E+03  0.12508956632E+03 0.  0.
         24    2    1    2    0    0 -0.34548499994E+02 -0.65302297218E+02  0.44756268496E+03  0.46060550142E+03  0.79919222285E+02 0.  0.
        -11    1    5    5    0    0 -0.17596657982E+02 -0.61212065975E+02  0.15571222067E+03  0.16823452398E+03  0.00000000000E+00 0.  1.
         12    1    5    5    0    0 -0.16951842013E+02 -0.40902312430E+01  0.29185046429E+03  0.29237097743E+03  0.00000000000E+00 0. -1.
         11    1    3    3    0    0 -0.52048989310E+02  0.50641341626E+02 -0.19940475072E+03  0.21221662843E+03  0.00000000000E+00 0. -1.
        -12    1    3    3    0    0 -0.16890488607E+02 -0.52002147577E+01  0.24341428449E+00  0.17674560515E+02  0.00000000000E+00 0.  1.
          5    1    4    4  501    0  0.19460897922E+01 -0.93471028410E+01  0.13948444257E+03  0.13987329165E+03  0.41800000000E+01 0. -1.
         -5    1    4    4    0  501  0.10154188812E+03  0.29208273191E+02  0.73997365717E+02  0.12906184873E+03  0.41800000000E+01 0. -1.
</event>
<event>
11    1  0.8479398E-009  0.1376713E+03  0.7561462E-02  0.1110187E+00
         22   -1    0    0    0    0  0.00000000000E+00  0.00000000000E+00  0.46808467440E+03  0.46808467440E+03  0.00000000000E+00 0. -1.
         22   -1    0    0    0    0 -0.00000000000E+00 -0.00000000000E+00 -0.11526251241E+04  0.11526251241E+04  0.00000000000E+00 0. -1.
        -24    2    1    2    0    0  0.50282007364E+02  0.37864177870E+02 -0.10749004004E+04  0.10797640693E+04  0.80731643796E+02 0.  0.
         25    2    1    2    0    0  0.10705095828E+02 -0.47608899644E+02 -0.98370582173E+00  0.13427325201E+03  0.12508849717E+03 0.  0.
         24    2    1    2    0    0 -0.60987103191E+02  0.97447217732E+01  0.39134365652E+03  0.40667247721E+03  0.91751075538E+02 0.  0.
        -13    1    5    5    0    0 -0.35958238339E+02  0.76669227113E+01  0.39611709404E+02  0.54045019476E+02  0.00000000000E+00 0.  1.
         14    1    5    5    0    0 -0.25028864853E+02  0.20777990619E+01  0.35173194712E+03  0.35262745773E+03  0.00000000000E+00 0. -1.
         13    1    3    3    0    0  0.62180986707E+02  0.14382189138E+02 -0.94885619288E+03  0.95100020885E+03  0.00000000000E+00 0. -1.
        -14    1    3    3    0    0 -0.11898979344E+02  0.23481988733E+02 -0.12604420755E+03  0.12876386047E+03  0.00000000000E+00 0.  1.
          5    1    4    4  501    0  0.71445911773E+01 -0.49517919260E+02 -0.58143091891E+02  0.76819014869E+02  0.41800000000E+01 0. -1.
         -5    1    4    4    0  501  0.35605046503E+01  0.19090196161E+01  0.57159386069E+02  0.57454237137E+02  0.41800000000E+01 0. -1.
</event>
<event>
11    1  0.8479398E-009  0.1364681E+03  0.7561462E-02  0.1111568E+00
         22   -1    0    0    0    0  0.00000000000E+00  0.00000000000E+00  0.22839665934E+03  0.22839665934E+03  0.00000000000E+00 0.  1.
         22   -1    0    0    0    0 -0.00000000000E+00 -0.00000000000E+00 -0.12465332380E+04  0.12465332380E+04  0.00000000000E+00 0.  1.
        -24    2    1    2    0    0  0.12728901523E+02  0.25858174891E+01 -0.10904152787E+04  0.10933828570E+04  0.79447345466E+02 0.  0.
         25    2    1    2    0    0 -0.38681434105E+02 -0.49815745784E+02 -0.10808236649E+03  0.17693784982E+03  0.12508933959E+03 0.  0.
         24    2    1    2    0    0  0.25952532582E+02  0.47229928295E+02  0.18036106653E+03  0.20460919045E+03  0.80191061985E+02 0.  0.
        -13    1    5    5    0    0 -0.38115156058E+01  0.62759057033E+02  0.12327240406E+03  0.13838104095E+03  0.00000000000E+00 0.  1.
         14    1    5    5    0    0  0.29764048188E+02 -0.15529128737E+02  0.57088662471E+02  0.66228149503E+02  0.00000000000E+00 0. -1.
         11    1    3    3    0    0  0.37431225634E+02  0.74276403368E+01 -0.28136432219E+03  0.28394039567E+03  0.00000000000E+00 0. -1.
        -12    1    3    3    0    0 -0.24702324111E+02 -0.48418228477E+01 -0.80905095647E+03  0.80944246135E+03  0.00000000000E+00 0.  1.
          5    1    4    4  501    0  0.22113918344E+02 -0.17719644655E+02 -0.10407715127E+03  0.10794691754E+03  0.41800000000E+01 0.  1.
         -5    1    4    4    0  501 -0.60795352449E+02 -0.32096101130E+02 -0.40052152211E+01  0.68990932274E+02  0.41800000000E+01 0.  1.
</event>
<event>
11    1  0.8479398E-009  0.1326736E+03  0.7561462E-02  0.1116027E+00
         22   -1    0    0    0    0  0.00000000000E+00  0.00000000000E+00  0.91270675026E+02  0.91270675026E+02  0.00000000000E+00 0.  1.
         22   -1    0    0    0    0 -0.00000000000E+00 -0.00000000000E+00 -0.20721065870E+04  0.20721065870E+04  0.00000000000E+00 0. -1.
         24    2    1    2    0    0  0.91701004733E+01 -0.51327780169E+02 -0.18674365825E+04  0.18699241113E+04  0.81105860115E+02 0.  0.
         25    2    1    2    0    0  0.16662167701E+02  0.51134867430E+01 -0.14302026142E+03  0.19080557693E+03  0.12509275531E+03 0.  0.
        -24    2    1    2    0    0 -0.25832268175E+02  0.46214293426E+02  0.29620931987E+02  0.10264757377E+03  0.82801315162E+02 0.  0.
        -13    1    3    3    0    0  0.12062592722E+02  0.17412069109E+02 -0.79543958436E+03  0.79572157106E+03  0.00000000000E+00 0.  1.
         14    1    3    3    0    0 -0.28924922488E+01 -0.68739849278E+02 -0.10719969982E+04  0.10742025403E+04  0.00000000000E+00 0. -1.
         11    1    5    5    0    0  0.94225386819E+01  0.56936701924E+01 -0.24215323995E+02  0.26600451719E+02  0.00000000000E+00 0. -1.
        -12    1    5    5    0    0 -0.35254806856E+02  0.40520623234E+02  0.53836255982E+02  0.76047122049E+02  0.00000000000E+00 0.  1.
          5    1    4    4  501    0  0.43700360072E+02 -0.41056581972E+02 -0.33424896850E+02  0.68775435463E+02  0.41800000000E+01 0. -1.
         -5    1    4    4    0  501 -0.27038192371E+02  0.46170068715E+02 -0.10959536457E+03  0.12203014147E+03  0.41800000000E+01 0. -1.
</event>
<event>
11    1  0.8479398E-009  0.1289818E+03  0.7561462E-02  0.1120526E+00
         22   -1    0    0    0    0  0.00000000000E+00  0.00000000000E+00  0.29083832887E+04  0.29083832887E+04  0.00000000000E+00 0.  1.
         22   -1    0    0    0    0 -0.00000000000E+00 -0.00000000000E+00 -0.24738929811E+03  0.24738929811E+03  0.00000000000E+00 0. -1.
         24    2    1    2    0    0 -0.11175794758E+02  0.17984093700E+02 -0.23509191370E+03  0.25016286040E+03  0.82854829821E+02 0.  0.
         25    2    1    2    0    0 -0.11786364726E+02  0.99204372455E+01  0.10706793290E+04  0.10780718727E+04  0.12508958244E+03 0.  0.
        -24    2    1    2    0    0  0.22962159484E+02 -0.27904530946E+02  0.18254065753E+04  0.18275378537E+04  0.80495453750E+02 0.  0.
        -11    1    3    3    0    0  0.36139249716E+02  0.90069894220E+01 -0.96169871051E+02  0.10313008934E+03  0.00000000000E+00 0.  1.
         12    1    3    3    0    0 -0.47315044474E+02  0.89771042782E+01 -0.13892204265E+03  0.14703277107E+03  0.00000000000E+00 0. -1.
         13    1    5    5    0    0 -0.21786715465E+02 -0.89541741151E+01  0.19653353681E+03  0.19794006491E+03  0.00000000000E+00 0. -1.
        -14    1    5    5    0    0  0.44748874949E+02 -0.18950356831E+02  0.16288730385E+04  0.16295977888E+04  0.00000000000E+00 0.  1.
          5    1    4    4  501    0 -0.55944443173E+02  0.25570373559E+02  0.31782236318E+03  0.32374704889E+03  0.41800000000E+01 0.  1.
         -5    1    4    4    0  501  0.44158078447E+02 -0.15649936313E+02  0.75285696580E+03  0.75432482377E+03  0.41800000000E+01 0.  1.
</event>
<event>
11    1  0.8479398E-009  0.1326881E+03  0.7561462E-02  0.1116010E+00
         22   -1    0    0    0    0  0.00000000000E+00  0.00000000000E+00  0.29528437373E+03  0.29528437373E+03  0.00000000000E+00 0.  1.
         22   -1    0    0    0    0 -0.00000000000E+00 -0.00000000000E+00 -0.30589258274E+03  0.30589258274E+03  0.00000000000E+00 0. -1.
        -24    2    1    2    0    0 -0.30264433170E+02  0.16365753128E+02 -0.23011094940E+03  0.24668350615E+03  0.81962975687E+02 0.  0.
         25    2    1    2    0    0  0.19926722398E+02 -0.57573957508E+02  0.30049198444E+02  0.14234068361E+03  0.12508429571E+03 0.  0.
         24    2    1    2    0    0  0.10337710773E+02  0.41208204380E+02  0.18945354195E+03  0.21215276671E+03  0.85505365296E+02 0.  0.
        -13    1    5    5    0    0  0.35375916125E+02  0.45576237675E+01  0.14504047546E+03  0.14936186561E+03  0.00000000000E+00 0.  1.
         14    1    5    5    0    0 -0.25038205353E+02  0.36650580613E+02  0.44413066488E+02  0.62790901104E+02  0.00000000000E+00 0. -1.
         11    1    3    3    0    0 -0.50882307974E+02 -0.35164950138E+01 -0.19399847178E+03  0.20059108170E+03  0.00000000000E+00 0. -1.
        -12    1    3    3    0    0  0.20617874804E+02  0.19882248142E+02 -0.36112477615E+02  0.46092424454E+02  0.00000000000E+00 0.  1.
          5    1    4    4  501    0 -0.95294468098E+01  0.37595758249E+02  0.35654533888E+01  0.39171880893E+02  0.41800000000E+01 0.  1.
         -5    1    4    4    0  501  0.29456169207E+02 -0.95169715758E+02  0.26483745056E+02  0.10316880272E+03  0.41800000000E+01 0.  1.
</event>
<event>
11    1  0.8479398E-009  0.1394132E+03  0.7561462E-02  0.1108215E+00
         22   -1    0    0    0    0  0.00000000000E+00  0.00000000000E+00  0.16384726636E+04  0.16384726636E+04  0.00000000000E+00 0.  1.
         22   -1    0    0    0    0 -0.00000000000E+00 -0.00000000000E+00 -0.12343558614E+03  0.12343558614E+03  0.00000000000E+00 0. -1.
        -24    2    1    2    0    0  0.13745605645E+02 -0.47886223049E+01 -0.99087162652E+02  0.12764263867E+03  0.79135989453E+02 0.  0.
         25    2    1    2    0    0  0.51484160213E+02  0.33923198633E+01  0.61566844686E+03  0.63036634476E+03  0.12510781576E+03 0.  0.
         24    2    1    2    0    0 -0.65229765858E+02  0.13963024416E+01  0.99845579323E+03  0.10038992663E+04  0.81503949576E+02 0.  0.
        -13    1    5    5    0    0 -0.60890310345E+02 -0.17047059989E+02  0.94627201618E+03  0.94838228618E+03  0.00000000000E+00 0.  1.
         14    1    5    5    0    0 -0.43394555131E+01  0.18443362431E+02  0.52183777056E+02  0.55516980103E+02  0.00000000000E+00 0. -1.
         11    1    3    3    0    0  0.24517883436E+02  0.32725370343E+02 -0.58078162010E+02  0.71029214938E+02  0.00000000000E+00 0. -1.
        -12    1    3    3    0    0 -0.10772277791E+02 -0.37513992648E+02 -0.41009000642E+02  0.56613423734E+02  0.00000000000E+00 0.  1.
          5    1    4    4  501    0 -0.40951282882E+02  0.35448763845E+00  0.23673158723E+03  0.24028410273E+03  0.41800000000E+01 0. -1.
         -5    1    4    4    0  501  0.92435443095E+02  0.30378322249E+01  0.37893685963E+03  0.39008224203E+03  0.41800000000E+01 0. -1.
</event>
<event>
11    1  0.8479398E-009  0.1642053E+03  0.7561462E-02  0.1083187E+00
         22   -1    0    0    0    0  0.00000000000E+00  0.00000000000E+00  0.42676152636E+03  0.42676152636E+03  0.00000000000E+00 0.  1.
         22   -1    0    0    0    0 -0.00000000000E+00 -0.00000000000E+00 -0.58892791285E+03  0.58892791285E+03  0.00000000000E+00 0.  1.
        -24    2    1    2    0    0 -0.90652267585E+02 -0.51820206678E+02 -0.43295614757E+03  0.45239842867E+03  0.79436421794E+02 0.  0.
         25    2    1    2    0    0  0.13595528286E+03 -0.49577162389E+01 -0.75267348936E+02  0.19955500327E+03  0.12509439486E+03 0.  0.
         24    2    1    2    0    0 -0.45303015273E+02  0.56777922917E+02  0.34605711002E+03  0.36373600727E+03  0.85277569566E+02 0.  0.
        -11    1    5    5    0    0 -0.14166452192E+02  0.56235943417E+02  0.31297468669E+03  0.31830225291E+03  0.00000000000E+00 0.  1.
         12    1    5    5    0    0 -0.31136563082E+02  0.54197949988E+00  0.33082423326E+02  0.45433754362E+02  0.00000000000E+00 0. -1.
         11    1    3    3    0    0 -0.93263887155E+01 -0.32505952591E+02 -0.49575098804E+02  0.60010906524E+02  0.00000000000E+00 0. -1.
        -12    1    3    3    0    0 -0.81325878870E+02 -0.19314254087E+02 -0.38338104876E+03  0.39238752214E+03  0.00000000000E+00 0.  1.
          5    1    4    4  501    0  0.90375527061E+02  0.79254462812E+01  0.20077201528E+02  0.93011370334E+02  0.41800000000E+01 0.  1.
         -5    1    4    4    0  501  0.45579755798E+02 -0.12883162520E+02 -0.95344550463E+02  0.10654363293E+03  0.41800000000E+01 0.  1.
</event>
<event>
11    1  0.8479398E-009  0.1347796E+03  0.7561462E-02  0.1113532E+00
         22   -1    0    0    0    0  0.00000000000E+00  0.00000000000E+00  0.56100730036E+03  0.56100730036E+03  0.00000000000E+00 0.  1.
         22   -1    0    0    0    0 -0.00000000000E+00 -0.00000000000E+00 -0.17910589105E+03  0.17910589105E+03  0.00000000000E+00 0. -1.
        -24    2    1    2    0    0 -0.29403747962E+02  0.44389109739E+02 -0.13928069957E+03  0.16909690672E+03  0.79747583848E+02 0.  0.
         25    2    1    2    0    0  0.20161653292E+01 -0.69015352683E+01  0.19216847568E+03  0.22940750962E+03  0.12508951320E+03 0.  0.
         24    2    1    2    0    0  0.27387582632E+02 -0.37487574471E+02  0.32901363320E+03  0.34160877507E+03  0.79316999766E+02 0.  0.
        -13    1    5    5    0    0 -0.34323911081E+01  0.22902314233E+02  0.10680629762E+03  0.10928807125E+03  0.00000000000E+00 0.  1.
         14    1    5    5    0    0  0.30819973740E+02 -0.60389888704E+02  0.22220733558E+03  0.23232070382E+03  0.00000000000E+00 0. -1.
         11    1    3    3    0    0 -0.40658624574E+02  0.58095533286E+02 -0.78515707621E+02  0.10579664968E+03  0.00000000000E+00 0. -1.
        -12    1    3    3    0    0  0.11254876613E+02 -0.13706423547E+02 -0.60764991952E+02  0.63300257037E+02  0.00000000000E+00 0.  1.
          5    1    4    4  501    0  0.33231918177E+02  0.36734825762E+02  0.15806177548E+03  0.16569491567E+03  0.41800000000E+01 0. -1.
         -5    1    4    4    0  501 -0.31215752848E+02 -0.43636361030E+02  0.34106700201E+02  0.63712593955E+02  0.41800000000E+01 0. -1.
</event>
<event>
11    1  0.8479398E-009  0.2131836E+03  0.7561462E-02  0.1045573E+00
         22   -1    0    0    0    0  0.00000000000E+00  0.00000000000E+00  0.50708971936E+03  0.50708971936E+03  0.00000000000E+00 0.  1.
         22   -1    0    0    0    0 -0.00000000000E+00 -0.00000000000E+00 -0.24468979536E+03  0.24468979536E+03  0.00000000000E+00 0. -1.
         24    2    1    2    0    0 -0.12226680495E+03 -0.13227309298E+03 -0.12229265402E+03  0.23156872632E+03  0.78887508919E+02 0.  0.
         25    2    1    2    0    0  0.14132879769E+03  0.68762924634E+02  0.11676874098E+03  0.23234295413E+03  0.12508453382E+03 0.  0.
        -24    2    1    2    0    0 -0.19061992746E+02  0.63510168347E+02  0.26792383704E+03  0.28786783427E+03  0.81779010133E+02 0.  0.
        -11    1    3    3    0    0 -0.19211972024E+02 -0.97457372282E+01 -0.52815315957E+02  0.57039783159E+02  0.00000000000E+00 0.  1.
         12    1    3    3    0    0 -0.10305483292E+03 -0.12252735575E+03 -0.69477338065E+02  0.17452894316E+03  0.00000000000E+00 0. -1.
         11    1    5    5    0    0 -0.10978792820E+02  0.70296130378E+02  0.11955404621E+03  0.13912314618E+03  0.00000000000E+00 0. -1.
        -12    1    5    5    0    0 -0.80831999266E+01 -0.67859620316E+01  0.14836979084E+03  0.14874468809E+03  0.00000000000E+00 0.  1.
          5    1    4    4  501    0  0.10793033455E+03 -0.16332490556E+02  0.67522917941E+02  0.12842322302E+03  0.41800000000E+01 0.  1.
         -5    1    4    4    0  501  0.33398463147E+02  0.85095415190E+02  0.49245823043E+02  0.10391973111E+03  0.41800000000E+01 0.  1.
</event>
<event>
11    1  0.8479398E-009  0.1684203E+03  0.7561462E-02  0.1079415E+00
         22   -1    0    0    0    0  0.00000000000E+00  0.00000000000E+00  0.77774838001E+03  0.77774838001E+03  0.00000000000E+00 0.  1.
         22   -1    0    0    0    0 -0.00000000000E+00 -0.00000000000E+00 -0.43511775676E+03  0.43511775676E+03  0.00000000000E+00 0. -1.
         24    2    1    2    0    0 -0.80302006934E+02  0.76796299653E+02 -0.34981969570E+03  0.37587937544E+03  0.81027164721E+02 0.  0.
         25    2    1    2    0    0  0.16078024055E+03 -0.20203501734E+02  0.94063610502E+02  0.22528047692E+03  0.12507942768E+03 0.  0.
        -24    2    1    2    0    0 -0.80478233613E+02 -0.56592797919E+02  0.59838670844E+03  0.61170628441E+03  0.80239857200E+02 0.  0.
        -13    1    3    3    0    0 -0.52045762365E+02  0.13449301038E+02 -0.24032230865E+03  0.24626095328E+03  0.00000000000E+00 0.  1.
         14    1    3    3    0    0 -0.28256244569E+02  0.63346998614E+02 -0.10949738705E+03  0.12961842215E+03  0.00000000000E+00 0. -1.
         11    1    5    5    0    0  0.11239768321E+02  0.17717561903E+01  0.18515461202E+02  0.21732321906E+02  0.00000000000E+00 0. -1.
        -12    1    5    5    0    0 -0.91718001935E+02 -0.58364554109E+02  0.57987124724E+03  0.58997396250E+03  0.00000000000E+00 0.  1.
          5    1    4    4  501    0  0.11640925057E+03 -0.56317110062E+02  0.10531182029E+03  0.16682560474E+03  0.41800000000E+01 0.  1.
         -5    1    4    4    0  501  0.44370989974E+02  0.36113608329E+02 -0.11248209790E+02  0.58454872178E+02  0.41800000000E+01 0.  1.
</event>
<event>
11    1  0.8479398E-009  0.1361019E+03  0.7561462E-02  0.1111991E+00
         22   -1    0    0    0    0  0.00000000000E+00  0.00000000000E+00  0.53815915736E+03  0.53815915736E+03  0.00000000000E+00 0.  1.
         22   -1    0    0    0    0 -0.00000000000E+00 -0.00000000000E+00 -0.25523163681E+03  0.25523163681E+03  0.00000000000E+00 0. -1.
        -24    2    1    2    0    0  0.22909031833E+02 -0.31128311352E+02 -0.17664642321E+03  0.20064636816E+03  0.86955222472E+02 0.  0.
         25    2    1    2    0    0 -0.12698407987E+02  0.81621863456E+02  0.30373637983E+02  0.15294927129E+03  0.12509014168E+03 0.  0.
         24    2    1    2    0    0 -0.10210623845E+02 -0.50493552104E+02  0.42920030578E+03  0.43979515472E+03  0.80950725674E+02 0.  0.
        -11    1    5    5    0    0 -0.39226574571E+02 -0.28345801190E+02  0.33981052681E+03  0.34323957046E+03  0.00000000000E+00 0.  1.
         12    1    5    5    0    0  0.29015950726E+02 -0.22147750914E+02  0.89389778970E+02  0.96555584258E+02  0.00000000000E+00 0. -1.
         13    1    3    3    0    0 -0.32710917317E+02 -0.19212532666E+02 -0.79103704510E+02  0.87729821557E+02  0.00000000000E+00 0. -1.
        -14    1    3    3    0    0  0.55619949150E+02 -0.11915778686E+02 -0.97542718702E+02  0.11291654660E+03  0.00000000000E+00 0.  1.
          5    1    4    4  501    0 -0.10447397015E+02  0.23041873051E+02 -0.48336834282E+02  0.54717437499E+02  0.41800000000E+01 0.  1.
         -5    1    4    4    0  501 -0.22510109722E+01  0.58579990405E+02  0.78710472264E+02  0.98231833793E+02  0.41800000000E+01 0.  1.
</event>
<event>
11    1  0.8479398E-009  0.1725717E+03  0.7561462E-02  0.1075815E+00
         22   -1    0    0    0    0  0.00000000000E+00  0.00000000000E+00  0.69979758890E+03  0.69979758890E+03  0.00000000000E+00 0. -1.
         22   -1    0    0    0    0 -0.00000000000E+00 -0.00000000000E+00 -0.15447114317E+04  0.15447114317E+04  0.00000000000E+00 0.  1.
        -24    2    1    2    0    0 -0.77975574317E+01 -0.12035234555E+03 -0.14034684484E+04  0.14108891877E+04  0.79618622971E+02 0.  0.
         25    2    1    2    0    0 -0.65901233772E+02  0.96417517692E+02 -0.77814410315E+02  0.18799485216E+03  0.12509065375E+03 0.  0.
         24    2    1    2    0    0  0.73698791204E+02  0.23934827861E+02  0.63636901597E+03  0.64562498075E+03  0.76561762435E+02 0.  0.
        -13    1    5    5    0    0  0.22935408310E+02 -0.23271829458E+02  0.32470219825E+03  0.32634204226E+03  0.00000000000E+00 0.  1.
         14    1    5    5    0    0  0.50763382894E+02  0.47206657319E+02  0.31166681773E+03  0.31928293849E+03  0.00000000000E+00 0. -1.
         13    1    3    3    0    0  0.34949028435E+02 -0.43319173804E+02 -0.47477782905E+03  0.47802925890E+03  0.00000000000E+00 0. -1.
        -14    1    3    3    0    0 -0.42746585867E+02 -0.77033171749E+02 -0.92869061939E+03  0.93285992877E+03  0.00000000000E+00 0.  1.
          5    1    4    4  501    0 -0.51863984823E+02 -0.14757959981E+02 -0.47125140057E+02  0.71735078797E+02  0.41800000000E+01 0.  1.
         -5    1    4    4    0  501 -0.14037248948E+02  0.11117547767E+03 -0.30689270258E+02  0.11625977337E+03  0.41800000000E+01 0.  1.
</event>
<event>
11    1  0.8479398E-009  0.1620637E+03  0.7561462E-02  0.1085152E+00
         22   -1    0    0    0    0  0.00000000000E+00  0.00000000000E+00  0.91056483376E+03  0.91056483376E+03  0.00000000000E+00 0.  1.
         22   -1    0    0    0    0 -0.00000000000E+00 -0.00000000000E+00 -0.43380198844E+03  0.43380198844E+03  0.00000000000E+00 0.  1.
         24    2    1    2    0    0  0.77585571095E+02  0.67746972105E+02 -0.35074839059E+03  0.37417789055E+03  0.79846648039E+02 0.  0.
         25    2    1    2    0    0 -0.68984512958E+02 -0.77896771544E+02  0.26223410372E+02  0.16481305794E+03  0.12509559054E+03 0.  0.
        -24    2    1    2    0    0 -0.86010581367E+01  0.10149799439E+02  0.80128782554E+03  0.80537587372E+03  0.79944493123E+02 0.  0.
        -11    1    3    3    0    0  0.62713051221E+02  0.80366554162E+02 -0.33132010180E+03  0.34664783236E+03  0.00000000000E+00 0.  1.
         12    1    3    3    0    0  0.14872519873E+02 -0.12619582058E+02 -0.19428288787E+02  0.27530058189E+02  0.00000000000E+00 0. -1.
         13    1    5    5    0    0 -0.29486000737E+02  0.29657602947E+02  0.26069619124E+03  0.26402935780E+03  0.00000000000E+00 0. -1.
        -14    1    5    5    0    0  0.20884942601E+02 -0.19507803508E+02  0.54059163430E+03  0.54134651592E+03  0.00000000000E+00 0.  1.
          5    1    4    4  501    0  0.74205037125E+00 -0.12860524352E+02  0.61566318572E+02  0.63038303498E+02  0.41800000000E+01 0.  1.
         -5    1    4    4    0  501 -0.69726563329E+02 -0.65036247192E+02 -0.35342908200E+02  0.10177475445E+03  0.41800000000E+01 0.  1.
</event>
<event>
11    1  0.8479398E-009  0.1791057E+03  0.7561462E-02  0.1070369E+00
         22   -1    0    0    0    0  0.00000000000E+00  0.00000000000E+00  0.17695415750E+04  0.17695415750E+04  0.00000000000E+00 0. -1.
         22   -1    0    0    0    0 -0.00000000000E+00 -0.00000000000E+00 -0.39324487193E+04  0.39324487193E+04  0.00000000000E+00 0. -1.
         24    2    1    2    0    0 -0.55897194647E+02 -0.57608916996E+02 -0.36235433111E+04  0.36253232538E+04  0.80369668961E+02 0.  0.
         25    2    1    2    0    0  0.17039027549E+03  0.54965583313E+00 -0.26810117788E+03  0.34140765854E+03  0.12509116525E+03 0.  0.
        -24    2    1    2    0    0 -0.11449308084E+03  0.57059261163E+02  0.17287373447E+04  0.17352593820E+04  0.78916986827E+02 0.  0.
        -11    1    3    3    0    0 -0.27448659107E+02  0.72077600027E+00 -0.32992433590E+03  0.33106497221E+03  0.00000000000E+00 0.  1.
         12    1    3    3    0    0 -0.28448535540E+02 -0.58329692996E+02 -0.32936189752E+04  0.32942582816E+04  0.00000000000E+00 0. -1.
         13    1    5    5    0    0 -0.43780052941E+02  0.61929110071E+02  0.10804922304E+04  0.10831506671E+04  0.00000000000E+00 0. -1.
        -14    1    5    5    0    0 -0.70713027898E+02 -0.48698489082E+01  0.64824511435E+03  0.65210871488E+03  0.00000000000E+00 0.  1.
          5    1    4    4  501    0  0.16257271815E+03 -0.31757884489E+01 -0.28138105018E+03  0.32501191073E+03  0.41800000000E+01 0. -1.
         -5    1    4    4    0  501  0.78175573326E+01  0.37254442820E+01  0.13279872296E+02  0.16395747801E+02  0.41800000000E+01 0. -1.
</event>
<event>
11    1  0.8479398E-009  0.1698048E+03  0.7561462E-02  0.1078202E+00
         22   -1    0    0    0    0  0.00000000000E+00  0.00000000000E+00  0.18375544279E+03  0.18375544279E+03  0.00000000000E+00 0. -1.
         22   -1    0    0    0    0 -0.00000000000E+00 -0.00000000000E+00 -0.44194893391E+03  0.44194893391E+03  0.00000000000E+00 0. -1.
        -24    2    1    2    0    0  0.27879995062E+02  0.41869574026E+02 -0.29469584827E+03  0.30948470862E+03  0.80029910235E+02 0.  0.
         25    2    1    2    0    0 -0.10719767443E+03  0.45682953784E+02  0.72797973984E+01  0.17111108331E+03  0.12509090179E+03 0.  0.
         24    2    1    2    0    0  0.79317679369E+02 -0.87552527810E+02  0.29222559746E+02  0.14510858477E+03  0.79030399154E+02 0.  0.
        -11    1    5    5    0    0  0.49485769664E+02 -0.86411260304E+02 -0.49891933269E+01  0.99702755011E+02  0.00000000000E+00 0.  1.
         12    1    5    5    0    0  0.29831909705E+02 -0.11412675060E+01  0.34211753073E+02  0.45405829763E+02  0.00000000000E+00 0. -1.
         13    1    3    3    0    0 -0.90759790968E+01  0.51073432840E+02 -0.12079181418E+03  0.13145923821E+03  0.00000000000E+00 0. -1.
        -14    1    3    3    0    0  0.36955974159E+02 -0.92038588137E+01 -0.17390403409E+03  0.17802547041E+03  0.00000000000E+00 0.  1.
          5    1    4    4  501    0 -0.36406119221E+02  0.16125926480E+02  0.64085055862E+02  0.75563336390E+02  0.41800000000E+01 0. -1.
         -5    1    4    4    0  501 -0.70791555210E+02  0.29557027304E+02 -0.56805258463E+02  0.95547746919E+02  0.41800000000E+01 0. -1.
</event>
<event>
11    1  0.8479398E-009  0.1713278E+03  0.7561462E-02  0.1076882E+00
         22   -1    0    0    0    0  0.00000000000E+00  0.00000000000E+00  0.67434146362E+03  0.67434146362E+03  0.00000000000E+00 0. -1.
         22   -1    0    0    0    0 -0.00000000000E+00 -0.00000000000E+00 -0.35669826815E+03  0.35669826815E+03  0.00000000000E+00 0. -1.
         24    2    1    2    0    0 -0.32001431563E+02  0.22937633161E+02 -0.25314984891E+03  0.26923095084E+03  0.82766129836E+02 0.  0.
         25    2    1    2    0    0  0.12237154681E+03 -0.91600674609E+02  0.25505822591E+02  0.19915525045E+03  0.12508712059E+03 0.  0.
        -24    2    1    2    0    0 -0.90370115251E+02  0.68663041448E+02  0.54528722179E+03  0.56265353048E+03  0.79746286008E+02 0.  0.
        -11    1    3    3    0    0 -0.32488764928E+01  0.17077124008E+02 -0.33372627987E+01  0.17700866810E+02  0.00000000000E+00 0.  1.
         12    1    3    3    0    0 -0.28752555071E+02  0.58605091527E+01 -0.24981258611E+03  0.25153008403E+03  0.00000000000E+00 0. -1.
         11    1    5    5    0    0 -0.87132168445E+02  0.44842169907E+02  0.51367636949E+03  0.52294000378E+03  0.00000000000E+00 0. -1.
        -12    1    5    5    0    0 -0.32379468053E+01  0.23820871541E+02  0.31610852295E+02  0.39713526705E+02  0.00000000000E+00 0.  1.
          5    1    4    4  501    0  0.84221025328E+02 -0.10015705382E+01 -0.25800554031E+02  0.88189144679E+02  0.41800000000E+01 0. -1.
         -5    1    4    4    0  501  0.38150521486E+02 -0.90599104071E+02  0.51306376622E+02  0.11096610577E+03  0.41800000000E+01 0. -1.
</event>
<event>
11    1  0.1415864E-008  0.1864333E+03  0.7561462E-02  0.1064555E+00
         22   -1    0    0    0    0  0.00000000000E+00  0.00000000000E+00  0.90214340546E+03  0.90214340546E+03  0.00000000000E+00 0.  1.
         22   -1    0    0    0    0 -0.00000000000E+00 -0.00000000000E+00 -0.21409121609E+03  0.21409121609E+03  0.00000000000E+00 0.  1.
         24    2    1    2    0    0 -0.18155115018E+02  0.49785872381E+02 -0.10183422287E+03  0.13998140405E+03  0.80102080131E+02 0.  0.
         25    2    1    2    0    0  0.78010949282E+02 -0.16911486527E+03  0.63586708354E+02  0.23318875661E+03  0.12509268909E+03 0.  0.
        -24    2    1    2    0    0 -0.59855834264E+02  0.11932899289E+03  0.72629970388E+03  0.74306446089E+03  0.82531228858E+02 0.  0.
        -11    1    3    3    0    0 -0.34132556105E+02  0.65351873423E+02 -0.77336253860E+02  0.10684940293E+03  0.00000000000E+00 0.  1.
         12    1    3    3    0    0  0.15977441087E+02 -0.15566001042E+02 -0.24497969013E+02  0.33132001116E+02  0.00000000000E+00 0. -1.
         11    1    5    5    0    0 -0.28197955712E+02 -0.50049423313E+01  0.12916435020E+03  0.13230118486E+03  0.00000000000E+00 0. -1.
        -12    1    5    5    0    0 -0.31657878552E+02  0.12433393522E+03  0.59713535368E+03  0.61076327603E+03  0.00000000000E+00 0.  1.
          5    1    4    4  501    0  0.80746484198E+02 -0.14107297181E+03 -0.99589430872E+00  0.16260394304E+03  0.41800000000E+01 0.  1.
         -5    1    4    4    0  501 -0.27355349157E+01 -0.28041893464E+02  0.64582602663E+02  0.70584813572E+02  0.41800000000E+01 0.  1.
</event>
<event>
11    1  0.8479398E-009  0.1464680E+03  0.7561462E-02  0.1100543E+00
         22   -1    0    0    0    0  0.00000000000E+00  0.00000000000E+00  0.41256060090E+03  0.41256060090E+03  0.00000000000E+00 0. -1.
         22   -1    0    0    0    0 -0.00000000000E+00 -0.00000000000E+00 -0.10488591626E+04  0.10488591626E+04  0.00000000000E+00 0.  1.
        -24    2    1    2    0    0  0.76180626176E+01 -0.28357962820E+02 -0.93557432062E+03  0.93958887201E+03  0.81643922494E+02 0.  0.
         25    2    1    2    0    0  0.62850686010E+02 -0.43371484697E+01 -0.54475137193E+02  0.15027747237E+03  0.12508700388E+03 0.  0.
         24    2    1    2    0    0 -0.70468748628E+02  0.32695111290E+02  0.35375089613E+03  0.37155341910E+03  0.82930283358E+02 0.  0.
        -11    1    5    5    0    0 -0.33215149725E+02 -0.21120898892E+02  0.69577386541E+02  0.79939672623E+02  0.00000000000E+00 0.  1.
         12    1    5    5    0    0 -0.37253598903E+02  0.53816010182E+02  0.28417350958E+03  0.29161374647E+03  0.00000000000E+00 0. -1.
         11    1    3    3    0    0 -0.39984915139E+01  0.22208683792E+02 -0.10509087700E+03  0.10748630610E+03  0.00000000000E+00 0. -1.
        -12    1    3    3    0    0  0.11616554132E+02 -0.50566646612E+02 -0.83048344362E+03  0.83210256591E+03  0.00000000000E+00 0.  1.
          5    1    4    4  501    0  0.98916826449E+02  0.10733996686E+02 -0.30152040423E+02  0.10404986872E+03  0.41800000000E+01 0. -1.
         -5    1    4    4    0  501 -0.36066140439E+02 -0.15071145156E+02 -0.24323096770E+02  0.46227603647E+02  0.41800000000E+01 0. -1.
</event>
<event>
11    1  0.8479398E-009  0.1412086E+03  0.7561462E-02  0.1106216E+00
         22   -1    0    0    0    0  0.00000000000E+00  0.00000000000E+00  0.21163972054E+04  0.21163972054E+04  0.00000000000E+00 0. -1.
         22   -1    0    0    0    0 -0.00000000000E+00 -0.00000000000E+00 -0.15822965070E+03  0.15822965070E+03  0.00000000000E+00 0. -1.
         24    2    1    2    0    0 -0.27597639448E+02  0.11759091917E+02 -0.13103781591E+03  0.15671853635E+03  0.80559819341E+02 0.  0.
         25    2    1    2    0    0  0.79785870841E+02  0.24724187650E+02  0.43040796446E+03  0.45593713532E+03  0.12510229754E+03 0.  0.
        -24    2    1    2    0    0 -0.52188231394E+02 -0.36483279567E+02  0.16587974061E+04  0.16619711844E+04  0.80527896190E+02 0.  0.
        -13    1    3    3    0    0 -0.34266459797E+00  0.28636034571E+02 -0.82322647980E+01  0.29797820032E+02  0.00000000000E+00 0.  1.
         14    1    3    3    0    0 -0.27254974850E+02 -0.16876942654E+02 -0.12280555111E+03  0.12692071632E+03  0.00000000000E+00 0. -1.
         13    1    5    5    0    0 -0.62695187883E+02 -0.42459308357E+02  0.16069666917E+04  0.16087496473E+04  0.00000000000E+00 0. -1.
        -14    1    5    5    0    0  0.10506956489E+02  0.59760287899E+01  0.51830714365E+02  0.53221537054E+02  0.00000000000E+00 0.  1.
          5    1    4    4  501    0  0.70816572577E+02 -0.10303302154E+02  0.40560625493E+03  0.41189203855E+03  0.41800000000E+01 0.  1.
         -5    1    4    4    0  501  0.89692982643E+01  0.35027489804E+02  0.24801709536E+02  0.44045096767E+02  0.41800000000E+01 0.  1.
</event>
<event>
11    1  0.8479398E-009  0.1733322E+03  0.7561462E-02  0.1075168E+00
         22   -1    0    0    0    0  0.00000000000E+00  0.00000000000E+00  0.20448986697E+03  0.20448986697E+03  0.00000000000E+00 0. -1.
         22   -1    0    0    0    0 -0.00000000000E+00 -0.00000000000E+00 -0.13913832710E+04  0.13913832710E+04  0.00000000000E+00 0.  1.
         24    2    1    2    0    0  0.38353228773E+02 -0.12159979184E+03 -0.89223440522E+03  0.90485653029E+03  0.80160008851E+02 0.  0.
         25    2    1    2    0    0 -0.10791743772E+02  0.10454593184E+03 -0.46898233121E+03  0.49662556662E+03  0.12508482256E+03 0.  0.
        -24    2    1    2    0    0 -0.27561485000E+02  0.17053860003E+02  0.17432333244E+03  0.19439104102E+03  0.79679250744E+02 0.  0.
        -13    1    3    3    0    0  0.50850080483E+02 -0.12362375135E+03 -0.85811676660E+03  0.86846585869E+03  0.00000000000E+00 0.  1.
         14    1    3    3    0    0 -0.12496851711E+02  0.20239595137E+01 -0.34117638615E+02  0.36390671600E+02  0.00000000000E+00 0. -1.
         13    1    5    5    0    0 -0.52485837298E+02  0.27063702665E+02  0.12423754519E+03  0.13755789600E+03  0.00000000000E+00 0. -1.
        -14    1    5    5    0    0  0.24924352298E+02 -0.10009842662E+02  0.50085787252E+02  0.56833145015E+02  0.00000000000E+00 0.  1.
          5    1    4    4  501    0  0.47433131877E+02  0.71639349522E+02 -0.17367522801E+03  0.19381087592E+03  0.41800000000E+01 0.  1.
         -5    1    4    4    0  501 -0.58224875649E+02  0.32906582315E+02 -0.29530710320E+03  0.30281469070E+03  0.41800000000E+01 0.  1.
</event>
<event>
11    1  0.8479398E-009  0.1288705E+03  0.7561462E-02  0.1120665E+00
         22   -1    0    0    0    0  0.00000000000E+00  0.00000000000E+00  0.10999705991E+04  0.10999705991E+04  0.00000000000E+00 0.  1.
         22   -1    0    0    0    0 -0.00000000000E+00 -0.00000000000E+00 -0.13960693053E+03  0.13960693053E+03  0.00000000000E+00 0.  1.
         24    2    1    2    0    0  0.14686999061E+02  0.15730497637E+02 -0.94733838004E+02  0.12208105444E+03  0.73933262429E+02 0.  0.
         25    2    1    2    0    0 -0.26850209930E+02  0.13461458496E+02  0.11450247720E+03  0.17222061859E+03  0.12508788728E+03 0.  0.
        -24    2    1    2    0    0  0.12163210869E+02 -0.29191956133E+02  0.94059502940E+03  0.94527585662E+03  0.88472152540E+02 0.  0.
        -13    1    3    3    0    0  0.35778104097E+02  0.44490139532E+01 -0.90988032675E+02  0.97870774739E+02  0.00000000000E+00 0.  1.
         14    1    3    3    0    0 -0.21091105036E+02  0.11281483684E+02 -0.37458053293E+01  0.24210279704E+02  0.00000000000E+00 0. -1.
         13    1    5    5    0    0 -0.30488985492E+02 -0.31379490428E+01  0.14982649895E+03  0.15292941100E+03  0.00000000000E+00 0. -1.
        -14    1    5    5    0    0  0.42652196361E+02 -0.26054007090E+02  0.79076853045E+03  0.79234644562E+03  0.00000000000E+00 0.  1.
          5    1    4    4  501    0 -0.55596520453E+02  0.19816403247E+02  0.12689001796E+03  0.14000789971E+03  0.41800000000E+01 0.  1.
         -5    1    4    4    0  501  0.28746310523E+02 -0.63549447509E+01 -0.12387540758E+02  0.32212718878E+02  0.41800000000E+01 0.  1.
</event>
<event>
11    1  0.8479398E-009  0.1447839E+03  0.7561462E-02  0.1102331E+00
         22   -1    0    0    0    0  0.00000000000E+00  0.00000000000E+00  0.11945480696E+04  0.11945480696E+04  0.00000000000E+00 0. -1.
         22   -1    0    0    0    0 -0.00000000000E+00 -0.00000000000E+00 -0.11840999718E+03  0.11840999718E+03  0.00000000000E+00 0. -1.
         24    2    1    2    0    0 -0.11897382409E+02  0.74165707949E+02 -0.75320640490E+02  0.13216796501E+03  0.78441520558E+02 0.  0.
         25    2    1    2    0    0  0.23666063830E+02 -0.41090819831E+02  0.35328322346E+03  0.37776341161E+03  0.12509045175E+03 0.  0.
        -24    2    1    2    0    0 -0.11768681421E+02 -0.33074888119E+02  0.79817548947E+03  0.80302669019E+03  0.80841221407E+02 0.  0.
        -13    1    3    3    0    0 -0.22650284565E+02  0.24762594559E+02  0.81904298688E+01  0.34544241511E+02  0.00000000000E+00 0.  1.
         14    1    3    3    0    0  0.10752902156E+02  0.49403113390E+02 -0.83511070359E+02  0.97623723500E+02  0.00000000000E+00 0. -1.
         11    1    5    5    0    0 -0.27611364619E+02 -0.37141336180E+02  0.22969922670E+03  0.23431517462E+03  0.00000000000E+00 0. -1.
        -12    1    5    5    0    0  0.15842683198E+02  0.40664480611E+01  0.56847626277E+03  0.56871151557E+03  0.00000000000E+00 0.  1.
          5    1    4    4  501    0  0.35664782275E+02 -0.46797276695E+01  0.18311436341E+02  0.40579029642E+02  0.41800000000E+01 0. -1.
         -5    1    4    4    0  501 -0.11998718445E+02 -0.36411092161E+02  0.33497178712E+03  0.33718438196E+03  0.41800000000E+01 0. -1.
</event>
<event>
11    1  0.8479398E-009  0.1750514E+03  0.7561462E-02  0.1073718E+00
         22   -1    0    0    0    0  0.00000000000E+00  0.00000000000E+00  0.11959552910E+04  0.11959552910E+04  0.00000000000E+00 0. -1.
         22   -1    0    0    0    0 -0.00000000000E+00 -0.00000000000E+00 -0.24424842711E+03  0.24424842711E+03  0.00000000000E+00 0. -1.
         24    2    1    2    0    0 -0.69564749773E+02 -0.96987300913E+02 -0.16954479322E+03  0.22329283929E+03  0.82876198164E+02 0.  0.
         25    2    1    2    0    0  0.67133916621E+02  0.13122504348E+03  0.15800284247E+03  0.24967759141E+03  0.12508807549E+03 0.  0.
        -24    2    1    2    0    0  0.24308331523E+01 -0.34237742568E+02  0.96324881461E+03  0.96723328737E+03  0.80708248622E+02 0.  0.
        -11    1    3    3    0    0 -0.79890509913E+02 -0.63272857708E+02 -0.88749104252E+02  0.13513826846E+03  0.00000000000E+00 0.  1.
         12    1    3    3    0    0  0.10325760140E+02 -0.33714443205E+02 -0.80795688963E+02  0.88154570829E+02  0.00000000000E+00 0. -1.
         11    1    5    5    0    0  0.39419463458E+02 -0.30461530526E+02  0.48989299359E+03  0.49241947982E+03  0.00000000000E+00 0. -1.
        -12    1    5    5    0    0 -0.36988630305E+02 -0.37762120417E+01  0.47335582102E+03  0.47481380755E+03  0.00000000000E+00 0.  1.
          5    1    4    4  501    0  0.32314892355E+02  0.99176377892E+02  0.17106973583E+03  0.20040592086E+03  0.41800000000E+01 0.  1.
         -5    1    4    4    0  501  0.34819024265E+02  0.32048665589E+02 -0.13066893362E+02  0.49271670552E+02  0.41800000000E+01 0.  1.
</event>
<event>
11    1  0.8479398E-009  0.1677923E+03  0.7561462E-02  0.1079969E+00
         22   -1    0    0    0    0  0.00000000000E+00  0.00000000000E+00  0.12646751867E+04  0.12646751867E+04  0.00000000000E+00 0. -1.
         22   -1    0    0    0    0 -0.00000000000E+00 -0.00000000000E+00 -0.62098208694E+03  0.62098208694E+03  0.00000000000E+00 0.  1.
        -24    2    1    2    0    0  0.21878610082E+02 -0.11212173726E+03 -0.57166130965E+03  0.58803834989E+03  0.77087550509E+02 0.  0.
         25    2    1    2    0    0  0.88097767590E+01  0.74841076852E+02  0.96901865992E+02  0.17526054367E+03  0.12508991799E+03 0.  0.
         24    2    1    2    0    0 -0.30688386841E+02  0.37280660404E+02  0.11184525434E+04  0.11223583801E+04  0.80128751197E+02 0.  0.
        -11    1    5    5    0    0 -0.34535881782E+02  0.19764115970E+00  0.18715549198E+03  0.19031538133E+03  0.00000000000E+00 0.  1.
         12    1    5    5    0    0  0.38474949407E+01  0.37083019244E+02  0.93129705139E+03  0.93204299872E+03  0.00000000000E+00 0. -1.
         11    1    3    3    0    0  0.36891891101E+02 -0.33600507761E+02 -0.32328709720E+03  0.32711550401E+03  0.00000000000E+00 0. -1.
        -12    1    3    3    0    0 -0.15013281019E+02 -0.78521229495E+02 -0.24837421245E+03  0.26092284588E+03  0.00000000000E+00 0.  1.
          5    1    4    4  501    0  0.48965337657E+02 -0.10951153415E+02  0.42880119597E+02  0.66134023843E+02  0.41800000000E+01 0.  1.
         -5    1    4    4    0  501 -0.40155560898E+02  0.85792230267E+02  0.54021746395E+02  0.10912651982E+03  0.41800000000E+01 0.  1.
</event>
<event>
11    1  0.8479398E-009  0.1309294E+03  0.7561462E-02  0.1118132E+00
         22   -1    0    0    0    0  0.00000000000E+00  0.00000000000E+00  0.21391686952E+03  0.21391686952E+03  0.00000000000E+00 0. -1.
         22   -1    0    0    0    0 -0.00000000000E+00 -0.00000000000E+00 -0.57200377307E+03  0.57200377307E+03  0.00000000000E+00 0. -1.
         24    2    1    2    0    0  0.36030352568E+02 -0.13611068818E+02 -0.46609122038E+03  0.47506458523E+03  0.83437922579E+02 0.  0.
         25    2    1    2    0    0 -0.41432784642E+02  0.44076303133E+01 -0.43897389390E+02  0.13895799967E+03  0.12508493926E+03 0.  0.
        -24    2    1    2    0    0  0.54024320745E+01  0.92034385042E+01  0.15190170622E+03  0.17189805769E+03  0.79755403162E+02 0.  0.
        -13    1    3    3    0    0  0.53076573220E+02 -0.35021571048E+02 -0.29279375100E+03  0.29961944811E+03  0.00000000000E+00 0.  1.
         14    1    3    3    0    0 -0.17046220653E+02  0.21410502231E+02 -0.17329746938E+03  0.17544513711E+03  0.00000000000E+00 0. -1.
         13    1    5    5    0    0  0.28146731202E+02  0.32139986886E+02  0.54311907064E+02  0.69101378303E+02  0.00000000000E+00 0. -1.
        -14    1    5    5    0    0 -0.22744299127E+02 -0.22936548382E+02  0.97589799156E+02  0.10279667939E+03  0.00000000000E+00 0.  1.
          5    1    4    4  501    0 -0.17354854137E+02 -0.49890245647E+02 -0.57173521578E+02  0.77951982287E+02  0.41800000000E+01 0. -1.
         -5    1    4    4    0  501 -0.24077930505E+02  0.54297875960E+02  0.13276132188E+02  0.61006017384E+02  0.41800000000E+01 0. -1.
</event>
<event>
11    1  0.8479398E-009  0.1488350E+03  0.7561462E-02  0.1098075E+00
         22   -1    0    0    0    0  0.00000000000E+00  0.00000000000E+00  0.10729489748E+04  0.10729489748E+04  0.00000000000E+00 0.  1.
         22   -1    0    0    0    0 -0.00000000000E+00 -0.00000000000E+00 -0.24210914175E+03  0.24210914175E+03  0.00000000000E+00 0. -1.
         24    2    1    2    0    0  0.13176586952E+02 -0.54589387423E+01 -0.21470147201E+03  0.22661788060E+03  0.71102174869E+02 0.  0.
         25    2    1    2    0    0  0.69285781993E+02  0.16004649383E+02  0.28560847582E+03  0.31980989922E+03  0.12509796877E+03 0.  0.
        -24    2    1    2    0    0 -0.82462368946E+02 -0.10545710641E+02  0.75993282921E+03  0.76863033671E+03  0.79896403521E+02 0.  0.
        -13    1    3    3    0    0 -0.25385776605E+02  0.57537413910E+01 -0.42850486888E+02  0.50136886824E+02  0.00000000000E+00 0.  1.
         14    1    3    3    0    0  0.38562363558E+02 -0.11212680133E+02 -0.17185098512E+03  0.17648099378E+03  0.00000000000E+00 0. -1.
         13    1    5    5    0    0 -0.84496809029E+01  0.27479292070E+02  0.12471138793E+03  0.12798218188E+03  0.00000000000E+00 0. -1.
        -14    1    5    5    0    0 -0.74012688043E+02 -0.38025002711E+02  0.63522144128E+03  0.64064815483E+03  0.00000000000E+00 0.  1.
          5    1    4    4  501    0  0.49269050587E+02 -0.51891908999E+02  0.12203459154E+03  0.14152781881E+03  0.41800000000E+01 0. -1.
         -5    1    4    4    0  501  0.20016731406E+02  0.67896558382E+02  0.16357388429E+03  0.17828208041E+03  0.41800000000E+01 0. -1.
</event>
<event>
11    1  0.8479398E-009  0.1371483E+03  0.7561462E-02  0.1110785E+00
         22   -1    0    0    0    0  0.00000000000E+00  0.00000000000E+00  0.22615047728E+04  0.22615047728E+04  0.00000000000E+00 0. -1.
         22   -1    0    0    0    0 -0.00000000000E+00 -0.00000000000E+00 -0.21806420549E+02  0.21806420549E+02  0.00000000000E+00 0.  1.
         24    2    1    2    0    0  0.16427380077E+02  0.12633635163E+01  0.10753179731E+03  0.13491794054E+03  0.79801681327E+02 0.  0.
         25    2    1    2    0    0 -0.69201114805E+02 -0.42722776371E+01  0.78622463924E+03  0.79912674777E+03  0.12508928412E+03 0.  0.
        -24    2    1    2    0    0  0.52773734728E+02  0.30089141208E+01  0.13459419157E+04  0.13492665051E+04  0.78526050172E+02 0.  0.
        -11    1    3    3    0    0 -0.11657666240E+02  0.12601147710E+02 -0.53995694962E+01  0.17995706613E+02  0.00000000000E+00 0.  1.
         12    1    3    3    0    0  0.28085046317E+02 -0.11337784193E+02  0.11293136681E+03  0.11692223393E+03  0.00000000000E+00 0. -1.
         13    1    5    5    0    0  0.59106268645E+02 -0.22716437685E+02  0.11176766624E+04  0.11194689407E+04  0.00000000000E+00 0. -1.
        -14    1    5    5    0    0 -0.63325339163E+01  0.25725351805E+02  0.22826525329E+03  0.22979756433E+03  0.00000000000E+00 0.  1.
          5    1    4    4  501    0 -0.83489160682E+02  0.11158512253E+01  0.26971366227E+03  0.28237318763E+03  0.41800000000E+01 0.  1.
         -5    1    4    4    0  501  0.14288045877E+02 -0.53881288624E+01  0.51651097697E+03  0.51675356014E+03  0.41800000000E+01 0.  1.
</event>
<event>
11    1  0.8479398E-009  0.1434491E+03  0.7561462E-02  0.1103767E+00
         22   -1    0    0    0    0  0.00000000000E+00  0.00000000000E+00  0.22653319069E+04  0.22653319069E+04  0.00000000000E+00 0. -1.
         22   -1    0    0    0    0 -0.00000000000E+00 -0.00000000000E+00 -0.52136665670E+03  0.52136665670E+03  0.00000000000E+00 0.  1.
         24    2    1    2    0    0 -0.56203711294E+02  0.39843711989E+02 -0.45035457526E+03  0.46253535177E+03  0.79833136185E+02 0.  0.
         25    2    1    2    0    0  0.94971006484E+02 -0.23204463384E+02  0.34528878564E+02  0.16247734720E+03  0.12509478688E+03 0.  0.
        -24    2    1    2    0    0 -0.38767295190E+02 -0.16639248605E+02  0.21597909469E+04  0.21616858646E+04  0.80056700440E+02 0.  0.
        -13    1    3    3    0    0 -0.56596427429E+02  0.33238781833E+02 -0.45112442008E+03  0.45587412145E+03  0.00000000000E+00 0.  1.
         14    1    3    3    0    0  0.39271613527E+00  0.66049301562E+01  0.76984482169E+00  0.66612303203E+01  0.00000000000E+00 0. -1.
         11    1    5    5    0    0 -0.45446233824E+02  0.21639049065E+02  0.13960233818E+04  0.13969305248E+04  0.00000000000E+00 0. -1.
        -12    1    5    5    0    0  0.66789386340E+01 -0.38278297670E+02  0.76376756505E+03  0.76475533978E+03  0.00000000000E+00 0.  1.
          5    1    4    4  501    0  0.28341958594E+02  0.37960952908E+02  0.51779033001E+02  0.70305342764E+02  0.41800000000E+01 0.  1.
         -5    1    4    4    0  501  0.66629047890E+02 -0.61165416291E+02 -0.17250154437E+02  0.92172004431E+02  0.41800000000E+01 0.  1.
</event>
<event>
11    1  0.1674140E-008  0.1734848E+03  0.7561462E-02  0.1075038E+00
         22   -1    0    0    0    0  0.00000000000E+00  0.00000000000E+00  0.47083873169E+03  0.47083873169E+03  0.00000000000E+00 0.  1.
         22   -1    0    0    0    0 -0.00000000000E+00 -0.00000000000E+00 -0.15287664693E+04  0.15287664693E+04  0.00000000000E+00 0.  1.
         24    2    1    2    0    0  0.58632047596E+01  0.67998040911E+02 -0.10713904547E+04  0.10766018508E+04  0.80845085371E+02 0.  0.
         25    2    1    2    0    0 -0.12576604152E+03 -0.71257020878E+02 -0.41988187261E+03  0.46134913886E+03  0.12509029042E+03 0.  0.
        -24    2    1    2    0    0  0.11990283676E+03  0.32589799666E+01  0.43334458973E+03  0.46165421137E+03  0.10464113060E+03 0.  0.
        -11    1    3    3    0    0  0.45502626925E+01 -0.12126088617E+01 -0.61263886573E+03  0.61265696365E+03  0.00000000000E+00 0.  1.
         12    1    3    3    0    0  0.13129420671E+01  0.69210649773E+02 -0.45875158901E+03  0.46394488712E+03  0.00000000000E+00 0. -1.
         11    1    5    5    0    0  0.14194404457E+02  0.36543960020E+02  0.55908760108E+02  0.68284197210E+02  0.00000000000E+00 0. -1.
        -12    1    5    5    0    0  0.10570843231E+03 -0.33284980053E+02  0.37743582962E+03  0.39337001416E+03  0.00000000000E+00 0.  1.
          5    1    4    4  501    0 -0.71787851272E+02 -0.10488878024E+03 -0.29071169728E+03  0.31731043971E+03  0.41800000000E+01 0.  1.
         -5    1    4    4    0  501 -0.53978190250E+02  0.33631759360E+02 -0.12917017533E+03  0.14403869915E+03  0.41800000000E+01 0.  1.
</event>
<event>
11    1  0.8479398E-009  0.1343021E+03  0.7561462E-02  0.1114093E+00
         22   -1    0    0    0    0  0.00000000000E+00  0.00000000000E+00  0.23618532857E+04  0.23618532857E+04  0.00000000000E+00 0.  1.
         22   -1    0    0    0    0 -0.00000000000E+00 -0.00000000000E+00 -0.13161199350E+04  0.13161199350E+04  0.00000000000E+00 0.  1.
         24    2    1    2    0    0  0.11225385413E+02 -0.46496782164E+02 -0.12709536218E+04  0.12762492315E+04  0.10583492911E+03 0.  0.
         25    2    1    2    0    0 -0.38941996245E+02  0.11741580299E+03  0.14587666355E+03  0.22853938440E+03  0.12508916575E+03 0.  0.
        -24    2    1    2    0    0  0.27716610832E+02 -0.70919020827E+02  0.21708103089E+04  0.21731846049E+04  0.67202764084E+02 0.  0.
        -11    1    3    3    0    0 -0.28811426157E+01 -0.17608748859E+02 -0.11733861575E+04  0.11735218122E+04  0.00000000000E+00 0.  1.
         12    1    3    3    0    0  0.14106528029E+02 -0.28888033306E+02 -0.97567464246E+02  0.10272741932E+03  0.00000000000E+00 0. -1.
         11    1    5    5    0    0 -0.15123143188E+02 -0.52617398768E+02  0.11004594369E+04  0.11018204356E+04  0.00000000000E+00 0. -1.
        -12    1    5    5    0    0  0.42839754020E+02 -0.18301622059E+02  0.10703508720E+04  0.10713641692E+04  0.00000000000E+00 0.  1.
          5    1    4    4  501    0  0.61153434031E+01  0.11181380293E+03  0.14458312386E+03  0.18292478251E+03  0.41800000000E+01 0.  1.
         -5    1    4    4    0  501 -0.45057339648E+02  0.56020000621E+01  0.12935396944E+01  0.45614601893E+02  0.41800000000E+01 0.  1.
</event>
<event>
11    1  0.8479398E-009  0.1332413E+03  0.7561462E-02  0.1115349E+00
         22   -1    0    0    0    0  0.00000000000E+00  0.00000000000E+00  0.10156866282E+04  0.10156866282E+04  0.00000000000E+00 0. -1.
         22   -1    0    0    0    0 -0.00000000000E+00 -0.00000000000E+00 -0.64110270845E+03  0.64110270845E+03  0.00000000000E+00 0. -1.
         24    2    1    2    0    0 -0.44746980165E+02 -0.95700492973E+01 -0.61742062874E+03  0.62419583257E+03  0.79487901748E+02 0.  0.
         25    2    1    2    0    0  0.53429682414E+02  0.16798543504E+02  0.24151226434E+03  0.27769166678E+03  0.12509023121E+03 0.  0.
        -24    2    1    2    0    0 -0.86827022490E+01 -0.72284942065E+01  0.75049228414E+03  0.75490183730E+03  0.80687514306E+02 0.  0.
        -11    1    3    3    0    0  0.15519051841E+02  0.18658753023E+02 -0.12910670529E+03  0.13136792373E+03  0.00000000000E+00 0.  1.
         12    1    3    3    0    0 -0.60266032006E+02 -0.28228802320E+02 -0.48831392345E+03  0.49282790884E+03  0.00000000000E+00 0. -1.
         13    1    5    5    0    0 -0.19905902575E+02 -0.39306924380E+02  0.52722230782E+03  0.52906014887E+03  0.00000000000E+00 0. -1.
        -14    1    5    5    0    0  0.11223200326E+02  0.32078430173E+02  0.22326997632E+03  0.22584168843E+03  0.00000000000E+00 0.  1.
          5    1    4    4  501    0 -0.29234315527E+02 -0.95528013488E+01  0.13787455453E+02  0.33962737607E+02  0.41800000000E+01 0.  1.
         -5    1    4    4    0  501  0.82663997940E+02  0.26351344853E+02  0.22772480889E+03  0.24372892917E+03  0.41800000000E+01 0.  1.
</event>
<event>
11    1  0.8479398E-009  0.2458662E+03  0.7561462E-02  0.1026125E+00
         22   -1    0    0    0    0  0.00000000000E+00  0.00000000000E+00  0.74923988159E+03  0.74923988159E+03  0.00000000000E+00 0.  1.
         22   -1    0    0    0    0 -0.00000000000E+00 -0.00000000000E+00 -0.14748554738E+04  0.14748554738E+04  0.00000000000E+00 0. -1.
         24    2    1    2    0    0  0.76944587148E+02 -0.64620849560E+02 -0.12425174741E+04  0.12493594679E+04  0.83385147920E+02 0.  0.
         25    2    1    2    0    0 -0.58837897673E+02 -0.15224564325E+03 -0.15889249838E+03  0.25987426090E+03  0.12508865396E+03 0.  0.
        -24    2    1    2    0    0 -0.18106689476E+02  0.21686649281E+03  0.67579438029E+03  0.71486162657E+03  0.83487560729E+02 0.  0.
        -13    1    3    3    0    0  0.24554435028E+02 -0.99942514831E+01 -0.79829077886E+03  0.79873085138E+03  0.00000000000E+00 0.  1.
         14    1    3    3    0    0  0.52390152120E+02 -0.54626598077E+02 -0.44422669529E+03  0.45062861657E+03  0.00000000000E+00 0. -1.
         13    1    5    5    0    0 -0.41863655601E+02  0.53342696887E+02  0.19089745634E+03  0.20258294057E+03  0.00000000000E+00 0. -1.
        -14    1    5    5    0    0  0.23756966125E+02  0.16352379592E+03  0.48489692395E+03  0.51227868600E+03  0.00000000000E+00 0.  1.
          5    1    4    4  501    0 -0.35273925715E+01 -0.12398854555E+03 -0.48716482078E+02  0.13332805388E+03  0.41800000000E+01 0. -1.
         -5    1    4    4    0  501 -0.55310505101E+02 -0.28257097704E+02 -0.11017601630E+03  0.12654620703E+03  0.41800000000E+01 0. -1.
</event>
<event>
11    1  0.8479398E-009  0.1532761E+03  0.7561462E-02  0.1093578E+00
         22   -1    0    0    0    0  0.00000000000E+00  0.00000000000E+00  0.17061365300E+03  0.17061365300E+03  0.00000000000E+00 0.  1.
         22   -1    0    0    0    0 -0.00000000000E+00 -0.00000000000E+00 -0.17052702483E+04  0.17052702483E+04  0.00000000000E+00 0.  1.
        -24    2    1    2    0    0  0.84677062978E+02 -0.37948772266E+02 -0.14843261050E+04  0.14893696270E+04  0.79922373514E+02 0.  0.
         25    2    1    2    0    0 -0.61628372417E+02 -0.28695695574E+02 -0.17278491530E+03  0.22388454026E+03  0.12509261042E+03 0.  0.
         24    2    1    2    0    0 -0.23048690561E+02  0.66644467840E+02  0.12245442493E+03  0.16262973402E+03  0.80502279285E+02 0.  0.
        -13    1    5    5    0    0 -0.28133667263E+02  0.78824652738E+02  0.71764594066E+02  0.11024965340E+03  0.00000000000E+00 0.  1.
         14    1    5    5    0    0  0.50849767021E+01 -0.12180184898E+02  0.50689830868E+02  0.52380080618E+02  0.00000000000E+00 0. -1.
         13    1    3    3    0    0  0.25982112647E+02 -0.32030911116E+02 -0.23079989544E+03  0.23445605384E+03  0.00000000000E+00 0. -1.
        -14    1    3    3    0    0  0.58694950331E+02 -0.59178611497E+01 -0.12535262095E+04  0.12549135732E+04  0.00000000000E+00 0.  1.
          5    1    4    4  501    0 -0.12124550917E+02 -0.27549598147E+02 -0.17150337980E+03  0.17417481671E+03  0.41800000000E+01 0.  1.
         -5    1    4    4    0  501 -0.49503821500E+02 -0.11460974271E+01 -0.12815355032E+01  0.49709723552E+02  0.41800000000E+01 0.  1.
</event>
<event>
11    1  0.8479398E-009  0.1740024E+03  0.7561462E-02  0.1074600E+00
         22   -1    0    0    0    0  0.00000000000E+00  0.00000000000E+00  0.99392618931E+03  0.99392618931E+03  0.00000000000E+00 0.  1.
         22   -1    0    0    0    0 -0.00000000000E+00 -0.00000000000E+00 -0.11620755160E+03  0.11620755160E+03  0.00000000000E+00 0. -1.
         24    2    1    2    0    0  0.54416295267E+02  0.98308510388E+02 -0.23308806406E+02  0.13976140461E+03  0.79776270639E+02 0.  0.
         25    2    1    2    0    0 -0.72230706720E+02 -0.17693238767E+03  0.44018221458E+03  0.49591276968E+03  0.12508696293E+03 0.  0.
        -24    2    1    2    0    0  0.17814411453E+02  0.78623877283E+02  0.46084522953E+03  0.47445956662E+03  0.78958770514E+02 0.  0.
        -13    1    3    3    0    0 -0.85731692029E+01 -0.92934380536E+01  0.11710462894E+01  0.12697975053E+02  0.00000000000E+00 0.  1.
         14    1    3    3    0    0  0.62989464470E+02  0.10760194844E+03 -0.24479852695E+02  0.12706342956E+03  0.00000000000E+00 0. -1.
         11    1    5    5    0    0  0.28393287698E+02  0.63912969253E+02  0.18120011695E+03  0.19422803301E+03  0.00000000000E+00 0. -1.
        -12    1    5    5    0    0 -0.10578876245E+02  0.14710908030E+02  0.27964511258E+03  0.28023153361E+03  0.00000000000E+00 0.  1.
          5    1    4    4  501    0 -0.19872323964E+02  0.10082645449E+02  0.11430954329E+03  0.11653631660E+03  0.41800000000E+01 0.  1.
         -5    1    4    4    0  501 -0.52358382756E+02 -0.18701503312E+03  0.32587267129E+03  0.37937645308E+03  0.41800000000E+01 0.  1.
</event>
<event>
11    1  0.8479398E-009  0.1285750E+03  0.7561462E-02  0.1121032E+00
         22   -1    0    0    0    0  0.00000000000E+00  0.00000000000E+00  0.46614227405E+03  0.46614227405E+03  0.00000000000E+00 0. -1.
         22   -1    0    0    0    0 -0.00000000000E+00 -0.00000000000E+00 -0.34715553856E+03  0.34715553856E+03  0.00000000000E+00 0.  1.
         24    2    1    2    0    0 -0.26267210080E+02 -0.13972782797E+02 -0.22163773827E+03  0.23751314418E+03  0.80025006402E+02 0.  0.
         25    2    1    2    0    0  0.63830945506E+01  0.36434169418E+02 -0.74390258822E+02  0.15016898978E+03  0.12509445346E+03 0.  0.
        -24    2    1    2    0    0  0.19884115529E+02 -0.22461386621E+02  0.41501473258E+03  0.42561567866E+03  0.89507461831E+02 0.  0.
        -13    1    3    3    0    0 -0.52119448981E+02  0.31962515062E+01 -0.16314001107E+03  0.17129307107E+03  0.00000000000E+00 0.  1.
         14    1    3    3    0    0  0.25852238901E+02 -0.17169034303E+02 -0.58497727202E+02  0.66220073111E+02  0.00000000000E+00 0. -1.
         11    1    5    5    0    0  0.26570603439E+02 -0.55048415826E+02  0.26590475475E+03  0.27283999643E+03  0.00000000000E+00 0. -1.
        -12    1    5    5    0    0 -0.66864879099E+01  0.32587029205E+02  0.14910997783E+03  0.15277568223E+03  0.00000000000E+00 0.  1.
          5    1    4    4  501    0  0.50958439082E+02 -0.22225805732E+02 -0.40825703700E+02  0.69101081299E+02  0.41800000000E+01 0.  1.
         -5    1    4    4    0  501 -0.44575344531E+02  0.58659975150E+02 -0.33564555121E+02  0.81067908479E+02  0.41800000000E+01 0.  1.
</event>
<event>
11    1  0.8479398E-009  0.2328354E+03  0.7561462E-02  0.1033462E+00
         22   -1    0    0    0    0  0.00000000000E+00  0.00000000000E+00  0.45893628209E+03  0.45893628209E+03  0.00000000000E+00 0. -1.
         22   -1    0    0    0    0 -0.00000000000E+00 -0.00000000000E+00 -0.93783900631E+03  0.93783900631E+03  0.00000000000E+00 0. -1.
         24    2    1    2    0    0  0.18186150472E+02  0.52598777195E+02 -0.80272524184E+03  0.80863174652E+03  0.80125652336E+02 0.  0.
         25    2    1    2    0    0 -0.50621458617E+02 -0.23086440149E+03  0.91103680963E+02  0.28250218201E+03  0.12508676273E+03 0.  0.
        -24    2    1    2    0    0  0.32435308145E+02  0.17826562429E+03  0.23271883665E+03  0.30564135987E+03  0.80174197303E+02 0.  0.
        -13    1    3    3    0    0 -0.19874747615E+01  0.56402347239E+02 -0.28690992800E+03  0.29240807379E+03  0.00000000000E+00 0.  1.
         14    1    3    3    0    0  0.20173625234E+02 -0.38035700444E+01 -0.51581531383E+03  0.51622367273E+03  0.00000000000E+00 0. -1.
         11    1    5    5    0    0 -0.47275578534E-02  0.16168613902E+03  0.18821007692E+03  0.24812384131E+03  0.00000000000E+00 0. -1.
        -12    1    5    5    0    0  0.32440035703E+02  0.16579485270E+02  0.44508759733E+02  0.57517518560E+02  0.00000000000E+00 0.  1.
          5    1    4    4  501    0  0.27153488755E+02 -0.10227587365E+03 -0.15376477660E+01  0.10591271427E+03  0.41800000000E+01 0.  1.
         -5    1    4    4    0  501 -0.77774947373E+02 -0.12858852783E+03  0.92641328729E+02  0.17658946774E+03  0.41800000000E+01 0.  1.
</event>
<event>
11    1  0.8479398E-009  0.1412043E+03  0.7561462E-02  0.1106221E+00
         22   -1    0    0    0    0  0.00000000000E+00  0.00000000000E+00  0.93040799786E+03  0.93040799786E+03  0.00000000000E+00 0.  1.
         22   -1    0    0    0    0 -0.00000000000E+00 -0.00000000000E+00 -0.45989709329E+03  0.45989709329E+03  0.00000000000E+00 0.  1.
        -24    2    1    2    0    0  0.17506621738E+02  0.21012671767E+02 -0.41209338890E+03  0.42092293667E+03  0.81284335890E+02 0.  0.
         25    2    1    2    0    0 -0.24280813197E+02 -0.84344678973E+02  0.10606562080E+03  0.18601803296E+03  0.12509680215E+03 0.  0.
         24    2    1    2    0    0  0.67741914591E+01  0.63332007206E+02  0.77653867266E+03  0.78336412152E+03  0.81180071033E+02 0.  0.
        -13    1    5    5    0    0 -0.15217023745E+02  0.55754484921E+02  0.71875198966E+03  0.72107180158E+03  0.00000000000E+00 0.  1.
         14    1    5    5    0    0  0.21991215205E+02  0.75775222848E+01  0.57786683007E+02  0.62292319937E+02  0.00000000000E+00 0. -1.
         13    1    3    3    0    0  0.84558783384E+01  0.19552222726E+02 -0.21653423366E+02  0.30375352433E+02  0.00000000000E+00 0. -1.
        -14    1    3    3    0    0  0.90507433993E+01  0.14604490412E+01 -0.39043996554E+03  0.39054758424E+03  0.00000000000E+00 0.  1.
          5    1    4    4  501    0 -0.52578901676E+02 -0.72010302268E+02  0.12188976293E+03  0.15107816269E+03  0.41800000000E+01 0.  1.
         -5    1    4    4    0  501  0.28298088479E+02 -0.12334376704E+02 -0.15824142130E+02  0.34939870269E+02  0.41800000000E+01 0.  1.
</event>
<event>
11    1  0.8479398E-009  0.1358923E+03  0.7561462E-02  0.1112234E+00
         22   -1    0    0    0    0  0.00000000000E+00  0.00000000000E+00  0.16595769319E+04  0.16595769319E+04  0.00000000000E+00 0.  1.
         22   -1    0    0    0    0 -0.00000000000E+00 -0.00000000000E+00 -0.32764974924E+03  0.32764974924E+03  0.00000000000E+00 0.  1.
         24    2    1    2    0    0  0.88355341977E+01  0.36923333133E+01 -0.19099851026E+03  0.20809153237E+03  0.82036302516E+02 0.  0.
         25    2    1    2    0    0  0.36930612625E+02  0.23446789887E+02 -0.91992109405E+02  0.16131713757E+03  0.12508816322E+03 0.  0.
        -24    2    1    2    0    0 -0.45766146822E+02 -0.27139123201E+02  0.16149178023E+04  0.16178180112E+04  0.80898311937E+02 0.  0.
        -11    1    3    3    0    0  0.87359758107E+01 -0.36902685125E+02 -0.12482482998E+03  0.13045828307E+03  0.00000000000E+00 0.  1.
         12    1    3    3    0    0  0.99558386940E-01  0.40595018439E+02 -0.66173680289E+02  0.77633249300E+02  0.00000000000E+00 0. -1.
         13    1    5    5    0    0  0.15922831725E+02 -0.12264168337E+02  0.12995718502E+03  0.13150215334E+03  0.00000000000E+00 0. -1.
        -14    1    5    5    0    0 -0.61688978548E+02 -0.14874954863E+02  0.14849606173E+04  0.14863158579E+04  0.00000000000E+00 0.  1.
          5    1    4    4  501    0  0.53985700735E+02 -0.17281597637E+02  0.25426559902E+01  0.56895052511E+02  0.41800000000E+01 0. -1.
         -5    1    4    4    0  501 -0.17055088110E+02  0.40728387524E+02 -0.94534765395E+02  0.10442208506E+03  0.41800000000E+01 0. -1.
</event>
<event>
11    1  0.8479398E-009  0.1663130E+03  0.7561462E-02  0.1081286E+00
         22   -1    0    0    0    0  0.00000000000E+00  0.00000000000E+00  0.46144208723E+03  0.46144208723E+03  0.00000000000E+00 0. -1.
         22   -1    0    0    0    0 -0.00000000000E+00 -0.00000000000E+00 -0.52597938071E+03  0.52597938071E+03  0.00000000000E+00 0.  1.
         24    2    1    2    0    0  0.49744756816E+02 -0.10121234608E+03 -0.45668220789E+03  0.47723543009E+03  0.80476933934E+02 0.  0.
         25    2    1    2    0    0 -0.19225641263E+02 -0.44819352100E+02  0.83199881840E+02  0.15794960662E+03  0.12508980090E+03 0.  0.
        -24    2    1    2    0    0 -0.30519115553E+02  0.14603169818E+03  0.30894503258E+03  0.35223643124E+03  0.79792211723E+02 0.  0.
        -11    1    3    3    0    0 -0.57785644007E+01 -0.18229704733E+02 -0.21349199784E+03  0.21434679163E+03  0.00000000000E+00 0.  1.
         12    1    3    3    0    0  0.55523321216E+02 -0.82982641343E+02 -0.24319021005E+03  0.26288863846E+03  0.00000000000E+00 0. -1.
         11    1    5    5    0    0 -0.60344214337E+01  0.14347697403E+03  0.24915158020E+03  0.28757358404E+03  0.00000000000E+00 0. -1.
        -12    1    5    5    0    0 -0.24484694119E+02  0.25547241502E+01  0.59793452372E+02  0.64662847201E+02  0.00000000000E+00 0.  1.
          5    1    4    4  501    0 -0.75714737294E+01 -0.86021747420E+02  0.74345641858E+02  0.11402550200E+03  0.41800000000E+01 0.  1.
         -5    1    4    4    0  501 -0.11654167533E+02  0.41202395320E+02  0.88542399812E+01  0.43924104619E+02  0.41800000000E+01 0.  1.
</event>
<event>
11    1  0.8479398E-009  0.1596718E+03  0.7561462E-02  0.1087386E+00
         22   -1    0    0    0    0  0.00000000000E+00  0.00000000000E+00  0.77207861936E+02  0.77207861936E+02  0.00000000000E+00 0.  1.
         22   -1    0    0    0    0 -0.00000000000E+00 -0.00000000000E+00 -0.15852624156E+04  0.15852624156E+04  0.00000000000E+00 0. -1.
        -24    2    1    2    0    0  0.29799507272E+02  0.18617208037E+02 -0.10128149936E+04  0.10165457319E+04  0.79601524802E+02 0.  0.
         25    2    1    2    0    0 -0.12509898725E+03 -0.25153932619E+02 -0.48677418908E+03  0.51853573507E+03  0.12509084879E+03 0.  0.
         24    2    1    2    0    0  0.95299479978E+02  0.65367245821E+01 -0.84653710648E+01  0.12738881063E+03  0.83854200336E+02 0.  0.
        -13    1    5    5    0    0  0.99218687784E+02 -0.30859198769E+01  0.16241075868E+02  0.10058649737E+03  0.00000000000E+00 0.  1.
         14    1    5    5    0    0 -0.39192078060E+01  0.96226444590E+01 -0.24706446933E+02  0.26802313263E+02  0.00000000000E+00 0. -1.
         13    1    3    3    0    0  0.45864643856E+02  0.31351709024E+02 -0.91071725657E+03  0.91241022387E+03  0.00000000000E+00 0. -1.
        -14    1    3    3    0    0 -0.16065136585E+02 -0.12734500987E+02 -0.10209773700E+03  0.10413550801E+03  0.00000000000E+00 0.  1.
          5    1    4    4  501    0  0.95559118571E+01  0.28949108496E+02 -0.55194085994E+02  0.63191976254E+02  0.41800000000E+01 0.  1.
         -5    1    4    4    0  501 -0.13465489911E+03 -0.54103041115E+02 -0.43158010308E+03  0.45534375881E+03  0.41800000000E+01 0.  1.
</event>
<event>
11    1  0.8479398E-009  0.1459853E+03  0.7561462E-02  0.1101053E+00
         22   -1    0    0    0    0  0.00000000000E+00  0.00000000000E+00  0.73339874787E+03  0.73339874787E+03  0.00000000000E+00 0. -1.
         22   -1    0    0    0    0 -0.00000000000E+00 -0.00000000000E+00 -0.77426452349E+03  0.77426452349E+03  0.00000000000E+00 0. -1.
        -24    2    1    2    0    0  0.63952357892E+01 -0.77718312101E+02 -0.72499454361E+03  0.73368368530E+03  0.81201149804E+02 0.  0.
         25    2    1    2    0    0 -0.23499234685E+02  0.99800584309E+01  0.60926642179E+02  0.14145919289E+03  0.12508729723E+03 0.  0.
         24    2    1    2    0    0  0.17103998896E+02  0.67738253670E+02  0.62320212582E+03  0.63252039317E+03  0.82584141109E+02 0.  0.
        -13    1    5    5    0    0 -0.17111146538E+02 -0.27276263282E+01  0.34267748433E+02  0.38399347180E+02  0.00000000000E+00 0.  1.
         14    1    5    5    0    0  0.34215145434E+02  0.70465879999E+02  0.58893437738E+03  0.59412104599E+03  0.00000000000E+00 0. -1.
         11    1    3    3    0    0  0.12165007813E+02 -0.78634661996E+02 -0.72321142401E+03  0.72757553649E+03  0.00000000000E+00 0. -1.
        -12    1    3    3    0    0 -0.57697720242E+01  0.91634989437E+00 -0.17831196026E+01  0.61081488077E+01  0.00000000000E+00 0.  1.
          5    1    4    4  501    0  0.36489767961E+02  0.51007959917E+01  0.71182417309E+02  0.80261636039E+02  0.41800000000E+01 0. -1.
         -5    1    4    4    0  501 -0.59989002647E+02  0.48792624392E+01 -0.10255775130E+02  0.61197556847E+02  0.41800000000E+01 0. -1.
</event>
<event>
11    1  0.8479398E-009  0.2535991E+03  0.7561462E-02  0.1021999E+00
         22   -1    0    0    0    0  0.00000000000E+00  0.00000000000E+00  0.13225441419E+04  0.13225441419E+04  0.00000000000E+00 0. -1.
         22   -1    0    0    0    0 -0.00000000000E+00 -0.00000000000E+00 -0.92323438277E+03  0.92323438277E+03  0.00000000000E+00 0. -1.
         24    2    1    2    0    0 -0.67534362706E+02 -0.17650371164E+02 -0.87303094901E+03  0.87945298248E+03  0.79887950954E+02 0.  0.
         25    2    1    2    0    0  0.75181357204E+02  0.22443404281E+03  0.79698066350E+03  0.84074485243E+03  0.12510336864E+03 0.  0.
        -24    2    1    2    0    0 -0.76469944979E+01 -0.20678367164E+03  0.47536004469E+03  0.52558068981E+03  0.86312954030E+02 0.  0.
        -11    1    3    3    0    0 -0.69723355870E+02 -0.12917440896E+02 -0.39000731684E+03  0.39640120310E+03  0.00000000000E+00 0.  1.
         12    1    3    3    0    0  0.21889931638E+01 -0.47329302685E+01 -0.48302363217E+03  0.48305177937E+03  0.00000000000E+00 0. -1.
         11    1    5    5    0    0 -0.23790942547E+02 -0.15554326318E+03  0.41967864270E+03  0.44820740602E+03  0.00000000000E+00 0. -1.
        -12    1    5    5    0    0  0.16143948049E+02 -0.51240408464E+02  0.55681401989E+02  0.77373283797E+02  0.00000000000E+00 0.  1.
          5    1    4    4  501    0  0.21149647202E+02  0.19650428229E+03  0.50181807044E+03  0.53935154468E+03  0.41800000000E+01 0. -1.
         -5    1    4    4    0  501  0.54031710002E+02  0.27929760519E+02  0.29516259306E+03  0.30139330774E+03  0.41800000000E+01 0. -1.
</event>
<event>
11    1  0.8479398E-009  0.1489829E+03  0.7561462E-02  0.1097923E+00
         22   -1    0    0    0    0  0.00000000000E+00  0.00000000000E+00  0.23879087558E+04  0.23879087558E+04  0.00000000000E+00 0. -1.
         22   -1    0    0    0    0 -0.00000000000E+00 -0.00000000000E+00 -0.74329226073E+02  0.74329226073E+02  0.00000000000E+00 0.  1.
        -24    2    1    2    0    0 -0.35104372669E+02 -0.12567464488E+02 -0.33158214402E+02  0.94767216051E+02  0.80567362570E+02 0.  0.
         25    2    1    2    0    0 -0.29696491703E+02  0.66438382301E+02  0.61358615521E+03  0.63042072957E+03  0.12508551536E+03 0.  0.
         24    2    1    2    0    0  0.64800864373E+02 -0.53870917814E+02  0.17331515889E+04  0.17370500362E+04  0.80169635412E+02 0.  0.
        -11    1    5    5    0    0  0.32285485899E+02 -0.15219579007E+02  0.20642078721E+03  0.20948396019E+03  0.00000000000E+00 0.  1.
         12    1    5    5    0    0  0.32515378474E+02 -0.38651338807E+02  0.15267308017E+04  0.15275660760E+04  0.00000000000E+00 0. -1.
         13    1    3    3    0    0  0.90780043329E+01  0.27275714081E+02 -0.59941809235E+01  0.29365029307E+02  0.00000000000E+00 0. -1.
        -14    1    3    3    0    0 -0.44182377002E+02 -0.39843178568E+02 -0.27164033478E+02  0.65402186743E+02  0.00000000000E+00 0.  1.
          5    1    4    4  501    0 -0.58024750442E+01  0.23992966708E+02  0.13687453228E+02  0.28533312881E+02  0.41800000000E+01 0.  1.
         -5    1    4    4    0  501 -0.23894016659E+02  0.42445415594E+02  0.59989870198E+03  0.60188741669E+03  0.41800000000E+01 0.  1.
</event>
<event>
11    1  0.8479398E-009  0.1315327E+03  0.7561462E-02  0.1117400E+00
         22   -1    0    0    0    0  0.00000000000E+00  0.00000000000E+00  0.12853778089E+04  0.12853778089E+04  0.00000000000E+00 0.  1.
         22   -1    0    0    0    0 -0.00000000000E+00 -0.00000000000E+00 -0.32980320679E+03  0.32980320679E+03  0.00000000000E+00 0. -1.
        -24    2    1    2    0    0 -0.71232531592E+01 -0.55510232910E+01 -0.22637184094E+03  0.23885924550E+03  0.75683381233E+02 0.  0.
         25    2    1    2    0    0 -0.32396886179E+02 -0.45946786379E+01 -0.51850596656E+02  0.13930680354E+03  0.12508889573E+03 0.  0.
         24    2    1    2    0    0  0.39520139339E+02  0.10145701929E+02  0.12337970397E+04  0.12370149666E+04  0.79285029357E+02 0.  0.
        -13    1    5    5    0    0  0.40178189279E+02  0.16267828227E+02  0.12272944278E+04  0.12280596653E+04  0.00000000000E+00 0.  1.
         14    1    5    5    0    0 -0.65804994052E+00 -0.61221262984E+01  0.65026119001E+01  0.89553013160E+01  0.00000000000E+00 0. -1.
         13    1    3    3    0    0 -0.64412586288E+01  0.12546006146E+02 -0.21876097173E+03  0.21921508807E+03  0.00000000000E+00 0. -1.
        -14    1    3    3    0    0 -0.68199453035E+00 -0.18097029437E+02 -0.76108692012E+01  0.19644157426E+02  0.00000000000E+00 0.  1.
          5    1    4    4  501    0 -0.62411356795E+02  0.37373052462E+02 -0.11707102750E+02  0.73800075623E+02  0.41800000000E+01 0. -1.
         -5    1    4    4    0  501  0.30014470615E+02 -0.41967731099E+02 -0.40143493907E+02  0.65506727921E+02  0.41800000000E+01 0. -1.
</event>
<event>
11    1  0.8479398E-009  0.1425631E+03  0.7561462E-02  0.1104730E+00
         22   -1    0    0    0    0  0.00000000000E+00  0.00000000000E+00  0.26898017844E+04  0.26898017844E+04  0.00000000000E+00 0.  1.
         22   -1    0    0    0    0 -0.00000000000E+00 -0.00000000000E+00 -0.11831792659E+03  0.11831792659E+03  0.00000000000E+00 0. -1.
         24    2    1    2    0    0  0.34071083998E+02  0.62871891016E+02 -0.78352187536E+02  0.13269329030E+03  0.79716563867E+02 0.  0.
         25    2    1    2    0    0 -0.65180659195E+02  0.25525867632E+01  0.42172917661E+03  0.44470004853E+03  0.12509037023E+03 0.  0.
        -24    2    1    2    0    0  0.31109575197E+02 -0.65424477779E+02  0.22281068687E+04  0.22307263722E+04  0.80198260185E+02 0.  0.
        -13    1    3    3    0    0  0.25876455447E+02 -0.10429769341E+02 -0.43964020523E+01  0.28243572472E+02  0.00000000000E+00 0.  1.
         14    1    3    3    0    0  0.81946285509E+01  0.73301660357E+02 -0.73955785484E+02  0.10444971783E+03  0.00000000000E+00 0. -1.
         11    1    5    5    0    0  0.10013755977E+02 -0.96196791886E+01  0.52609890526E+02  0.54411525596E+02  0.00000000000E+00 0. -1.
        -12    1    5    5    0    0  0.21095819220E+02 -0.55804798590E+02  0.21754969782E+04  0.21763148466E+04  0.00000000000E+00 0.  1.
          5    1    4    4  501    0 -0.42461787946E+02 -0.41309008607E+01  0.41820424649E+03  0.42039544712E+03  0.41800000000E+01 0.  1.
         -5    1    4    4    0  501 -0.22718871248E+02  0.66834876240E+01  0.35249301289E+01  0.24304601417E+02  0.41800000000E+01 0.  1.
</event>
<event>
11    1  0.8479398E-009  0.1509249E+03  0.7561462E-02  0.1095937E+00
         22   -1    0    0    0    0  0.00000000000E+00  0.00000000000E+00  0.16512891716E+03  0.16512891716E+03  0.00000000000E+00 0. -1.
         22   -1    0    0    0    0 -0.00000000000E+00 -0.00000000000E+00 -0.33681495590E+03  0.33681495590E+03  0.00000000000E+00 0.  1.
        -24    2    1    2    0    0 -0.34975726391E+02  0.76699596618E+02 -0.21156228159E+03  0.24105537839E+03  0.79012447757E+02 0.  0.
         25    2    1    2    0    0  0.85425764924E+02 -0.52051114207E+02  0.24525887299E+02  0.16203783092E+03  0.12509140538E+03 0.  0.
         24    2    1    2    0    0 -0.50450038533E+02 -0.24648482411E+02  0.15350355553E+02  0.98850663745E+02  0.79894093863E+02 0.  0.
        -11    1    5    5    0    0  0.81992512542E+01 -0.36750615822E+02  0.82391326079E+01  0.38545022903E+02  0.00000000000E+00 0.  1.
         12    1    5    5    0    0 -0.58649289787E+02  0.12102133411E+02  0.71112229450E+01  0.60305640843E+02  0.00000000000E+00 0. -1.
         13    1    3    3    0    0 -0.20402844187E+01  0.97394085238E+01  0.56080274160E+01  0.11422294446E+02  0.00000000000E+00 0. -1.
        -14    1    3    3    0    0 -0.32935441972E+02  0.66960188095E+02 -0.21717030900E+03  0.22963308394E+03  0.00000000000E+00 0.  1.
          5    1    4    4  501    0  0.36806778698E+02 -0.90492373430E+02  0.19566589804E+02  0.99719268167E+02  0.41800000000E+01 0.  1.
         -5    1    4    4    0  501  0.48618986226E+02  0.38441259223E+02  0.49592974945E+01  0.62318562756E+02  0.41800000000E+01 0.  1.
</event>
<event>
11    1  0.8479398E-009  0.1325691E+03  0.7561462E-02  0.1116152E+00
         22   -1    0    0    0    0  0.00000000000E+00  0.00000000000E+00  0.10459187215E+04  0.10459187215E+04  0.00000000000E+00 0. -1.
         22   -1    0    0    0    0 -0.00000000000E+00 -0.00000000000E+00 -0.18267699283E+04  0.18267699283E+04  0.00000000000E+00 0.  1.
         24    2    1    2    0    0  0.22842547841E+02  0.36679880020E+02 -0.17133134565E+04  0.17157759887E+04  0.81098997949E+02 0.  0.
         25    2    1    2    0    0 -0.52173259493E+02 -0.50281431881E+02 -0.63098921933E+02  0.15773123954E+03  0.12508956224E+03 0.  0.
        -24    2    1    2    0    0  0.29330711652E+02  0.13601551861E+02  0.99556117168E+03  0.99918142160E+03  0.78588636841E+02 0.  0.
        -11    1    3    3    0    0  0.17970126677E+02  0.42863388679E+02 -0.16972586353E+04  0.16978948939E+04  0.00000000000E+00 0.  1.
         12    1    3    3    0    0  0.48724211640E+01 -0.61835086595E+01 -0.16054821238E+02  0.17881094830E+02  0.00000000000E+00 0. -1.
         13    1    5    5    0    0 -0.29839108262E+01 -0.19352369940E+02  0.67810884863E+03  0.67839150093E+03  0.00000000000E+00 0. -1.
        -14    1    5    5    0    0  0.32314622478E+02  0.32953921801E+02  0.31745232305E+03  0.32078992066E+03  0.00000000000E+00 0.  1.
          5    1    4    4  501    0 -0.62300225064E+02 -0.82015543755E+02 -0.23329827117E+02  0.10568642625E+03  0.41800000000E+01 0.  1.
         -5    1    4    4    0  501  0.10126965571E+02  0.31734111874E+02 -0.39769094817E+02  0.52044813293E+02  0.41800000000E+01 0.  1.
</event>
<event>
11    1  0.8479398E-009  0.5802921E+03  0.7561462E-02  0.9230082E-01
         22   -1    0    0    0    0  0.00000000000E+00  0.00000000000E+00  0.26843093424E+04  0.26843093424E+04  0.00000000000E+00 0.  1.
         22   -1    0    0    0    0 -0.00000000000E+00 -0.00000000000E+00 -0.75275103055E+03  0.75275103055E+03  0.00000000000E+00 0.  1.
         24    2    1    2    0    0  0.32656343543E+02  0.56428764777E+03 -0.56379909602E+03  0.80228804615E+03  0.79433633518E+02 0.  0.
         25    2    1    2    0    0 -0.19874557837E+02 -0.58187839838E+03  0.12290206976E+04  0.13656928823E+04  0.12509078770E+03 0.  0.
        -24    2    1    2    0    0 -0.12781785706E+02  0.17590750614E+02  0.12663367103E+04  0.12690794445E+04  0.80505676992E+02 0.  0.
        -13    1    3    3    0    0  0.16493749142E+01  0.39096811554E+03 -0.42982884781E+03  0.58104356654E+03  0.00000000000E+00 0.  1.
         14    1    3    3    0    0  0.31006968629E+02  0.17331953223E+03 -0.13397024821E+03  0.22124447961E+03  0.00000000000E+00 0. -1.
         11    1    5    5    0    0 -0.41714080194E+00  0.47157091769E+02  0.54696759528E+03  0.54899682659E+03  0.00000000000E+00 0. -1.
        -12    1    5    5    0    0 -0.12364644904E+02 -0.29566341155E+02  0.71936911505E+03  0.72008261795E+03  0.00000000000E+00 0.  1.
          5    1    4    4  501    0  0.52356854646E+01 -0.37401681883E+03  0.64985735237E+03  0.74983201052E+03  0.41800000000E+01 0.  1.
         -5    1    4    4    0  501 -0.25110243301E+02 -0.20786157955E+03  0.57916334520E+03  0.61586087178E+03  0.41800000000E+01 0.  1.
</event>
<event>
11    1  0.8479398E-009  0.2153843E+03  0.7561462E-02  0.1044148E+00
         22   -1    0    0    0    0  0.00000000000E+00  0.00000000000E+00  0.81278115237E+03  0.81278115237E+03  0.00000000000E+00 0.  1.
         22   -1    0    0    0    0 -0.00000000000E+00 -0.00000000000E+00 -0.20661261625E+03  0.20661261625E+03  0.00000000000E+00 0. -1.
         24    2    1    2    0    0 -0.27466764870E+02  0.85196481526E+00 -0.13815491820E+03  0.15834048835E+03  0.72317216581E+02 0.  0.
         25    2    1    2    0    0 -0.10507606240E+03  0.12330226453E+03  0.21920834220E+03  0.29990981047E+03  0.12509664186E+03 0.  0.
        -24    2    1    2    0    0  0.13254282727E+03 -0.12415422934E+03  0.52511511212E+03  0.56114346979E+03  0.78448957809E+02 0.  0.
        -11    1    3    3    0    0  0.99908733656E+01 -0.28213381241E+02 -0.55247444533E+02  0.62833848832E+02  0.00000000000E+00 0.  1.
         12    1    3    3    0    0 -0.37457638236E+02  0.29065346056E+02 -0.82907473664E+02  0.95506639522E+02  0.00000000000E+00 0. -1.
         11    1    5    5    0    0  0.69754461040E+02 -0.17656642268E+02  0.15406694442E+03  0.17004136324E+03  0.00000000000E+00 0. -1.
        -12    1    5    5    0    0  0.62788366225E+02 -0.10649758708E+03  0.37104816770E+03  0.39110210654E+03  0.00000000000E+00 0.  1.
          5    1    4    4  501    0  0.22061270245E+02  0.38289572430E+02  0.87142818033E+02  0.97796391224E+02  0.41800000000E+01 0.  1.
         -5    1    4    4    0  501 -0.12713733264E+03  0.85012692097E+02  0.13206552416E+03  0.20211341925E+03  0.41800000000E+01 0.  1.
</event>
<event>
11    1  0.8479398E-009  0.1352210E+03  0.7561462E-02  0.1113015E+00
         22   -1    0    0    0    0  0.00000000000E+00  0.00000000000E+00  0.89507695943E+02  0.89507695943E+02  0.00000000000E+00 0.  1.
         22   -1    0    0    0    0 -0.00000000000E+00 -0.00000000000E+00 -0.13842499940E+04  0.13842499940E+04  0.00000000000E+00 0. -1.
         24    2    1    2    0    0 -0.40500349662E+02  0.32324542693E+02 -0.11844777089E+04  0.11883773805E+04  0.81044439352E+02 0.  0.
         25    2    1    2    0    0  0.58531325210E+01 -0.61467336794E+02 -0.12717314785E+03  0.18876633481E+03  0.12508887629E+03 0.  0.
        -24    2    1    2    0    0  0.34647217141E+02  0.29142794101E+02  0.16908558740E+02  0.96613974611E+02  0.83657806736E+02 0.  0.
        -11    1    3    3    0    0  0.94374603055E+01  0.28759049569E+02 -0.81030868283E+03  0.81087379416E+03  0.00000000000E+00 0.  1.
         12    1    3    3    0    0 -0.49937809968E+02  0.35654931240E+01 -0.37416902609E+03  0.37750358632E+03  0.00000000000E+00 0. -1.
         13    1    5    5    0    0  0.50694111152E+02  0.36420467170E+02 -0.11221264184E+02  0.63421290622E+02  0.00000000000E+00 0. -1.
        -14    1    5    5    0    0 -0.16046894010E+02 -0.72776730689E+01  0.28129822923E+02  0.33192683989E+02  0.00000000000E+00 0.  1.
          5    1    4    4  501    0  0.40377087154E+02 -0.58748913589E+02 -0.13526583512E+03  0.15295771496E+03  0.41800000000E+01 0.  1.
         -5    1    4    4    0  501 -0.34523954633E+02 -0.27184232043E+01  0.80926872755E+01  0.35808619850E+02  0.41800000000E+01 0.  1.
</event>
<event>
11    1  0.8479398E-009  0.1506925E+03  0.7561462E-02  0.1096173E+00
         22   -1    0    0    0    0  0.00000000000E+00  0.00000000000E+00  0.66951136843E+03  0.66951136843E+03  0.00000000000E+00 0. -1.
         22   -1    0    0    0    0 -0.00000000000E+00 -0.00000000000E+00 -0.99930317262E+03  0.99930317262E+03  0.00000000000E+00 0. -1.
         24    2    1    2    0    0 -0.69648754159E+02 -0.44328387611E+02 -0.90087235408E+03  0.90842778025E+03  0.82789363327E+02 0.  0.
         25    2    1    2    0    0  0.78797994142E+02  0.92642112298E+02 -0.71111339771E+01  0.17461429518E+03  0.12509156248E+03 0.  0.
        -24    2    1    2    0    0 -0.91492399829E+01 -0.48313724687E+02  0.57819168386E+03  0.58577246563E+03  0.80036451779E+02 0.  0.
        -13    1    3    3    0    0  0.13297449898E+02 -0.14434615459E+02 -0.64468762228E+02  0.67389922098E+02  0.00000000000E+00 0.  1.
         14    1    3    3    0    0 -0.82946204057E+02 -0.29893772153E+02 -0.83640359185E+03  0.84103785815E+03  0.00000000000E+00 0. -1.
         11    1    5    5    0    0  0.15373596349E+02 -0.40853829110E+02  0.52410281263E+03  0.52591742795E+03  0.00000000000E+00 0. -1.
        -12    1    5    5    0    0 -0.24522836331E+02 -0.74598955771E+01  0.54088871232E+02  0.59855037674E+02  0.00000000000E+00 0.  1.
          5    1    4    4  501    0  0.10808720226E+03  0.91131492893E+02  0.73862337336E+01  0.14163269798E+03  0.41800000000E+01 0.  1.
         -5    1    4    4    0  501 -0.29289208118E+02  0.15106194058E+01 -0.14497367711E+02  0.32981597198E+02  0.41800000000E+01 0.  1.
</event>
<event>
11    1  0.8479398E-009  0.1388498E+03  0.7561462E-02  0.1108850E+00
         22   -1    0    0    0    0  0.00000000000E+00  0.00000000000E+00  0.14533020644E+04  0.14533020644E+04  0.00000000000E+00 0.  1.
         22   -1    0    0    0    0 -0.00000000000E+00 -0.00000000000E+00 -0.28148473241E+03  0.28148473241E+03  0.00000000000E+00 0.  1.
         24    2    1    2    0    0  0.99369353623E+01  0.36521972487E+02 -0.22948067003E+03  0.24606909780E+03  0.80349398343E+02 0.  0.
         25    2    1    2    0    0  0.16144258078E+02  0.19627358909E+02  0.55712738300E+02  0.13927381711E+03  0.12508963441E+03 0.  0.
        -24    2    1    2    0    0 -0.26081193441E+02 -0.56149331396E+02  0.13455852638E+04  0.13494438819E+04  0.81031552006E+02 0.  0.
        -13    1    3    3    0    0  0.27082681231E+02  0.53261691064E+02 -0.19593962072E+03  0.20484778331E+03  0.00000000000E+00 0.  1.
         14    1    3    3    0    0 -0.17145745869E+02 -0.16739718576E+02 -0.33541049307E+02  0.41221314487E+02  0.00000000000E+00 0. -1.
         13    1    5    5    0    0  0.10993904426E+02 -0.72045540044E+01  0.34461467285E+02  0.36883116197E+02  0.00000000000E+00 0. -1.
        -14    1    5    5    0    0 -0.37075097867E+02 -0.48944777392E+02  0.13111237965E+04  0.13125607658E+04  0.00000000000E+00 0.  1.
          5    1    4    4  501    0  0.44919897721E+02  0.17751656100E+02  0.85067676222E+02  0.97912718497E+02  0.41800000000E+01 0. -1.
         -5    1    4    4    0  501 -0.28775639642E+02  0.18757028096E+01 -0.29354937923E+02  0.41361098611E+02  0.41800000000E+01 0. -1.
</event>
<event>
11    1  0.8479398E-009  0.1307896E+03  0.7561462E-02  0.1118303E+00
         22   -1    0    0    0    0  0.00000000000E+00  0.00000000000E+00  0.64505365656E+03  0.64505365656E+03  0.00000000000E+00 0. -1.
         22   -1    0    0    0    0 -0.00000000000E+00 -0.00000000000E+00 -0.36607518999E+03  0.36607518999E+03  0.00000000000E+00 0. -1.
         24    2    1    2    0    0 -0.37128187960E+02 -0.38210357760E+01 -0.31051986795E+03  0.32483224769E+03  0.87751342414E+02 0.  0.
         25    2    1    2    0    0  0.51382459726E+02 -0.13296658129E+02  0.56827703845E+02  0.14729650268E+03  0.12509961427E+03 0.  0.
        -24    2    1    2    0    0 -0.14254271766E+02  0.17117693905E+02  0.53267063068E+03  0.53900009618E+03  0.79289994226E+02 0.  0.
        -13    1    3    3    0    0  0.18800701412E+02  0.19472432782E+02 -0.45215612648E+02  0.52698136961E+02  0.00000000000E+00 0.  1.
         14    1    3    3    0    0 -0.55928889371E+02 -0.23293468558E+02 -0.26530425530E+03  0.27213411073E+03  0.00000000000E+00 0. -1.
         11    1    5    5    0    0 -0.84321424077E+01  0.29598841286E+01  0.51705621896E+03  0.51713344071E+03  0.00000000000E+00 0. -1.
        -12    1    5    5    0    0 -0.58221293587E+01  0.14157809776E+02  0.15614411724E+02  0.21866655470E+02  0.00000000000E+00 0.  1.
          5    1    4    4  501    0  0.17375719156E+02 -0.67118658588E+02  0.15157429720E+02  0.71091842166E+02  0.41800000000E+01 0.  1.
         -5    1    4    4    0  501  0.34006740570E+02  0.53822000459E+02  0.41670274125E+02  0.76204660509E+02  0.41800000000E+01 0.  1.
</event>
<event>
11    1  0.8479398E-009  0.1607329E+03  0.7561462E-02  0.1086390E+00
         22   -1    0    0    0    0  0.00000000000E+00  0.00000000000E+00  0.37186343398E+03  0.37186343398E+03  0.00000000000E+00 0.  1.
         22   -1    0    0    0    0 -0.00000000000E+00 -0.00000000000E+00 -0.25081146733E+03  0.25081146733E+03  0.00000000000E+00 0. -1.
         24    2    1    2    0    0 -0.70474502897E+01  0.99166441751E+02 -0.17426494925E+03  0.21593604233E+03  0.79852690099E+02 0.  0.
         25    2    1    2    0    0  0.12622290892E+02 -0.11107149440E+03  0.10049790860E+03  0.19556014054E+03  0.12509092628E+03 0.  0.
        -24    2    1    2    0    0 -0.55748406021E+01  0.11905052651E+02  0.19481900730E+03  0.21117871844E+03  0.80431314733E+02 0.  0.
        -11    1    3    3    0    0  0.20585818243E+02  0.39658352612E+02 -0.21313111514E+02  0.49505651870E+02  0.00000000000E+00 0.  1.
         12    1    3    3    0    0 -0.27633268533E+02  0.59508089139E+02 -0.15295183774E+03  0.16643039046E+03  0.00000000000E+00 0. -1.
         13    1    5    5    0    0  0.30990456988E+02  0.29653910459E+01  0.14731559489E+03  0.15056920823E+03  0.00000000000E+00 0. -1.
        -14    1    5    5    0    0 -0.36565297590E+02  0.89396616049E+01  0.47503412408E+02  0.60609510210E+02  0.00000000000E+00 0.  1.
          5    1    4    4  501    0 -0.50146246087E+01 -0.24649499391E+02 -0.29130047603E+02  0.38714033031E+02  0.41800000000E+01 0. -1.
         -5    1    4    4    0  501  0.17636915501E+02 -0.86421995011E+02  0.12962795620E+03  0.15684610751E+03  0.41800000000E+01 0. -1.
</event>
<event>
11    1  0.8479398E-009  0.1536728E+03  0.7561462E-02  0.1093184E+00
         22   -1    0    0    0    0  0.00000000000E+00  0.00000000000E+00  0.13166760618E+04  0.13166760618E+04  0.00000000000E+00 0.  1.
         22   -1    0    0    0    0 -0.00000000000E+00 -0.00000000000E+00 -0.17257280663E+03  0.17257280663E+03  0.00000000000E+00 0.  1.
         24    2    1    2    0    0 -0.83635919208E+02 -0.44740185568E+02 -0.11941688087E+03  0.17272734787E+03  0.81102984404E+02 0.  0.
         25    2    1    2    0    0  0.19794612213E+02  0.59289036082E+02  0.17928170604E+03  0.22736942658E+03  0.12509160463E+03 0.  0.
        -24    2    1    2    0    0  0.63841306994E+02 -0.14548850515E+02  0.10842384300E+04  0.10891520940E+04  0.79949541633E+02 0.  0.
        -11    1    3    3    0    0 -0.86086706241E+02 -0.86796178334E+01 -0.68863689346E+02  0.11058238769E+03  0.00000000000E+00 0.  1.
         12    1    3    3    0    0  0.24507870330E+01 -0.36060567734E+02 -0.50553191527E+02  0.62144960182E+02  0.00000000000E+00 0. -1.
         13    1    5    5    0    0  0.28103113914E+02  0.31000249720E+02  0.60163968310E+03  0.60309295202E+03  0.00000000000E+00 0. -1.
        -14    1    5    5    0    0  0.35738193080E+02 -0.45549100234E+02  0.48259874694E+03  0.48605914201E+03  0.00000000000E+00 0.  1.
          5    1    4    4  501    0  0.10793976719E+02 -0.25651323246E+02  0.12014249143E+03  0.12339445273E+03  0.41800000000E+01 0. -1.
         -5    1    4    4    0  501  0.90006354949E+01  0.84940359328E+02  0.59139214613E+02  0.10397497385E+03  0.41800000000E+01 0. -1.
</event>
<event>
11    1  0.8479398E-009  0.1339782E+03  0.7561462E-02  0.1114475E+00
         22   -1    0    0    0    0  0.00000000000E+00  0.00000000000E+00  0.36472844845E+03  0.36472844845E+03  0.00000000000E+00 0.  1.
         22   -1    0    0    0    0 -0.00000000000E+00 -0.00000000000E+00 -0.65458492423E+03  0.65458492423E+03  0.00000000000E+00 0. -1.
         24    2    1    2    0    0  0.46807119025E-01 -0.48879200202E+02 -0.59719627057E+03  0.60410176833E+03  0.76852992832E+02 0.  0.
         25    2    1    2    0    0 -0.27086131064E+02  0.24327434905E+02  0.44405112888E+02  0.13763767783E+03  0.12508730440E+03 0.  0.
        -24    2    1    2    0    0  0.27039323945E+02  0.24551765297E+02  0.26293468191E+03  0.27757392652E+03  0.81109330650E+02 0.  0.
        -11    1    3    3    0    0  0.12491152925E+02 -0.30794154933E+01 -0.43281669663E+03  0.43300785741E+03  0.00000000000E+00 0.  1.
         12    1    3    3    0    0 -0.12444345806E+02 -0.45799784709E+02 -0.16437957394E+03  0.17109391091E+03  0.00000000000E+00 0. -1.
         13    1    5    5    0    0 -0.41051807782E+01 -0.19756547586E+02  0.19057418820E+02  0.27755339915E+02  0.00000000000E+00 0. -1.
        -14    1    5    5    0    0  0.31144504723E+02  0.44308312883E+02  0.24387726309E+03  0.24981858661E+03  0.00000000000E+00 0.  1.
          5    1    4    4  501    0 -0.14204791029E+02  0.13952692457E+02 -0.43536978837E+02  0.48056161325E+02  0.41800000000E+01 0.  1.
         -5    1    4    4    0  501 -0.12881340035E+02  0.10374742448E+02  0.87942091725E+02  0.89581516503E+02  0.41800000000E+01 0.  1.
</event>
<event>
11    1  0.8479398E-009  0.1384627E+03  0.7561462E-02  0.1109287E+00
         22   -1    0    0    0    0  0.00000000000E+00  0.00000000000E+00  0.66870661499E+03  0.66870661499E+03  0.00000000000E+00 0. -1.
         22   -1    0    0    0    0 -0.00000000000E+00 -0.00000000000E+00 -0.39415441453E+03  0.39415441453E+03  0.00000000000E+00 0. -1.
         24    2    1    2    0    0 -0.34700011725E+02 -0.46062634661E+02 -0.34049793052E+03  0.35416637396E+03  0.78543762517E+02 0.  0.
         25    2    1    2    0    0  0.49393456831E+02  0.82039841955E+02  0.10106008986E+03  0.18716334447E+03  0.12508687584E+03 0.  0.
        -24    2    1    2    0    0 -0.14693445107E+02 -0.35977207294E+02  0.51399004112E+03  0.52153131109E+03  0.79365542255E+02 0.  0.
        -11    1    3    3    0    0  0.20597870429E+02 -0.13083629482E+02 -0.40060473881E+02  0.46907304274E+02  0.00000000000E+00 0.  1.
         12    1    3    3    0    0 -0.55297882153E+02 -0.32979005179E+02 -0.30043745664E+03  0.30725906969E+03  0.00000000000E+00 0. -1.
         13    1    5    5    0    0 -0.26771698371E+01 -0.58046494567E+02  0.42858399540E+03  0.43250526457E+03  0.00000000000E+00 0. -1.
        -14    1    5    5    0    0 -0.12016275270E+02  0.22069287273E+02  0.85406045720E+02  0.89026046513E+02  0.00000000000E+00 0.  1.
          5    1    4    4  501    0  0.82810961635E+02  0.17776579710E+02  0.58916121673E+02  0.10325814227E+03  0.41800000000E+01 0.  1.
         -5    1    4    4    0  501 -0.33417504803E+02  0.64263262245E+02  0.42143968185E+02  0.83905202199E+02  0.41800000000E+01 0.  1.
</event>
<event>
11    1  0.8479398E-009  0.1367531E+03  0.7561462E-02  0.1111239E+00
         22   -1    0    0    0    0  0.00000000000E+00  0.00000000000E+00  0.36132845902E+03  0.36132845902E+03  0.00000000000E+00 0.  1.
         22   -1    0    0    0    0 -0.00000000000E+00 -0.00000000000E+00 -0.20141651002E+04  0.20141651002E+04  0.00000000000E+00 0.  1.
        -24    2    1    2    0    0  0.39917090970E+02 -0.39253066919E+02 -0.19696542477E+04  0.19721112427E+04  0.80936521041E+02 0.  0.
         25    2    1    2    0    0  0.26604847672E+02  0.26890351985E+02  0.10640786584E+03  0.16852562664E+03  0.12508934396E+03 0.  0.
         24    2    1    2    0    0 -0.66521938642E+02  0.12362714935E+02  0.21040974069E+03  0.23485668993E+03  0.79419146230E+02 0.  0.
        -13    1    5    5    0    0 -0.54105395152E+02 -0.28369777306E+02  0.13671117616E+03  0.14974038780E+03  0.00000000000E+00 0.  1.
         14    1    5    5    0    0 -0.12416543490E+02  0.40732492241E+02  0.73698564526E+02  0.85116302138E+02  0.00000000000E+00 0. -1.
         11    1    3    3    0    0  0.59318892406E+02 -0.76245116836E+01 -0.10416770957E+04  0.10433925607E+04  0.00000000000E+00 0. -1.
        -12    1    3    3    0    0 -0.19401801436E+02 -0.31628555236E+02 -0.92797715207E+03  0.92871868193E+03  0.00000000000E+00 0.  1.
          5    1    4    4  501    0 -0.38666373318E+02  0.70743821969E+01 -0.28740149502E+01  0.39634173020E+02  0.41800000000E+01 0.  1.
         -5    1    4    4    0  501  0.65271220990E+02  0.19815969788E+02  0.10928188079E+03  0.12889145362E+03  0.41800000000E+01 0.  1.
</event>
<event>
11    1  0.8479398E-009  0.1544025E+03  0.7561462E-02  0.1092463E+00
         22   -1    0    0    0    0  0.00000000000E+00  0.00000000000E+00  0.26188800069E+04  0.26188800069E+04  0.00000000000E+00 0. -1.
         22   -1    0    0    0    0 -0.00000000000E+00 -0.00000000000E+00 -0.42155962966E+02  0.42155962966E+02  0.00000000000E+00 0.  1.
        -24    2    1    2    0    0 -0.82388348042E+02  0.37724883748E+02  0.92810080886E+02  0.14869240249E+03  0.72696029446E+02 0.  0.
         25    2    1    2    0    0  0.95587218795E+02 -0.41899642893E+01  0.45394118843E+03  0.48048350523E+03  0.12508926432E+03 0.  0.
         24    2    1    2    0    0 -0.13198870753E+02 -0.33534919459E+02  0.20299727746E+04  0.20318600622E+04  0.79793768211E+02 0.  0.
        -13    1    5    5    0    0  0.31309037131E+02  0.55490053718E-01  0.63057153629E+03  0.63134833591E+03  0.00000000000E+00 0.  1.
         14    1    5    5    0    0 -0.44507907884E+02 -0.33590409513E+02  0.13994012384E+04  0.14005117263E+04  0.00000000000E+00 0. -1.
         13    1    3    3    0    0 -0.24546121654E+02  0.48181432496E+02  0.62205045760E+02  0.82422267886E+02  0.00000000000E+00 0. -1.
        -14    1    3    3    0    0 -0.57842226388E+02 -0.10456548747E+02  0.30605035127E+02  0.66270134603E+02  0.00000000000E+00 0.  1.
          5    1    4    4  501    0  0.23874114070E+02  0.47663010007E+02  0.28237329039E+03  0.28739151583E+03  0.41800000000E+01 0.  1.
         -5    1    4    4    0  501  0.71713104725E+02 -0.51852974296E+02  0.17156789805E+03  0.19309198941E+03  0.41800000000E+01 0.  1.
</event>
<event>
11    1  0.8479398E-009  0.1294897E+03  0.7561462E-02  0.1119898E+00
         22   -1    0    0    0    0  0.00000000000E+00  0.00000000000E+00  0.85010393905E+03  0.85010393905E+03  0.00000000000E+00 0.  1.
         22   -1    0    0    0    0 -0.00000000000E+00 -0.00000000000E+00 -0.16845103644E+03  0.16845103644E+03  0.00000000000E+00 0.  1.
         24    2    1    2    0    0 -0.26505420220E+02  0.13603573228E+02 -0.13955708077E+03  0.16369161796E+03  0.80194591411E+02 0.  0.
         25    2    1    2    0    0  0.31746529023E+02 -0.40041350345E+02  0.38083833030E+03  0.40410104403E+03  0.12509463664E+03 0.  0.
        -24    2    1    2    0    0 -0.52411088031E+01  0.26437777117E+02  0.44037165309E+03  0.45076231350E+03  0.92374483201E+02 0.  0.
        -13    1    3    3    0    0 -0.17830323407E+02 -0.13904757790E+02 -0.13193388081E+03  0.13385743023E+03  0.00000000000E+00 0.  1.
         14    1    3    3    0    0 -0.86750968128E+01  0.27508331019E+02 -0.76231999662E+01  0.29834187736E+02  0.00000000000E+00 0. -1.
         13    1    5    5    0    0  0.25530999451E+02  0.94505454339E+01  0.37392071767E+02  0.46252694765E+02  0.00000000000E+00 0. -1.
        -14    1    5    5    0    0 -0.30772108254E+02  0.16987231683E+02  0.40297958132E+03  0.40450961873E+03  0.00000000000E+00 0.  1.
          5    1    4    4  501    0  0.37410190076E+02 -0.54329563673E+02  0.84238821063E+02  0.10707415741E+03  0.41800000000E+01 0. -1.
         -5    1    4    4    0  501 -0.56636610526E+01  0.14288213328E+02  0.29659950923E+03  0.29702688662E+03  0.41800000000E+01 0. -1.
</event>
<event>
11    1  0.8479398E-009  0.1360837E+03  0.7561462E-02  0.1112012E+00
         22   -1    0    0    0    0  0.00000000000E+00  0.00000000000E+00  0.17861266790E+04  0.17861266790E+04  0.00000000000E+00 0.  1.
         22   -1    0    0    0    0 -0.00000000000E+00 -0.00000000000E+00 -0.46755870929E+03  0.46755870929E+03  0.00000000000E+00 0.  1.
        -24    2    1    2    0    0  0.13631757666E+02 -0.16393607009E+02 -0.31309788461E+03  0.32307237348E+03  0.76752185584E+02 0.  0.
         25    2    1    2    0    0  0.33719829322E+02  0.41609484514E+02 -0.11692090925E+03  0.17939809175E+03  0.12507917578E+03 0.  0.
         24    2    1    2    0    0 -0.47351586988E+02 -0.25215877505E+02  0.17485867636E+04  0.17512149231E+04  0.79498576994E+02 0.  0.
        -11    1    5    5    0    0 -0.22353821051E+02 -0.45492584284E+02  0.14524226730E+04  0.14533068807E+04  0.00000000000E+00 0.  1.
         12    1    5    5    0    0 -0.24997765936E+02  0.20276706779E+02  0.29616409056E+03  0.29790804232E+03  0.00000000000E+00 0. -1.
         11    1    3    3    0    0 -0.11149140006E+02 -0.36844936407E+02 -0.93160379128E+02  0.10080034177E+03  0.00000000000E+00 0. -1.
        -12    1    3    3    0    0  0.24780897672E+02  0.20451329398E+02 -0.21993750548E+03  0.22227203171E+03  0.00000000000E+00 0.  1.
          5    1    4    4  501    0  0.28119307651E+02  0.29052976294E+02  0.17468601106E+02  0.44242460588E+02  0.41800000000E+01 0. -1.
         -5    1    4    4    0  501  0.56005216707E+01  0.12556508220E+02 -0.13438951036E+03  0.13515563117E+03  0.41800000000E+01 0. -1.
</event>
<event>
11    1  0.8479398E-009  0.1428164E+03  0.7561462E-02  0.1104454E+00
         22   -1    0    0    0    0  0.00000000000E+00  0.00000000000E+00  0.15418147964E+03  0.15418147964E+03  0.00000000000E+00 0. -1.
         22   -1    0    0    0    0 -0.00000000000E+00 -0.00000000000E+00 -0.52552746169E+03  0.52552746169E+03  0.00000000000E+00 0.  1.
        -24    2    1    2    0    0 -0.66703396990E+02  0.25078908553E+02 -0.32428620359E+03  0.34388935514E+03  0.89554742571E+02 0.  0.
         25    2    1    2    0    0  0.30949155890E+02 -0.74520653326E+02 -0.13438540092E+03  0.20054370421E+03  0.12508862177E+03 0.  0.
         24    2    1    2    0    0  0.35754241100E+02  0.49441744773E+02  0.87325622451E+02  0.13527588199E+03  0.83372345707E+02 0.  0.
        -11    1    5    5    0    0  0.24886793622E+02  0.64752969202E+01 -0.10579548577E+02  0.27806632574E+02  0.00000000000E+00 0.  1.
         12    1    5    5    0    0  0.10867447477E+02  0.42966447853E+02  0.97905171028E+02  0.10746924942E+03  0.00000000000E+00 0. -1.
         11    1    3    3    0    0 -0.18536882317E+02  0.46694789342E+02 -0.84050155755E+02  0.97920621118E+02  0.00000000000E+00 0. -1.
        -12    1    3    3    0    0 -0.48166514673E+02 -0.21615880789E+02 -0.24023604783E+03  0.24596873402E+03  0.00000000000E+00 0.  1.
          5    1    4    4  501    0  0.43389701522E+02  0.23612697876E+02 -0.50662672371E+02  0.70883033731E+02  0.41800000000E+01 0. -1.
         -5    1    4    4    0  501 -0.12440545631E+02 -0.98133351202E+02 -0.83722728547E+02  0.12966067048E+03  0.41800000000E+01 0. -1.
</event>
<event>
11    1  0.8479398E-009  0.1304538E+03  0.7561462E-02  0.1118713E+00
         22   -1    0    0    0    0  0.00000000000E+00  0.00000000000E+00  0.71015700764E+02  0.71015700764E+02  0.00000000000E+00 0.  1.
         22   -1    0    0    0    0 -0.00000000000E+00 -0.00000000000E+00 -0.35540320778E+03  0.35540320778E+03  0.00000000000E+00 0. -1.
        -24    2    1    2    0    0  0.47160274401E+02  0.21944755961E+02 -0.12103331008E+03  0.15470684702E+03  0.81114009714E+02 0.  0.
         25    2    1    2    0    0 -0.10467221596E+02  0.19330680968E+01 -0.92756498851E+02  0.15608912604E+03  0.12508696059E+03 0.  0.
         24    2    1    2    0    0 -0.36693052805E+02 -0.23877824058E+02 -0.70597698093E+02  0.11562293548E+03  0.80424484009E+02 0.  0.
        -13    1    5    5    0    0 -0.27550496766E+02 -0.22373871180E+02  0.80818792551E+01  0.36399680711E+02  0.00000000000E+00 0.  1.
         14    1    5    5    0    0 -0.91425560394E+01 -0.15039528784E+01 -0.78679577348E+02  0.79223254773E+02  0.00000000000E+00 0. -1.
         13    1    3    3    0    0  0.49423056849E+02 -0.17869182629E+02 -0.89821183357E+02  0.10406628280E+03  0.00000000000E+00 0. -1.
        -14    1    3    3    0    0 -0.22627824478E+01  0.39813938590E+02 -0.31212126720E+02  0.50640564223E+02  0.00000000000E+00 0.  1.
          5    1    4    4  501    0  0.42008876175E+02  0.37817228942E+02 -0.21793365163E+02  0.60723238117E+02  0.41800000000E+01 0. -1.
         -5    1    4    4    0  501 -0.52476097770E+02 -0.35884160845E+02 -0.70963133688E+02  0.95365887924E+02  0.41800000000E+01 0. -1.
</event>
<event>
11    1  0.8479398E-009  0.1287359E+03  0.7561462E-02  0.1120832E+00
         22   -1    0    0    0    0  0.00000000000E+00  0.00000000000E+00  0.18734241806E+04  0.18734241806E+04  0.00000000000E+00 0. -1.
         22   -1    0    0    0    0 -0.00000000000E+00 -0.00000000000E+00 -0.56619030496E+02  0.56619030496E+02  0.00000000000E+00 0.  1.
        -24    2    1    2    0    0 -0.23713205109E+02 -0.71940958613E+01  0.79997837003E+01  0.84962753864E+02  0.80873987741E+02 0.  0.
         25    2    1    2    0    0  0.25721410484E+02  0.36943397032E+02  0.24318140117E+03  0.27714924514E+03  0.12509238452E+03 0.  0.
         24    2    1    2    0    0 -0.20082053745E+01 -0.29749301171E+02  0.15656239653E+04  0.15679312121E+04  0.79629338371E+02 0.  0.
        -11    1    5    5    0    0 -0.24566173273E+02 -0.49349659829E+02  0.10309507686E+04  0.10324235435E+04  0.00000000000E+00 0.  1.
         12    1    5    5    0    0  0.22557967898E+02  0.19600358657E+02  0.53467319665E+03  0.53550766865E+03  0.00000000000E+00 0. -1.
         13    1    3    3    0    0  0.25932309332E+02 -0.10224681187E+02 -0.13264069812E+02  0.30870120191E+02  0.00000000000E+00 0. -1.
        -14    1    3    3    0    0 -0.49645514441E+02  0.30305853254E+01  0.21263853512E+02  0.54092633673E+02  0.00000000000E+00 0.  1.
          5    1    4    4  501    0  0.51377630202E+02 -0.29999648556E+02  0.89974092314E+02  0.10794651216E+03  0.41800000000E+01 0. -1.
         -5    1    4    4    0  501 -0.25656219719E+02  0.66943045588E+02  0.15320730886E+03  0.16920273299E+03  0.41800000000E+01 0. -1.
</event>
<event>
11    1  0.8479398E-009  0.1402630E+03  0.7561462E-02  0.1107265E+00
         22   -1    0    0    0    0  0.00000000000E+00  0.00000000000E+00  0.45782413909E+03  0.45782413909E+03  0.00000000000E+00 0. -1.
         22   -1    0    0    0    0 -0.00000000000E+00 -0.00000000000E+00 -0.37082266026E+03  0.37082266026E+03  0.00000000000E+00 0.  1.
         24    2    1    2    0    0  0.64757336968E+02 -0.30314506934E+02 -0.23483575869E+03  0.25843286522E+03  0.80791275808E+02 0.  0.
         25    2    1    2    0    0 -0.50435200044E+02 -0.38996290310E+02 -0.75064300927E+02  0.15920636803E+03  0.12509036049E+03 0.  0.
        -24    2    1    2    0    0 -0.14322136924E+02  0.69310797244E+02  0.39690153844E+03  0.41100756610E+03  0.79920447660E+02 0.  0.
        -13    1    3    3    0    0  0.14791888838E+02 -0.47321713667E+02 -0.15492344110E+03  0.16266350901E+03  0.00000000000E+00 0.  1.
         14    1    3    3    0    0  0.49965448130E+02  0.17007206734E+02 -0.79912317580E+02  0.95769356210E+02  0.00000000000E+00 0. -1.
         11    1    5    5    0    0 -0.17434851987E+02  0.86650868113E+02  0.31089096822E+03  0.32321129487E+03  0.00000000000E+00 0. -1.
        -12    1    5    5    0    0  0.31127150633E+01 -0.17340070869E+02  0.86010570217E+02  0.87796271230E+02  0.00000000000E+00 0.  1.
          5    1    4    4  501    0 -0.34907136525E+02  0.30071848394E+02 -0.75199514181E+02  0.88290789889E+02  0.41800000000E+01 0. -1.
         -5    1    4    4    0  501 -0.15528063520E+02 -0.69068138703E+02  0.13521325399E+00  0.70915578142E+02  0.41800000000E+01 0. -1.
</event>
<event>
11    1  0.8479398E-009  0.1783876E+03  0.7561462E-02  0.1070955E+00
         22   -1    0    0    0    0  0.00000000000E+00  0.00000000000E+00  0.13343205146E+03  0.13343205146E+03  0.00000000000E+00 0.  1.
         22   -1    0    0    0    0 -0.00000000000E+00 -0.00000000000E+00 -0.56287992984E+03  0.56287992984E+03  0.00000000000E+00 0. -1.
        -24    2    1    2    0    0 -0.50110828455E+02 -0.45085564933E+02 -0.24663679801E+03  0.26836049246E+03  0.81509757011E+02 0.  0.
         25    2    1    2    0    0 -0.86159570168E+02  0.55962201876E+02 -0.21250437612E+03  0.26713231852E+03  0.12508527554E+03 0.  0.
         24    2    1    2    0    0  0.13627039862E+03 -0.10876636944E+02  0.29693295747E+02  0.16081917032E+03  0.79329634798E+02 0.  0.
        -13    1    5    5    0    0  0.11831120006E+03 -0.10652573018E+02  0.54089479812E+02  0.13052466893E+03  0.00000000000E+00 0.  1.
         14    1    5    5    0    0  0.17959198561E+02 -0.22406392607E+00 -0.24396184065E+02  0.30294501391E+02  0.00000000000E+00 0. -1.
         11    1    3    3    0    0 -0.23753615705E+02 -0.58124380645E+02 -0.21964789049E+03  0.22844665390E+03  0.00000000000E+00 0. -1.
        -12    1    3    3    0    0 -0.26357212750E+02  0.13038815712E+02 -0.26988907521E+02  0.39913838556E+02  0.00000000000E+00 0.  1.
          5    1    4    4  501    0 -0.10851431353E+03  0.82483941185E+01 -0.14752971187E+03  0.18337360914E+03  0.41800000000E+01 0.  1.
         -5    1    4    4    0  501  0.22354743360E+02  0.47713807758E+02 -0.64974664256E+02  0.83758709378E+02  0.41800000000E+01 0.  1.
</event>
<event>
11    1  0.8479398E-009  0.1730670E+03  0.7561462E-02  0.1075393E+00
         22   -1    0    0    0    0  0.00000000000E+00  0.00000000000E+00  0.10928568599E+03  0.10928568599E+03  0.00000000000E+00 0. -1.
         22   -1    0    0    0    0 -0.00000000000E+00 -0.00000000000E+00 -0.71416904236E+03  0.71416904236E+03  0.00000000000E+00 0.  1.
         24    2    1    2    0    0 -0.77454166593E+01  0.36914553408E+02 -0.37350552352E+03  0.38403081213E+03  0.80935856287E+02 0.  0.
         25    2    1    2    0    0 -0.72279548641E+02 -0.11959463136E+03 -0.23314064379E+03  0.29921460669E+03  0.12509041555E+03 0.  0.
        -24    2    1    2    0    0  0.80024965300E+02  0.82680077956E+02  0.17628109450E+01  0.14020930954E+03  0.80097144868E+02 0.  0.
        -11    1    3    3    0    0  0.22668861175E+02  0.37097646294E+02 -0.31600684584E+03  0.31898344666E+03  0.00000000000E+00 0.  1.
         12    1    3    3    0    0 -0.30414277835E+02 -0.18309288590E+00 -0.57498677678E+02  0.65047365465E+02  0.00000000000E+00 0. -1.
         13    1    5    5    0    0  0.36774572509E+02  0.81020632109E+02  0.23140113694E+02  0.91935721416E+02  0.00000000000E+00 0. -1.
        -14    1    5    5    0    0  0.43250392791E+02  0.16594458471E+01 -0.21377302749E+02  0.48273588119E+02  0.00000000000E+00 0.  1.
          5    1    4    4  501    0  0.23390227323E+02  0.45143546548E+01 -0.92352489742E+01  0.25889077925E+02  0.41800000000E+01 0. -1.
         -5    1    4    4    0  501 -0.95669775964E+02 -0.12410898602E+03 -0.22390539482E+03  0.27332552876E+03  0.41800000000E+01 0. -1.
</event>
<event>
11    1  0.8479398E-009  0.1344152E+03  0.7561462E-02  0.1113960E+00
         22   -1    0    0    0    0  0.00000000000E+00  0.00000000000E+00  0.77496865013E+03  0.77496865013E+03  0.00000000000E+00 0.  1.
         22   -1    0    0    0    0 -0.00000000000E+00 -0.00000000000E+00 -0.95574308804E+03  0.95574308804E+03  0.00000000000E+00 0.  1.
         24    2    1    2    0    0  0.37124417482E+02 -0.32984973325E+02 -0.81878153841E+03  0.82413865132E+03  0.79593203959E+02 0.  0.
         25    2    1    2    0    0 -0.54790288801E+02  0.17674328408E+01 -0.96261371068E+02  0.16708913876E+03  0.12508968449E+03 0.  0.
        -24    2    1    2    0    0  0.17665871319E+02  0.31217540485E+02  0.73426847157E+03  0.73948394809E+03  0.79998145642E+02 0.  0.
        -13    1    3    3    0    0  0.59685743435E+02 -0.15778122289E+02 -0.65639312257E+03  0.65928997298E+03  0.00000000000E+00 0.  1.
         14    1    3    3    0    0 -0.22561325953E+02 -0.17206851036E+02 -0.16238841584E+03  0.16484867834E+03  0.00000000000E+00 0. -1.
         13    1    5    5    0    0 -0.24751576297E+02  0.32910132485E+02  0.25109957994E+03  0.25445376082E+03  0.00000000000E+00 0. -1.
        -14    1    5    5    0    0  0.42417447616E+02 -0.16925920002E+01  0.48316889163E+03  0.48503018728E+03  0.00000000000E+00 0.  1.
          5    1    4    4  501    0 -0.41339491394E+02 -0.59267976397E+02 -0.38994171006E+02  0.82217177934E+02  0.41800000000E+01 0. -1.
         -5    1    4    4    0  501 -0.13450797407E+02  0.61035409238E+02 -0.57267200063E+02  0.84871960828E+02  0.41800000000E+01 0. -1.
</event>
<event>
11    1  0.8479398E-009  0.1505978E+03  0.7561462E-02  0.1096270E+00
         22   -1    0    0    0    0  0.00000000000E+00  0.00000000000E+00  0.24050930309E+03  0.24050930309E+03  0.00000000000E+00 0. -1.
         22   -1    0    0    0    0 -0.00000000000E+00 -0.00000000000E+00 -0.11984357542E+04  0.11984357542E+04  0.00000000000E+00 0. -1.
        -24    2    1    2    0    0 -0.39109006501E+02  0.73591634219E+02 -0.11034774661E+04  0.11095591691E+04  0.80708044640E+02 0.  0.
         25    2    1    2    0    0  0.57989372133E+02 -0.78756260291E+02 -0.39457895121E+01  0.15884038652E+03  0.12509749526E+03 0.  0.
         24    2    1    2    0    0 -0.18880365632E+02  0.51646260722E+01  0.14949680452E+03  0.17054550169E+03  0.79707791444E+02 0.  0.
        -13    1    5    5    0    0 -0.29538909382E+02 -0.62695957846E+01  0.12536175827E+02  0.32695729127E+02  0.00000000000E+00 0.  1.
         14    1    5    5    0    0  0.10658543750E+02  0.11434221857E+02  0.13696062869E+03  0.13784977256E+03  0.00000000000E+00 0. -1.
         11    1    3    3    0    0 -0.32149485103E+01  0.64789714034E+02 -0.92627882457E+03  0.92854752371E+03  0.00000000000E+00 0. -1.
        -12    1    3    3    0    0 -0.35894057991E+02  0.88019201843E+01 -0.17719864155E+03  0.18101164538E+03  0.00000000000E+00 0.  1.
          5    1    4    4  501    0  0.70825418467E+02 -0.65338268512E+02 -0.50265034712E+02  0.10876293186E+03  0.41800000000E+01 0. -1.
         -5    1    4    4    0  501 -0.12836046334E+02 -0.13417991779E+02  0.46319245199E+02  0.50077454655E+02  0.41800000000E+01 0. -1.
</event>
<event>
11    1  0.8479398E-009  0.1989240E+03  0.7561462E-02  0.1055287E+00
         22   -1    0    0    0    0  0.00000000000E+00  0.00000000000E+00  0.10541215226E+04  0.10541215226E+04  0.00000000000E+00 0. -1.
         22   -1    0    0    0    0 -0.00000000000E+00 -0.00000000000E+00 -0.12542927696E+04  0.12542927696E+04  0.00000000000E+00 0.  1.
         24    2    1    2    0    0 -0.93634019487E+02 -0.12278635312E+03 -0.11159812255E+04  0.11298809249E+04  0.85866120275E+02 0.  0.
         25    2    1    2    0    0  0.60254340783E+02  0.15176549614E+03 -0.47336683325E+02  0.21107190044E+03  0.12508890504E+03 0.  0.
        -24    2    1    2    0    0  0.33379678704E+02 -0.28979143023E+02  0.96314666181E+03  0.96746146689E+03  0.79851136915E+02 0.  0.
        -13    1    3    3    0    0 -0.88046327116E+02 -0.13193385294E+03 -0.91742861752E+03  0.93103918581E+03  0.00000000000E+00 0.  1.
         14    1    3    3    0    0 -0.55876923710E+01  0.91474998148E+01 -0.19855260799E+03  0.19884173907E+03  0.00000000000E+00 0. -1.
         13    1    5    5    0    0 -0.13254109597E+02 -0.37565500874E+02  0.58476705077E+03  0.58612229265E+03  0.00000000000E+00 0. -1.
        -14    1    5    5    0    0  0.46633788301E+02  0.85863578508E+01  0.37837961104E+03  0.38133917424E+03  0.00000000000E+00 0.  1.
          5    1    4    4  501    0  0.56124818889E+02  0.76318956816E+02 -0.84274590064E+02  0.12686314435E+03  0.41800000000E+01 0. -1.
         -5    1    4    4    0  501  0.41295218935E+01  0.75446539328E+02  0.36937906740E+02  0.84208756089E+02  0.41800000000E+01 0. -1.
</event>
<event>
11    1  0.1039445E-008  0.1642921E+03  0.7561462E-02  0.1083109E+00
         22   -1    0    0    0    0  0.00000000000E+00  0.00000000000E+00  0.95120397845E+03  0.95120397845E+03  0.00000000000E+00 0. -1.
         22   -1    0    0    0    0 -0.00000000000E+00 -0.00000000000E+00 -0.67063666012E+03  0.67063666012E+03  0.00000000000E+00 0. -1.
         24    2    1    2    0    0 -0.22005218752E+01  0.45338207796E+02 -0.39374155302E+03  0.40443034729E+03  0.80443146694E+02 0.  0.
         25    2    1    2    0    0 -0.55618604955E+02 -0.13399743968E+03 -0.23225631365E+03  0.30106350145E+03  0.12508994213E+03 0.  0.
        -24    2    1    2    0    0  0.57819126830E+02  0.88659231883E+02  0.90656518499E+03  0.91634678982E+03  0.81409420535E+02 0.  0.
        -11    1    3    3    0    0  0.25524094780E+02 -0.12167440834E+02 -0.10754861174E+03  0.11120355173E+03  0.00000000000E+00 0.  1.
         12    1    3    3    0    0 -0.27724616655E+02  0.57505648629E+02 -0.28619294128E+03  0.29322679555E+03  0.00000000000E+00 0. -1.
         13    1    5    5    0    0  0.64133399353E+02  0.30250749577E+02  0.60247465867E+03  0.60663326244E+03  0.00000000000E+00 0. -1.
        -14    1    5    5    0    0 -0.63142725233E+01  0.58408482305E+02  0.30409052632E+03  0.30971352738E+03  0.00000000000E+00 0.  1.
          5    1    4    4  501    0 -0.40835254428E+02 -0.15407948635E+03 -0.16614314279E+03  0.23028031269E+03  0.41800000000E+01 0.  1.
         -5    1    4    4    0  501 -0.14783350527E+02  0.20082046667E+02 -0.66113170856E+02  0.70783188766E+02  0.41800000000E+01 0.  1.
</event>
<event>
11    1  0.8479398E-009  0.1487034E+03  0.7561462E-02  0.1098211E+00
         22   -1    0    0    0    0  0.00000000000E+00  0.00000000000E+00  0.19207698816E+04  0.19207698816E+04  0.00000000000E+00 0.  1.
         22   -1    0    0    0    0 -0.00000000000E+00 -0.00000000000E+00 -0.84470628857E+03  0.84470628857E+03  0.00000000000E+00 0.  1.
        -24    2    1    2    0    0  0.47330839936E+01  0.79463473155E+02 -0.79799068239E+03  0.80697944095E+03  0.89943556160E+02 0.  0.
         25    2    1    2    0    0 -0.50179526547E+02 -0.11413882476E+03  0.15061747958E+03  0.23209714473E+03  0.12505120245E+03 0.  0.
         24    2    1    2    0    0  0.45446442553E+02  0.34675351603E+02  0.17234367958E+04  0.17263995844E+04  0.83386910873E+02 0.  0.
        -13    1    5    5    0    0  0.11976926383E+01  0.22354104627E+02  0.13448910514E+04  0.13450773511E+04  0.00000000000E+00 0.  1.
         14    1    5    5    0    0  0.44248749915E+02  0.12321246976E+02  0.37854574443E+03  0.38132223332E+03  0.00000000000E+00 0. -1.
         13    1    3    3    0    0  0.21058174895E+02  0.64105017658E+02 -0.26294553924E+03  0.27146501916E+03  0.00000000000E+00 0. -1.
        -14    1    3    3    0    0 -0.16325090901E+02  0.15358455497E+02 -0.53504514315E+03  0.53551442180E+03  0.00000000000E+00 0.  1.
          5    1    4    4  501    0 -0.21754630881E+02 -0.13482859250E+03  0.13880781787E+03  0.19477447477E+03  0.41800000000E+01 0. -1.
         -5    1    4    4    0  501 -0.28424895666E+02  0.20689767746E+02  0.11809661710E+02  0.37322669957E+02  0.41800000000E+01 0. -1.
</event>
<event>
11    1  0.8479398E-009  0.1704514E+03  0.7561462E-02  0.1077640E+00
         22   -1    0    0    0    0  0.00000000000E+00  0.00000000000E+00  0.75139299679E+03  0.75139299679E+03  0.00000000000E+00 0. -1.
         22   -1    0    0    0    0 -0.00000000000E+00 -0.00000000000E+00 -0.36528475916E+03  0.36528475916E+03  0.00000000000E+00 0. -1.
        -24    2    1    2    0    0 -0.20205205185E+02  0.27079507429E+02 -0.20213371950E+03  0.22058446455E+03  0.81596050162E+02 0.  0.
         25    2    1    2    0    0 -0.30059981374E+02  0.78911150392E+02 -0.10806039883E+03  0.18562307945E+03  0.12509318804E+03 0.  0.
         24    2    1    2    0    0  0.50265186559E+02 -0.10599065782E+03  0.69630235595E+03  0.71047021195E+03  0.78551528563E+02 0.  0.
        -11    1    5    5    0    0 -0.18362694527E+02 -0.29495501714E+02  0.11429314848E+03  0.11945751111E+03  0.00000000000E+00 0.  1.
         12    1    5    5    0    0  0.68627881086E+02 -0.76495156107E+02  0.58200920747E+03  0.59101270084E+03  0.00000000000E+00 0. -1.
         13    1    3    3    0    0 -0.47452685402E+02  0.26642902280E+02 -0.16975192822E+03  0.17826193853E+03  0.00000000000E+00 0. -1.
        -14    1    3    3    0    0  0.27247480216E+02  0.43660514915E+00 -0.32381791282E+02  0.42322526021E+02  0.00000000000E+00 0.  1.
          5    1    4    4  501    0 -0.25750815818E+00  0.10326420372E+03 -0.47490667754E+02  0.11373828733E+03  0.41800000000E+01 0. -1.
         -5    1    4    4    0  501 -0.29802473215E+02 -0.24353053328E+02 -0.60569731076E+02  0.71884792124E+02  0.41800000000E+01 0. -1.
</event>
<event>
11    1  0.8479398E-009  0.1563570E+03  0.7561462E-02  0.1090555E+00
         22   -1    0    0    0    0  0.00000000000E+00  0.00000000000E+00  0.35614641529E+03  0.35614641529E+03  0.00000000000E+00 0.  1.
         22   -1    0    0    0    0 -0.00000000000E+00 -0.00000000000E+00 -0.29342290644E+04  0.29342290644E+04  0.00000000000E+00 0.  1.
        -24    2    1    2    0    0  0.80164747290E+02  0.47284122654E+02 -0.24260818848E+04  0.24291407743E+04  0.78672830860E+02 0.  0.
         25    2    1    2    0    0 -0.64983105221E+02 -0.85682336125E+02 -0.48712409691E+03  0.51429650534E+03  0.12508694148E+03 0.  0.
         24    2    1    2    0    0 -0.15181642069E+02  0.38398213471E+02  0.33512333261E+03  0.34693820011E+03  0.79709231484E+02 0.  0.
        -13    1    5    5    0    0 -0.35796763433E+02 -0.21449075982E+01  0.22423318781E+03  0.22708265327E+03  0.00000000000E+00 0.  1.
         14    1    5    5    0    0  0.20615121364E+02  0.40543121069E+02  0.11089014479E+03  0.11985554683E+03  0.00000000000E+00 0. -1.
         13    1    3    3    0    0  0.17902121571E+02  0.71372780394E+01 -0.14923829696E+04  0.14925074052E+04  0.00000000000E+00 0. -1.
        -14    1    3    3    0    0  0.62262625719E+02  0.40146844615E+02 -0.93369891528E+03  0.93663336908E+03  0.00000000000E+00 0.  1.
          5    1    4    4  501    0  0.17493924919E+01 -0.98254734071E+01  0.49798160697E+01  0.11910972666E+02  0.41800000000E+01 0. -1.
         -5    1    4    4    0  501 -0.66732497713E+02 -0.75856862718E+02 -0.49210391298E+03  0.50238553268E+03  0.41800000000E+01 0. -1.
</event>
<event>
11    1  0.8479398E-009  0.1696891E+03  0.7561462E-02  0.1078303E+00
         22   -1    0    0    0    0  0.00000000000E+00  0.00000000000E+00  0.56632416404E+03  0.56632416404E+03  0.00000000000E+00 0.  1.
         22   -1    0    0    0    0 -0.00000000000E+00 -0.00000000000E+00 -0.18442632967E+03  0.18442632967E+03  0.00000000000E+00 0. -1.
        -24    2    1    2    0    0  0.34713212107E+02  0.24818049929E+02 -0.12589412831E+03  0.15451279074E+03  0.78765019285E+02 0.  0.
         25    2    1    2    0    0  0.13310931787E+02  0.95302213609E+02  0.21735796649E+03  0.26860908076E+03  0.12508660939E+03 0.  0.
         24    2    1    2    0    0 -0.48024143894E+02 -0.12012026354E+03  0.29043399619E+03  0.32762862221E+03  0.79078516928E+02 0.  0.
        -11    1    5    5    0    0 -0.32818751808E+02 -0.66395548829E+02  0.24404910608E+03  0.25504000775E+03  0.00000000000E+00 0.  1.
         12    1    5    5    0    0 -0.15205392086E+02 -0.53724714709E+02  0.46384890115E+02  0.72588614465E+02  0.00000000000E+00 0. -1.
         11    1    3    3    0    0  0.53123858376E+02  0.10918952758E+02 -0.11844597139E+03  0.13027208449E+03  0.00000000000E+00 0. -1.
        -12    1    3    3    0    0 -0.18410646269E+02  0.13899097170E+02 -0.74481569180E+01  0.24240706254E+02  0.00000000000E+00 0.  1.
          5    1    4    4  501    0 -0.31028619919E+02  0.70569450541E+02  0.20066001221E+03  0.21499938489E+03  0.41800000000E+01 0. -1.
         -5    1    4    4    0  501  0.44339551706E+02  0.24732763069E+02  0.16697954283E+02  0.53609695874E+02  0.41800000000E+01 0. -1.
</event>
<event>
11    1  0.8479398E-009  0.1569659E+03  0.7561462E-02  0.1089966E+00
         22   -1    0    0    0    0  0.00000000000E+00  0.00000000000E+00  0.26003282184E+04  0.26003282184E+04  0.00000000000E+00 0.  1.
         22   -1    0    0    0    0 -0.00000000000E+00 -0.00000000000E+00 -0.13543219793E+03  0.13543219793E+03  0.00000000000E+00 0. -1.
         24    2    1    2    0    0  0.16592525373E+02 -0.26499290959E+02 -0.10384441743E+03  0.13542826103E+03  0.81114897105E+02 0.  0.
         25    2    1    2    0    0  0.39818996868E+02 -0.54089687237E+02  0.34599020026E+03  0.37398918002E+03  0.12508973307E+03 0.  0.
        -24    2    1    2    0    0 -0.56411522241E+02  0.80588978196E+02  0.22227502377E+04  0.22263429753E+04  0.79420283133E+02 0.  0.
        -13    1    3    3    0    0 -0.12844554928E+00 -0.49043798482E+02 -0.32696488728E+02  0.58943795627E+02  0.00000000000E+00 0.  1.
         14    1    3    3    0    0  0.16720970923E+02  0.22544507523E+02 -0.71147928706E+02  0.76484465398E+02  0.00000000000E+00 0. -1.
         11    1    5    5    0    0 -0.36215860787E+02  0.34103742327E+02  0.17810296810E+04  0.17817242712E+04  0.00000000000E+00 0. -1.
        -12    1    5    5    0    0 -0.20195661454E+02  0.46485235869E+02  0.44172055664E+03  0.44461870412E+03  0.00000000000E+00 0.  1.
          5    1    4    4  501    0  0.48837800178E+02 -0.21755255132E+02  0.41984564480E+02  0.68107252967E+02  0.41800000000E+01 0. -1.
         -5    1    4    4    0  501 -0.90188033100E+01 -0.32334432105E+02  0.30400563578E+03  0.30588192705E+03  0.41800000000E+01 0. -1.
</event>
<event>
11    1  0.8479398E-009  0.1428290E+03  0.7561462E-02  0.1104440E+00
         22   -1    0    0    0    0  0.00000000000E+00  0.00000000000E+00  0.47676034399E+03  0.47676034399E+03  0.00000000000E+00 0.  1.
         22   -1    0    0    0    0 -0.00000000000E+00 -0.00000000000E+00 -0.41861610717E+03  0.41861610717E+03  0.00000000000E+00 0.  1.
         24    2    1    2    0    0 -0.14788928262E+02  0.25814255382E+02 -0.25286539802E+03  0.26612205025E+03  0.77427049101E+02 0.  0.
         25    2    1    2    0    0  0.17376831132E+02  0.44068310795E+02 -0.12361103098E+03  0.18212881533E+03  0.12508896082E+03 0.  0.
        -24    2    1    2    0    0 -0.25879028700E+01 -0.69882566178E+02  0.43462066582E+03  0.44712558557E+03  0.78331959129E+02 0.  0.
        -11    1    3    3    0    0 -0.17096937255E+02  0.53478086977E+01 -0.24232354995E+03  0.24298478796E+03  0.00000000000E+00 0.  1.
         12    1    3    3    0    0  0.23080089926E+01  0.20466446685E+02 -0.10541848075E+02  0.23137262289E+02  0.00000000000E+00 0. -1.
         13    1    5    5    0    0 -0.70110180220E+01  0.15917352790E+02  0.47451641941E+02  0.50538844629E+02  0.00000000000E+00 0. -1.
        -14    1    5    5    0    0  0.44231151520E+01 -0.85799918968E+02  0.38716902388E+03  0.39658674095E+03  0.00000000000E+00 0.  1.
          5    1    4    4  501    0 -0.88896052260E+01  0.78144126727E+02 -0.40765282882E+02  0.88683765772E+02  0.41800000000E+01 0. -1.
         -5    1    4    4    0  501  0.26266436358E+02 -0.34075815932E+02 -0.82845748094E+02  0.93445049562E+02  0.41800000000E+01 0. -1.
</event>
<event>
11    1  0.8479398E-009  0.1501624E+03  0.7561462E-02  0.1096713E+00
         22   -1    0    0    0    0  0.00000000000E+00  0.00000000000E+00  0.74354283275E+03  0.74354283275E+03  0.00000000000E+00 0. -1.
         22   -1    0    0    0    0 -0.00000000000E+00 -0.00000000000E+00 -0.25575699725E+04  0.25575699725E+04  0.00000000000E+00 0.  1.
         24    2    1    2    0    0  0.67283501996E+02  0.25764216943E+02 -0.24177059764E+04  0.24201127396E+04  0.80328200206E+02 0.  0.
         25    2    1    2    0    0  0.18019492872E+02 -0.27279302090E+02 -0.10276691684E+03  0.16516586836E+03  0.12509941019E+03 0.  0.
        -24    2    1    2    0    0 -0.85302994868E+02  0.15150851464E+01  0.70644575352E+03  0.71583419720E+03  0.77936504972E+02 0.  0.
        -11    1    3    3    0    0 -0.71152165632E+01  0.32425685211E+02 -0.72770327121E+03  0.72846008971E+03  0.00000000000E+00 0.  1.
         12    1    3    3    0    0  0.74398718559E+02 -0.66614682672E+01 -0.16900027052E+04  0.16916526499E+04  0.00000000000E+00 0. -1.
         11    1    5    5    0    0 -0.15118085597E+02 -0.37191306285E+01  0.43921796596E+03  0.43949381118E+03  0.00000000000E+00 0. -1.
        -12    1    5    5    0    0 -0.70184909271E+02  0.52342157748E+01  0.26722778755E+03  0.27634038602E+03  0.00000000000E+00 0.  1.
          5    1    4    4  501    0  0.25558830164E+02  0.39448724679E+02 -0.82247463576E+02  0.94823907022E+02  0.41800000000E+01 0.  1.
         -5    1    4    4    0  501 -0.75393372925E+01 -0.66728026769E+02 -0.20519453260E+02  0.70341961342E+02  0.41800000000E+01 0.  1.
</event>
<event>
11    1  0.8479398E-009  0.1501088E+03  0.7561462E-02  0.1096768E+00
         22   -1    0    0    0    0  0.00000000000E+00  0.00000000000E+00  0.13718247135E+04  0.13718247135E+04  0.00000000000E+00 0. -1.
         22   -1    0    0    0    0 -0.00000000000E+00 -0.00000000000E+00 -0.11376593950E+03  0.11376593950E+03  0.00000000000E+00 0. -1.
         24    2    1    2    0    0  0.41734964208E+02  0.17016499184E+02 -0.19246862732E+02  0.94185572381E+02  0.80430789116E+02 0.  0.
         25    2    1    2    0    0 -0.10691606287E+03  0.32509072545E+02  0.75142249274E+02  0.18379813925E+03  0.12509002386E+03 0.  0.
        -24    2    1    2    0    0  0.65181098661E+02 -0.49525571728E+02  0.12021633875E+04  0.12076069414E+04  0.80102164840E+02 0.  0.
        -13    1    3    3    0    0  0.90607343191E+01  0.41994744465E+02  0.95100944760E+01  0.44001106418E+02  0.00000000000E+00 0.  1.
         14    1    3    3    0    0  0.32674229889E+02 -0.24978245281E+02 -0.28756957208E+02  0.50184465964E+02  0.00000000000E+00 0. -1.
         11    1    5    5    0    0  0.31428617764E+02 -0.66858695552E+02  0.90923591428E+03  0.91223231197E+03  0.00000000000E+00 0. -1.
        -12    1    5    5    0    0  0.33752480897E+02  0.17333123823E+02  0.29292747319E+03  0.29537462941E+03  0.00000000000E+00 0.  1.
          5    1    4    4  501    0 -0.69948516817E+02  0.73066159452E+02  0.79310861486E+02  0.12860460261E+03  0.41800000000E+01 0. -1.
         -5    1    4    4    0  501 -0.36967546052E+02 -0.40557086907E+02 -0.41686122112E+01  0.55193536644E+02  0.41800000000E+01 0. -1.
</event>
<event>
11    1  0.8479398E-009  0.1801627E+03  0.7561462E-02  0.1069511E+00
         22   -1    0    0    0    0  0.00000000000E+00  0.00000000000E+00  0.54682156751E+03  0.54682156751E+03  0.00000000000E+00 0.  1.
         22   -1    0    0    0    0 -0.00000000000E+00 -0.00000000000E+00 -0.41049239094E+03  0.41049239094E+03  0.00000000000E+00 0.  1.
        -24    2    1    2    0    0  0.29475465514E+02  0.11416126708E+03 -0.22405091902E+03  0.26602507081E+03  0.81663492552E+02 0.  0.
         25    2    1    2    0    0 -0.11925321218E+03 -0.14486182689E+03 -0.75641513903E+02  0.23785623557E+03  0.12509065780E+03 0.  0.
         24    2    1    2    0    0  0.89777746669E+02  0.30700559805E+02  0.43602160949E+03  0.45343265207E+03  0.80521784924E+02 0.  0.
        -11    1    5    5    0    0  0.83256033659E+02  0.52499108922E+02  0.38805797273E+03  0.40034574280E+03  0.00000000000E+00 0.  1.
         12    1    5    5    0    0  0.65217130097E+01 -0.21798549117E+02  0.47963636763E+02  0.53086909269E+02  0.00000000000E+00 0. -1.
         11    1    3    3    0    0  0.28253453218E+02  0.11540723768E+03 -0.14726639240E+03  0.18922071361E+03  0.00000000000E+00 0. -1.
        -12    1    3    3    0    0  0.12220122951E+01 -0.12459705969E+01 -0.76784526620E+02  0.76804357201E+02  0.00000000000E+00 0.  1.
          5    1    4    4  501    0  0.12755936219E+02  0.13543234296E+02 -0.36841076674E+01  0.19421074979E+02  0.41800000000E+01 0. -1.
         -5    1    4    4    0  501 -0.13200914840E+03 -0.15840506119E+03 -0.71957406236E+02  0.21843516059E+03  0.41800000000E+01 0. -1.
</event>
<event>
11    1  0.8479398E-009  0.1303973E+03  0.7561462E-02  0.1118782E+00
         22   -1    0    0    0    0  0.00000000000E+00  0.00000000000E+00  0.20685463564E+03  0.20685463564E+03  0.00000000000E+00 0. -1.
         22   -1    0    0    0    0 -0.00000000000E+00 -0.00000000000E+00 -0.78974543877E+03  0.78974543877E+03  0.00000000000E+00 0. -1.
        -24    2    1    2    0    0  0.52021609738E+01  0.33106046337E+02 -0.53811632743E+03  0.54531265694E+03  0.81692344738E+02 0.  0.
         25    2    1    2    0    0 -0.36525662879E+02 -0.48934572667E+02 -0.21733736263E+03  0.25809046472E+03  0.12508573994E+03 0.  0.
         24    2    1    2    0    0  0.31323501905E+02  0.15828526331E+02  0.17256288693E+03  0.19319695275E+03  0.79469545037E+02 0.  0.
        -13    1    5    5    0    0  0.27619583254E+02  0.12862260512E+01  0.91907027701E+01  0.29137000086E+02  0.00000000000E+00 0.  1.
         14    1    5    5    0    0  0.37039186509E+01  0.14542300280E+02  0.16337218416E+03  0.16405995266E+03  0.00000000000E+00 0. -1.
         11    1    3    3    0    0 -0.16055229083E+01  0.22049881637E+02 -0.52896723413E+03  0.52942904130E+03  0.00000000000E+00 0. -1.
        -12    1    3    3    0    0  0.68076838821E+01  0.11056164700E+02 -0.91490932994E+01  0.15883615643E+02  0.00000000000E+00 0.  1.
          5    1    4    4  501    0 -0.26527324482E+02 -0.86339773727E+02 -0.19027781020E+03  0.21066887033E+03  0.41800000000E+01 0.  1.
         -5    1    4    4    0  501 -0.99983383970E+01  0.37405201059E+02 -0.27059552425E+02  0.47421594389E+02  0.41800000000E+01 0.  1.
</event>
<event>
11    1  0.8479398E-009  0.1715912E+03  0.7561462E-02  0.1076655E+00
         22   -1    0    0    0    0  0.00000000000E+00  0.00000000000E+00  0.58245758681E+03  0.58245758681E+03  0.00000000000E+00 0. -1.
         22   -1    0    0    0    0 -0.00000000000E+00 -0.00000000000E+00 -0.33656627289E+03  0.33656627289E+03  0.00000000000E+00 0.  1.
        -24    2    1    2    0    0  0.43612791309E+02  0.11077646204E+03 -0.29106131022E+03  0.32378595784E+03  0.77117832449E+02 0.  0.
         25    2    1    2    0    0 -0.56850330493E+02 -0.74341343899E+02  0.25891352808E+03  0.30239272554E+03  0.12508617008E+03 0.  0.
         24    2    1    2    0    0  0.13237539184E+02 -0.36435118137E+02  0.27803909607E+03  0.29284517632E+03  0.83365508906E+02 0.  0.
        -11    1    5    5    0    0 -0.82690912998E+01 -0.36103124969E+01 -0.26673823780E+01  0.94088870755E+01  0.00000000000E+00 0.  1.
         12    1    5    5    0    0  0.21506630484E+02 -0.32824805640E+02  0.28070647844E+03  0.28343628924E+03  0.00000000000E+00 0. -1.
         11    1    3    3    0    0  0.47833642664E+02  0.38933940577E+02 -0.81463965231E+02  0.10217772130E+03  0.00000000000E+00 0. -1.
        -12    1    3    3    0    0 -0.42208513551E+01  0.71842521459E+02 -0.20959734499E+03  0.22160823654E+03  0.00000000000E+00 0.  1.
          5    1    4    4  501    0  0.28093022596E+02 -0.23747497544E+02  0.16448984407E+02  0.40511764294E+02  0.41800000000E+01 0. -1.
         -5    1    4    4    0  501 -0.84943353089E+02 -0.50593846355E+02  0.24246454367E+03  0.26188096124E+03  0.41800000000E+01 0. -1.
</event>
<event>
11    1  0.8479398E-009  0.1702885E+03  0.7561462E-02  0.1077781E+00
         22   -1    0    0    0    0  0.00000000000E+00  0.00000000000E+00  0.60034106139E+03  0.60034106139E+03  0.00000000000E+00 0. -1.
         22   -1    0    0    0    0 -0.00000000000E+00 -0.00000000000E+00 -0.16311645167E+04  0.16311645167E+04  0.00000000000E+00 0. -1.
        -24    2    1    2    0    0  0.95582962904E+02 -0.35284609898E+02 -0.78234887240E+03  0.79316435315E+03  0.81601632729E+02 0.  0.
         25    2    1    2    0    0 -0.10171462525E+03  0.12289447198E+03 -0.82470464351E+03  0.84925444443E+03  0.12508575512E+03 0.  0.
         24    2    1    2    0    0  0.61316623409E+01 -0.87609862084E+02  0.57623006058E+03  0.58908678054E+03  0.85258824012E+02 0.  0.
        -11    1    5    5    0    0 -0.19273755552E+02 -0.58564789337E+02  0.16658896226E+03  0.17763218895E+03  0.00000000000E+00 0.  1.
         12    1    5    5    0    0  0.25405417893E+02 -0.29045072747E+02  0.40964109832E+03  0.41145459159E+03  0.00000000000E+00 0. -1.
         13    1    3    3    0    0  0.93080802634E+02 -0.32780615566E+02 -0.78330558400E+03  0.78949746200E+03  0.00000000000E+00 0. -1.
        -14    1    3    3    0    0  0.25021602699E+01 -0.25039943322E+01  0.95671159764E+00  0.36668911510E+01  0.00000000000E+00 0.  1.
          5    1    4    4  501    0 -0.40992102222E+02 -0.38113867745E+01 -0.39456758624E+03  0.39673156117E+03  0.41800000000E+01 0. -1.
         -5    1    4    4    0  501 -0.60722523023E+02  0.12670585876E+03 -0.43013705727E+03  0.45252288327E+03  0.41800000000E+01 0. -1.
</event>
<event>
11    1  0.8479398E-009  0.1373111E+03  0.7561462E-02  0.1110599E+00
         22   -1    0    0    0    0  0.00000000000E+00  0.00000000000E+00  0.16986700762E+03  0.16986700762E+03  0.00000000000E+00 0. -1.
         22   -1    0    0    0    0 -0.00000000000E+00 -0.00000000000E+00 -0.44097929572E+03  0.44097929572E+03  0.00000000000E+00 0.  1.
         24    2    1    2    0    0  0.38656730503E+02 -0.12549794294E+02 -0.20922099343E+03  0.22750636957E+03  0.79585701931E+02 0.  0.
         25    2    1    2    0    0 -0.50756460299E+02  0.66059911699E+02 -0.17685761241E+03  0.23209199988E+03  0.12509177090E+03 0.  0.
        -24    2    1    2    0    0  0.12099729796E+02 -0.53510117405E+02  0.11496631775E+03  0.15124793388E+03  0.81541076529E+02 0.  0.
        -11    1    3    3    0    0  0.60117713875E+02 -0.24294224736E+02 -0.15548754887E+03  0.16846580285E+03  0.00000000000E+00 0.  1.
         12    1    3    3    0    0 -0.21460983372E+02  0.11744430443E+02 -0.53733444567E+02  0.59040566721E+02  0.00000000000E+00 0. -1.
         13    1    5    5    0    0  0.37855505996E+02 -0.13190084982E+02  0.87094419077E+02  0.95877294029E+02  0.00000000000E+00 0. -1.
        -14    1    5    5    0    0 -0.25755776200E+02 -0.40320032423E+02  0.27871898670E+02  0.55370639853E+02  0.00000000000E+00 0.  1.
          5    1    4    4  501    0 -0.48194445772E+02  0.65374706080E+02 -0.32389637574E+02  0.87539235891E+02  0.41800000000E+01 0. -1.
         -5    1    4    4    0  501 -0.25620145270E+01  0.68520561867E+00 -0.14446797483E+03  0.14455276399E+03  0.41800000000E+01 0. -1.
</event>
<event>
11    1  0.8479398E-009  0.1317688E+03  0.7561462E-02  0.1117115E+00
         22   -1    0    0    0    0  0.00000000000E+00  0.00000000000E+00  0.12523585255E+03  0.12523585255E+03  0.00000000000E+00 0.  1.
         22   -1    0    0    0    0 -0.00000000000E+00 -0.00000000000E+00 -0.49947210863E+03  0.49947210863E+03  0.00000000000E+00 0. -1.
         24    2    1    2    0    0 -0.31383936072E+02 -0.22699279670E+02 -0.30850414470E+03  0.32171555049E+03  0.82618880347E+02 0.  0.
         25    2    1    2    0    0  0.56000800272E+02  0.10978437276E+02 -0.13957951201E+03  0.19591477249E+03  0.12507414677E+03 0.  0.
        -24    2    1    2    0    0 -0.24616864200E+02  0.11720842393E+02  0.73847400633E+02  0.10707763820E+03  0.72586595686E+02 0.  0.
        -11    1    3    3    0    0  0.23745246039E+02  0.11441168772E+02 -0.93810021490E+02  0.97442584040E+02  0.00000000000E+00 0.  1.
         12    1    3    3    0    0 -0.55129182111E+02 -0.34140448441E+02 -0.21469412321E+03  0.22427296645E+03  0.00000000000E+00 0. -1.
         13    1    5    5    0    0  0.18832620302E+02 -0.35821057433E+01 -0.99340801926E+00  0.19195987302E+02  0.00000000000E+00 0. -1.
        -14    1    5    5    0    0 -0.43449484502E+02  0.15302948137E+02  0.74840808653E+02  0.87881650900E+02  0.00000000000E+00 0.  1.
          5    1    4    4  501    0  0.59676404014E+02  0.51446264943E+02 -0.13285186013E+03  0.15451563193E+03  0.41800000000E+01 0. -1.
         -5    1    4    4    0  501 -0.36756037424E+01 -0.40467827666E+02 -0.67276518823E+01  0.41399140556E+02  0.41800000000E+01 0. -1.
</event>
<event>
11    1  0.8479398E-009  0.1526754E+03  0.7561462E-02  0.1094176E+00
         22   -1    0    0    0    0  0.00000000000E+00  0.00000000000E+00  0.34151602425E+03  0.34151602425E+03  0.00000000000E+00 0. -1.
         22   -1    0    0    0    0 -0.00000000000E+00 -0.00000000000E+00 -0.30581287385E+04  0.30581287385E+04  0.00000000000E+00 0.  1.
        -24    2    1    2    0    0 -0.61969339758E+02  0.11858291230E+02 -0.29299280933E+04  0.29318464644E+04  0.85230516337E+02 0.  0.
         25    2    1    2    0    0  0.13571305977E+03 -0.46792078192E+02 -0.36014186772E+02  0.19378176958E+03  0.12508724714E+03 0.  0.
         24    2    1    2    0    0 -0.73743720014E+02  0.34933786962E+02  0.24932956589E+03  0.27401652868E+03  0.79128502131E+02 0.  0.
        -11    1    5    5    0    0 -0.14017565419E+02 -0.42819901101E+01  0.59308112962E-02  0.14656998831E+02  0.00000000000E+00 0.  1.
         12    1    5    5    0    0 -0.59726154596E+02  0.39215777072E+02  0.24932363508E+03  0.25935952985E+03  0.00000000000E+00 0. -1.
         13    1    3    3    0    0 -0.37699507478E+02 -0.42761134171E+01 -0.41046389443E+03  0.41221371477E+03  0.00000000000E+00 0. -1.
        -14    1    3    3    0    0 -0.24269832280E+02  0.16134404647E+02 -0.25194641989E+04  0.25196327497E+04  0.00000000000E+00 0.  1.
          5    1    4    4  501    0  0.12471039159E+03  0.10973389136E+02 -0.47047229462E+02  0.13380587147E+03  0.41800000000E+01 0. -1.
         -5    1    4    4    0  501  0.11002668182E+02 -0.57765467328E+02  0.11033042691E+02  0.59975898107E+02  0.41800000000E+01 0. -1.
</event>
<event>
11    1  0.8479398E-009  0.1382329E+03  0.7561462E-02  0.1109548E+00
         22   -1    0    0    0    0  0.00000000000E+00  0.00000000000E+00  0.12049173543E+04  0.12049173543E+04  0.00000000000E+00 0. -1.
         22   -1    0    0    0    0 -0.00000000000E+00 -0.00000000000E+00 -0.10742682570E+04  0.10742682570E+04  0.00000000000E+00 0. -1.
         24    2    1    2    0    0 -0.44929730956E+01 -0.59105524282E+02 -0.10510994335E+04  0.10558539782E+04  0.80647098161E+02 0.  0.
         25    2    1    2    0    0  0.18696300142E+02  0.17789472860E+02  0.20013607157E+03  0.23741537110E+03  0.12508235012E+03 0.  0.
        -24    2    1    2    0    0 -0.14203327047E+02  0.41316051422E+02  0.98161245921E+03  0.98591626200E+03  0.80988301481E+02 0.  0.
        -13    1    3    3    0    0  0.46916410557E+01  0.18693649945E+02 -0.12887542520E+03  0.13030863081E+03  0.00000000000E+00 0.  1.
         14    1    3    3    0    0 -0.91846141513E+01 -0.77799174227E+02 -0.92222400828E+03  0.92554534740E+03  0.00000000000E+00 0. -1.
         11    1    5    5    0    0 -0.23030783066E+02  0.39224047380E+02  0.97052513420E+03  0.97159043787E+03  0.00000000000E+00 0. -1.
        -12    1    5    5    0    0  0.88274560198E+01  0.20920040423E+01  0.11087325020E+02  0.14325824122E+02  0.00000000000E+00 0.  1.
          5    1    4    4  501    0 -0.31196107446E+02 -0.23231849776E+02  0.16055243075E+02  0.42286631386E+02  0.41800000000E+01 0.  1.
         -5    1    4    4    0  501  0.49892407589E+02  0.41021322636E+02  0.18408082849E+03  0.19512873972E+03  0.41800000000E+01 0.  1.
</event>
<event>
11    1  0.8479398E-009  0.1301139E+03  0.7561462E-02  0.1119129E+00
         22   -1    0    0    0    0  0.00000000000E+00  0.00000000000E+00  0.47512640725E+03  0.47512640725E+03  0.00000000000E+00 0. -1.
         22   -1    0    0    0    0 -0.00000000000E+00 -0.00000000000E+00 -0.84667420236E+02  0.84667420236E+02  0.00000000000E+00 0.  1.
        -24    2    1    2    0    0 -0.18910770209E+02  0.91370146704E+01 -0.27141290943E+02  0.88317584943E+02  0.81377170442E+02 0.  0.
         25    2    1    2    0    0  0.47654044541E+02 -0.43398676781E+01  0.24746426254E+03  0.28138596195E+03  0.12509898455E+03 0.  0.
         24    2    1    2    0    0 -0.28743274332E+02 -0.47971469923E+01  0.17013601542E+03  0.19009028060E+03  0.79616974290E+02 0.  0.
        -11    1    5    5    0    0 -0.34709558745E+01 -0.53865346187E+01 -0.79545332256E+01  0.10214543001E+02  0.00000000000E+00 0.  1.
         12    1    5    5    0    0 -0.25272318458E+02  0.58938762645E+00  0.17809054865E+03  0.17987573760E+03  0.00000000000E+00 0. -1.
         11    1    3    3    0    0 -0.11241847187E+02  0.43262830104E+02 -0.11036383825E+01  0.44713192846E+02  0.00000000000E+00 0. -1.
        -12    1    3    3    0    0 -0.76689230212E+01 -0.34125815434E+02 -0.26037652560E+02  0.43604392097E+02  0.00000000000E+00 0.  1.
          5    1    4    4  501    0 -0.24775130695E+02  0.36381828253E+02  0.47968399060E+02  0.65237138475E+02  0.41800000000E+01 0. -1.
         -5    1    4    4    0  501  0.72429175235E+02 -0.40721695931E+02  0.19949586348E+03  0.21614882348E+03  0.41800000000E+01 0. -1.
</event>
<event>
11    1  0.8479398E-009  0.1321758E+03  0.7561462E-02  0.1116624E+00
         22   -1    0    0    0    0  0.00000000000E+00  0.00000000000E+00  0.64520232748E+03  0.64520232748E+03  0.00000000000E+00 0.  1.
         22   -1    0    0    0    0 -0.00000000000E+00 -0.00000000000E+00 -0.17852708327E+03  0.17852708327E+03  0.00000000000E+00 0. -1.
        -24    2    1    2    0    0 -0.29224308746E+01 -0.76749546782E+01 -0.11794429119E+03  0.14232080720E+03  0.79226957570E+02 0.  0.
         25    2    1    2    0    0 -0.20960742219E+02 -0.28856872093E+02  0.55449945955E+02  0.14138572320E+03  0.12507259667E+03 0.  0.
         24    2    1    2    0    0  0.23883173094E+02  0.36531826771E+02  0.52916958945E+03  0.54002288035E+03  0.98484905338E+02 0.  0.
        -11    1    5    5    0    0 -0.30687248040E+02  0.28162228969E+02  0.35186970377E+03  0.35432627162E+03  0.00000000000E+00 0.  1.
         12    1    5    5    0    0  0.54570421134E+02  0.83695978016E+01  0.17729988569E+03  0.18569660873E+03  0.00000000000E+00 0. -1.
         11    1    3    3    0    0 -0.30643624604E+00  0.18850186778E+01 -0.12810927221E+03  0.12812350613E+03  0.00000000000E+00 0. -1.
        -12    1    3    3    0    0 -0.26159946286E+01 -0.95599733560E+01  0.10164981016E+02  0.14197301065E+02  0.00000000000E+00 0.  1.
          5    1    4    4  501    0 -0.10953032367E+02 -0.12831909656E+02 -0.40200824123E+02  0.43797322791E+02  0.41800000000E+01 0. -1.
         -5    1    4    4    0  501 -0.10007709852E+02 -0.16024962436E+02  0.95650770078E+02  0.97588400408E+02  0.41800000000E+01 0. -1.
</event>
<event>
11    1  0.8479398E-009  0.2800773E+03  0.7561462E-02  0.1008994E+00
         22   -1    0    0    0    0  0.00000000000E+00  0.00000000000E+00  0.99680392705E+03  0.99680392705E+03  0.00000000000E+00 0. -1.
         22   -1    0    0    0    0 -0.00000000000E+00 -0.00000000000E+00 -0.14843482691E+04  0.14843482691E+04  0.00000000000E+00 0.  1.
         24    2    1    2    0    0  0.11775615141E+03  0.21141269099E+03 -0.10845105423E+04  0.11140819920E+04  0.80335119877E+02 0.  0.
         25    2    1    2    0    0 -0.16329289179E+03 -0.23876456266E+03 -0.31764302524E+03  0.44745843647E+03  0.12509546750E+03 0.  0.
        -24    2    1    2    0    0  0.45536740378E+02  0.27351871670E+02  0.91460922552E+03  0.91961176762E+03  0.79712283441E+02 0.  0.
        -13    1    3    3    0    0  0.88416635711E+02  0.14034860898E+03 -0.56276698662E+03  0.58670428219E+03  0.00000000000E+00 0.  1.
         14    1    3    3    0    0  0.29339515701E+02  0.71064082008E+02 -0.52174355570E+03  0.52737770985E+03  0.00000000000E+00 0. -1.
         13    1    5    5    0    0  0.16001613680E+02  0.25288282588E+02  0.81846928261E+03  0.81901618754E+03  0.00000000000E+00 0. -1.
        -14    1    5    5    0    0  0.29535126698E+02  0.20635890819E+01  0.96139942912E+02  0.10059558008E+03  0.00000000000E+00 0.  1.
          5    1    4    4  501    0 -0.18190296797E+03 -0.22478919945E+03 -0.27711015365E+03  0.40053262489E+03  0.41800000000E+01 0.  1.
         -5    1    4    4    0  501  0.18610076184E+02 -0.13975363213E+02 -0.40532871598E+02  0.46925811581E+02  0.41800000000E+01 0.  1.
</event>
<event>
11    1  0.8479398E-009  0.1526864E+03  0.7561462E-02  0.1094165E+00
         22   -1    0    0    0    0  0.00000000000E+00  0.00000000000E+00  0.23315606078E+04  0.23315606078E+04  0.00000000000E+00 0.  1.
         22   -1    0    0    0    0 -0.00000000000E+00 -0.00000000000E+00 -0.67052023598E+03  0.67052023598E+03  0.00000000000E+00 0. -1.
        -24    2    1    2    0    0 -0.53539629104E+01 -0.88774107203E+02 -0.64616705573E+03  0.65770404344E+03  0.84458497641E+02 0.  0.
         25    2    1    2    0    0 -0.49485559858E+01  0.30661109903E+02  0.22127522702E+03  0.25607635244E+03  0.12509108809E+03 0.  0.
         24    2    1    2    0    0  0.10302518896E+02  0.58112997300E+02  0.20859322005E+04  0.20883004479E+04  0.80014706136E+02 0.  0.
        -13    1    5    5    0    0 -0.44688415917E+01  0.62431666900E+02  0.20014166187E+04  0.20023951071E+04  0.00000000000E+00 0.  1.
         14    1    5    5    0    0  0.14771360488E+02 -0.43186696006E+01  0.84515581884E+02  0.85905340806E+02  0.00000000000E+00 0. -1.
         11    1    3    3    0    0 -0.83061112546E+01 -0.10297144959E+03 -0.61088242119E+03  0.61955584367E+03  0.00000000000E+00 0. -1.
        -12    1    3    3    0    0  0.29521483442E+01  0.14197342392E+02 -0.35284634540E+02  0.38148199767E+02  0.00000000000E+00 0.  1.
          5    1    4    4  501    0  0.23692977241E+02  0.40256335672E+02  0.22064704867E+03  0.22557597881E+03  0.41800000000E+01 0.  1.
         -5    1    4    4    0  501 -0.28641533227E+02 -0.95952257692E+01  0.62817835214E+00  0.30500373624E+02  0.41800000000E+01 0.  1.
</event>
<event>
11    1  0.8479398E-009  0.1404217E+03  0.7561462E-02  0.1107088E+00
         22   -1    0    0    0    0  0.00000000000E+00  0.00000000000E+00  0.13135101740E+04  0.13135101740E+04  0.00000000000E+00 0.  1.
         22   -1    0    0    0    0 -0.00000000000E+00 -0.00000000000E+00 -0.12780542033E+03  0.12780542033E+03  0.00000000000E+00 0.  1.
        -24    2    1    2    0    0 -0.56743726039E+02  0.37045525298E+02 -0.89576494472E+02  0.13292245373E+03  0.71078892467E+02 0.  0.
         25    2    1    2    0    0  0.26561528170E+02 -0.90800007752E+02  0.44479552794E+03  0.47163614259E+03  0.12508970036E+03 0.  0.
         24    2    1    2    0    0  0.30182197870E+02  0.53754482454E+02  0.83048572016E+03  0.83675699797E+03  0.81579610312E+02 0.  0.
        -11    1    5    5    0    0 -0.93139518899E+01  0.48617287624E+02  0.65223404521E+03  0.65410980736E+03  0.00000000000E+00 0.  1.
         12    1    5    5    0    0  0.39496149760E+02  0.51371948305E+01  0.17825167495E+03  0.18264719062E+03  0.00000000000E+00 0. -1.
         11    1    3    3    0    0  0.25426226530E+01 -0.15982914258E+02 -0.27963616982E+02  0.32309168248E+02  0.00000000000E+00 0. -1.
        -12    1    3    3    0    0 -0.59286348692E+02  0.53028439556E+02 -0.61612877490E+02  0.10061328548E+03  0.00000000000E+00 0.  1.
          5    1    4    4  501    0  0.55379705899E+02 -0.69513863268E+02  0.41620513509E+03  0.42560929957E+03  0.41800000000E+01 0.  1.
         -5    1    4    4    0  501 -0.28818177729E+02 -0.21286144484E+02  0.28590392853E+02  0.46026843016E+02  0.41800000000E+01 0.  1.
</event>
<event>
11    1  0.8479398E-009  0.2199786E+03  0.7561462E-02  0.1041231E+00
         22   -1    0    0    0    0  0.00000000000E+00  0.00000000000E+00  0.38733638573E+04  0.38733638573E+04  0.00000000000E+00 0.  1.
         22   -1    0    0    0    0 -0.00000000000E+00 -0.00000000000E+00 -0.41928576839E+03  0.41928576839E+03  0.00000000000E+00 0.  1.
        -24    2    1    2    0    0 -0.16471493095E+01  0.11005096746E+02 -0.37506250006E+03  0.38360620802E+03  0.79737184688E+02 0.  0.
         25    2    1    2    0    0  0.17154137145E+03 -0.72211682877E+02  0.30109626445E+03  0.37542866781E+03  0.12508698930E+03 0.  0.
         24    2    1    2    0    0 -0.16989422214E+03  0.61206586131E+02  0.35280443245E+04  0.35336147498E+04  0.82013119015E+02 0.  0.
        -11    1    5    5    0    0 -0.99884297403E+02 -0.73306943459E+01  0.17024928390E+04  0.17054361550E+04  0.00000000000E+00 0.  1.
         12    1    5    5    0    0 -0.70009924732E+02  0.68537280477E+02  0.18255514855E+04  0.18281785948E+04  0.00000000000E+00 0. -1.
         13    1    3    3    0    0  0.28662361271E+02 -0.10509338912E+02 -0.27798565879E+03  0.27965693922E+03  0.00000000000E+00 0. -1.
        -14    1    3    3    0    0 -0.30309510580E+02  0.21514435658E+02 -0.97076841265E+02  0.10394926880E+03  0.00000000000E+00 0.  1.
          5    1    4    4  501    0  0.11044178747E+03 -0.10679825559E+03  0.19864929485E+03  0.25116184137E+03  0.41800000000E+01 0.  1.
         -5    1    4    4    0  501  0.61099583979E+02  0.34586572717E+02  0.10244696960E+03  0.12426682644E+03  0.41800000000E+01 0.  1.
</event>
<event>
11    1  0.8479398E-009  0.1427212E+03  0.7561462E-02  0.1104557E+00
         22   -1    0    0    0    0  0.00000000000E+00  0.00000000000E+00  0.28794566803E+03  0.28794566803E+03  0.00000000000E+00 0. -1.
         22   -1    0    0    0    0 -0.00000000000E+00 -0.00000000000E+00 -0.95563786553E+03  0.95563786553E+03  0.00000000000E+00 0. -1.
        -24    2    1    2    0    0  0.46399200714E+02  0.43566207818E+02 -0.88711970120E+03  0.89282559033E+03  0.78136228474E+02 0.  0.
         25    2    1    2    0    0  0.30008815791E+02 -0.55795044888E+02  0.51412155265E+02  0.14935930020E+03  0.12510545467E+03 0.  0.
         24    2    1    2    0    0 -0.76408016505E+02  0.12228837070E+02  0.16801534843E+03  0.20139864302E+03  0.79652537068E+02 0.  0.
        -11    1    5    5    0    0 -0.64932190706E+02  0.29164077863E+02  0.65071612305E+02  0.96441938779E+02  0.00000000000E+00 0.  1.
         12    1    5    5    0    0 -0.11475825799E+02 -0.16935240793E+02  0.10294373613E+03  0.10495670425E+03  0.00000000000E+00 0. -1.
         11    1    3    3    0    0  0.64094896003E+02  0.12915329734E+02 -0.57264628253E+03  0.57636683313E+03  0.00000000000E+00 0. -1.
        -12    1    3    3    0    0 -0.17695695289E+02  0.30650878084E+02 -0.31447341867E+03  0.31645875720E+03  0.00000000000E+00 0.  1.
          5    1    4    4  501    0  0.54783235120E+02  0.43831895180E+01 -0.14132205288E+02  0.56899972117E+02  0.41800000000E+01 0.  1.
         -5    1    4    4    0  501 -0.24774419329E+02 -0.60178234406E+02  0.65544360553E+02  0.92459328083E+02  0.41800000000E+01 0.  1.
</event>
<event>
11    1  0.8479398E-009  0.3071766E+03  0.7561462E-02  0.9971989E-01
         22   -1    0    0    0    0  0.00000000000E+00  0.00000000000E+00  0.28351232532E+03  0.28351232532E+03  0.00000000000E+00 0. -1.
         22   -1    0    0    0    0 -0.00000000000E+00 -0.00000000000E+00 -0.41981464275E+03  0.41981464275E+03  0.00000000000E+00 0. -1.
         24    2    1    2    0    0  0.12295831972E+03  0.17920442529E+03 -0.28035671674E+03  0.36404963223E+03  0.81849078639E+02 0.  0.
         25    2    1    2    0    0 -0.69147292872E+02 -0.73985458929E+02  0.46737528366E+02  0.16759156784E+03  0.12508933131E+03 0.  0.
        -24    2    1    2    0    0 -0.53811026848E+02 -0.10521896636E+03  0.97316870935E+02  0.17168576800E+03  0.77709536556E+02 0.  0.
        -13    1    3    3    0    0  0.41121276564E+02  0.10951940479E+03 -0.99092100339E+02  0.15331243838E+03  0.00000000000E+00 0.  1.
         14    1    3    3    0    0  0.81837043156E+02  0.69685020506E+02 -0.18126461640E+03  0.21073719386E+03  0.00000000000E+00 0. -1.
         13    1    5    5    0    0  0.13654941071E+02 -0.56368427434E+02  0.36116338682E+02  0.68324570594E+02  0.00000000000E+00 0. -1.
        -14    1    5    5    0    0 -0.67465967919E+02 -0.48850538930E+02  0.61200532253E+02  0.10336119741E+03  0.00000000000E+00 0.  1.
          5    1    4    4  501    0 -0.95387267208E+02 -0.82308880813E+02  0.17587796205E+02  0.12728034248E+03  0.41800000000E+01 0.  1.
         -5    1    4    4    0  501  0.26239974336E+02  0.83234218841E+01  0.29149732162E+02  0.40311225361E+02  0.41800000000E+01 0.  1.
</event>
<event>
11    1  0.8479398E-009  0.1668365E+03  0.7561462E-02  0.1080818E+00
         22   -1    0    0    0    0  0.00000000000E+00  0.00000000000E+00  0.71113531798E+03  0.71113531798E+03  0.00000000000E+00 0. -1.
         22   -1    0    0    0    0 -0.00000000000E+00 -0.00000000000E+00 -0.32802566967E+04  0.32802566967E+04  0.00000000000E+00 0.  1.
        -24    2    1    2    0    0  0.97582835834E+01 -0.51375797554E+02 -0.29047025361E+04  0.29063245139E+04  0.81796455218E+02 0.  0.
         25    2    1    2    0    0 -0.88898980312E+02  0.12725091396E+03 -0.34113027486E+03  0.39511252100E+03  0.12509282962E+03 0.  0.
         24    2    1    2    0    0  0.79140696729E+02 -0.75875116407E+02  0.67671143225E+03  0.68995497979E+03  0.77969406949E+02 0.  0.
        -13    1    5    5    0    0  0.35221890213E+02  0.72072393771E+01  0.27816747821E+03  0.28048114337E+03  0.00000000000E+00 0.  1.
         14    1    5    5    0    0  0.43918806516E+02 -0.83082355784E+02  0.39854395404E+03  0.40947383642E+03  0.00000000000E+00 0. -1.
         11    1    3    3    0    0 -0.27625437390E+02 -0.33262920676E+02 -0.76656949444E+03  0.76778797626E+03  0.00000000000E+00 0. -1.
        -12    1    3    3    0    0  0.37383720974E+02 -0.18112876878E+02 -0.21381330417E+04  0.21385365377E+04  0.00000000000E+00 0.  1.
          5    1    4    4  501    0 -0.41142157445E+01 -0.81338607460E+01  0.68849980090E+01  0.12163965612E+02  0.41800000000E+01 0.  1.
         -5    1    4    4    0  501 -0.84784764568E+02  0.13538477471E+03 -0.34801527287E+03  0.38294855539E+03  0.41800000000E+01 0.  1.
</event>
<event>
11    1  0.8479398E-009  0.1486882E+03  0.7561462E-02  0.1098227E+00
         22   -1    0    0    0    0  0.00000000000E+00  0.00000000000E+00  0.17417598299E+04  0.17417598299E+04  0.00000000000E+00 0.  1.
         22   -1    0    0    0    0 -0.00000000000E+00 -0.00000000000E+00 -0.24006069513E+03  0.24006069513E+03  0.00000000000E+00 0.  1.
         24    2    1    2    0    0  0.49971683295E+02 -0.71382581077E+02 -0.16670398182E+03  0.20423792657E+03  0.79563000723E+02 0.  0.
         25    2    1    2    0    0 -0.42179999613E+02  0.30337296191E+02  0.32570996750E+02  0.13931850492E+03  0.12509705063E+03 0.  0.
        -24    2    1    2    0    0 -0.77916836823E+01  0.41045284886E+02  0.16358321199E+04  0.16382640936E+04  0.78848526544E+02 0.  0.
        -13    1    3    3    0    0  0.61975115523E+02 -0.48376418983E+02 -0.15865885859E+03  0.17707011681E+03  0.00000000000E+00 0.  1.
         14    1    3    3    0    0 -0.12003432228E+02 -0.23006162094E+02 -0.80451232275E+01  0.27167809763E+02  0.00000000000E+00 0. -1.
         11    1    5    5    0    0 -0.16014221879E+02 -0.16654772993E+02  0.83246741024E+03  0.83278798375E+03  0.00000000000E+00 0. -1.
        -12    1    5    5    0    0  0.82225381963E+01  0.57700057879E+02  0.80336470962E+03  0.80547610981E+03  0.00000000000E+00 0.  1.
          5    1    4    4  501    0  0.33133164210E+02  0.22989291005E+02 -0.21812496692E+02  0.46038804105E+02  0.41800000000E+01 0.  1.
         -5    1    4    4    0  501 -0.75313163822E+02  0.73480051856E+01  0.54383493442E+02  0.93279700815E+02  0.41800000000E+01 0.  1.
</event>
<event>
11    1  0.8479398E-009  0.1851541E+03  0.7561462E-02  0.1065548E+00
         22   -1    0    0    0    0  0.00000000000E+00  0.00000000000E+00  0.15363006060E+04  0.15363006060E+04  0.00000000000E+00 0. -1.
         22   -1    0    0    0    0 -0.00000000000E+00 -0.00000000000E+00 -0.98173087958E+02  0.98173087958E+02  0.00000000000E+00 0.  1.
         24    2    1    2    0    0 -0.12308581744E+03 -0.42149658325E+02  0.52546211151E+02  0.16311778250E+03  0.83184100107E+02 0.  0.
         25    2    1    2    0    0  0.13561804704E+03  0.66627807453E+02  0.19114285149E+03  0.27388926003E+03  0.12509283624E+03 0.  0.
        -24    2    1    2    0    0 -0.12532229597E+02 -0.24478149128E+02  0.11944384554E+04  0.11974666514E+04  0.80541423857E+02 0.  0.
        -11    1    3    3    0    0 -0.96140485932E+02 -0.91436550246E+00  0.76159834818E+01  0.96446007195E+02  0.00000000000E+00 0.  1.
         12    1    3    3    0    0 -0.26945331507E+02 -0.41235292823E+02  0.44930227669E+02  0.66671775307E+02  0.00000000000E+00 0. -1.
         13    1    5    5    0    0 -0.24565390117E+02 -0.36953052461E+02  0.11257812776E+04  0.11266554360E+04  0.00000000000E+00 0. -1.
        -14    1    5    5    0    0  0.12033160521E+02  0.12474903333E+02  0.68657177797E+02  0.70811215414E+02  0.00000000000E+00 0.  1.
          5    1    4    4  501    0  0.13655608115E+02  0.26616784983E+02 -0.12859025525E+02  0.32829191480E+02  0.41800000000E+01 0. -1.
         -5    1    4    4    0  501  0.12196243892E+03  0.40011022470E+02  0.20400187701E+03  0.24106006855E+03  0.41800000000E+01 0. -1.
</event>
<event>
11    1  0.8479398E-009  0.2567236E+03  0.7561462E-02  0.1020377E+00
         22   -1    0    0    0    0  0.00000000000E+00  0.00000000000E+00  0.56235134886E+03  0.56235134886E+03  0.00000000000E+00 0.  1.
         22   -1    0    0    0    0 -0.00000000000E+00 -0.00000000000E+00 -0.48793280460E+03  0.48793280460E+03  0.00000000000E+00 0.  1.
         24    2    1    2    0    0  0.48506902660E+01  0.36983044584E+02 -0.27686731406E+03  0.29397425871E+03  0.91510001656E+02 0.  0.
         25    2    1    2    0    0 -0.12279475747E+03 -0.22148851859E+03 -0.55012335229E+02  0.28776727197E+03  0.12509168423E+03 0.  0.
        -24    2    1    2    0    0  0.11794406720E+03  0.18450547401E+03  0.40629819355E+03  0.46854262278E+03  0.80628123803E+02 0.  0.
        -13    1    3    3    0    0 -0.42975850094E+01  0.56797499823E+02 -0.94743937429E+02  0.11054790320E+03  0.00000000000E+00 0.  1.
         14    1    3    3    0    0  0.91482752754E+01 -0.19814455239E+02 -0.18212337663E+03  0.18342635550E+03  0.00000000000E+00 0. -1.
         11    1    5    5    0    0  0.24768109177E+02 -0.30893114116E-01  0.27523657527E+02  0.37027177995E+02  0.00000000000E+00 0. -1.
        -12    1    5    5    0    0  0.93175958025E+02  0.18453636712E+03  0.37877453603E+03  0.43151544478E+03  0.00000000000E+00 0.  1.
          5    1    4    4  501    0 -0.11507869230E+03 -0.11832610536E+03 -0.76586157567E+02  0.18200847387E+03  0.41800000000E+01 0. -1.
         -5    1    4    4    0  501 -0.77160651724E+01 -0.10316241324E+03  0.21573822339E+02  0.10575879811E+03  0.41800000000E+01 0. -1.
</event>
<event>
11    1  0.8479398E-009  0.1288716E+03  0.7561462E-02  0.1120663E+00
         22   -1    0    0    0    0  0.00000000000E+00  0.00000000000E+00  0.60443631638E+03  0.60443631638E+03  0.00000000000E+00 0.  1.
         22   -1    0    0    0    0 -0.00000000000E+00 -0.00000000000E+00 -0.70963686880E+03  0.70963686880E+03  0.00000000000E+00 0.  1.
         24    2    1    2    0    0 -0.28488822285E+02 -0.67566345559E+01 -0.62145232886E+03  0.62828981292E+03  0.87680253593E+02 0.  0.
         25    2    1    2    0    0  0.56148716187E+02  0.29140991689E+02 -0.20379343121E+02  0.14164724281E+03  0.12508696192E+03 0.  0.
        -24    2    1    2    0    0 -0.27659893902E+02 -0.22384357133E+02  0.53663111955E+03  0.54413612945E+03  0.82734755247E+02 0.  0.
        -13    1    3    3    0    0 -0.38606269408E+02  0.19623137677E+02 -0.54610493898E+03  0.54781941910E+03  0.00000000000E+00 0.  1.
         14    1    3    3    0    0  0.10117447122E+02 -0.26379772233E+02 -0.75347389880E+02  0.80470393817E+02  0.00000000000E+00 0. -1.
         11    1    5    5    0    0 -0.48707603217E+02  0.88979842982E+01  0.36963796934E+03  0.37293944966E+03  0.00000000000E+00 0. -1.
        -12    1    5    5    0    0  0.21047709315E+02 -0.31282341431E+02  0.16699315021E+03  0.17119667979E+03  0.00000000000E+00 0.  1.
          5    1    4    4  501    0 -0.10206233352E+02  0.62905921354E+02  0.16682854193E+01  0.63887226555E+02  0.41800000000E+01 0. -1.
         -5    1    4    4    0  501  0.66354949540E+02 -0.33764929664E+02 -0.22047628541E+02  0.77760016255E+02  0.41800000000E+01 0. -1.
</event>
<event>
11    1  0.8479398E-009  0.1368363E+03  0.7561462E-02  0.1111144E+00
         22   -1    0    0    0    0  0.00000000000E+00  0.00000000000E+00  0.97836994828E+02  0.97836994828E+02  0.00000000000E+00 0. -1.
         22   -1    0    0    0    0 -0.00000000000E+00 -0.00000000000E+00 -0.99104940025E+03  0.99104940025E+03  0.00000000000E+00 0. -1.
        -24    2    1    2    0    0  0.66523820652E+02  0.22638659670E+02 -0.36169051966E+03  0.38072705477E+03  0.95891243600E+02 0.  0.
         25    2    1    2    0    0 -0.30876870517E+02 -0.35970200100E+02 -0.58834301341E+03  0.60335911260E+03  0.12508989130E+03 0.  0.
         24    2    1    2    0    0 -0.35646950134E+02  0.13331540429E+02  0.56821127643E+02  0.10480022771E+03  0.79410403326E+02 0.  0.
        -13    1    5    5    0    0 -0.34144195974E+02 -0.29323770770E+02  0.24363146913E+02  0.51178829396E+02  0.00000000000E+00 0.  1.
         14    1    5    5    0    0 -0.15027541605E+01  0.42655311199E+02  0.32457980730E+02  0.53621398309E+02  0.00000000000E+00 0. -1.
         13    1    3    3    0    0  0.85668524978E+01  0.20075426914E+02 -0.27822724774E+03  0.27908209386E+03  0.00000000000E+00 0. -1.
        -14    1    3    3    0    0  0.57956968154E+02  0.25632327565E+01 -0.83463271915E+02  0.10164496091E+03  0.00000000000E+00 0.  1.
          5    1    4    4  501    0 -0.36485312203E+02 -0.48381701622E+01 -0.55831837402E+03  0.55954576673E+03  0.41800000000E+01 0.  1.
         -5    1    4    4    0  501  0.56084416853E+01 -0.31132029937E+02 -0.30024639392E+02  0.43813345875E+02  0.41800000000E+01 0.  1.
</event>
<event>
11    1  0.8479398E-009  0.9047801E+03  0.7561462E-02  0.8775260E-01
         22   -1    0    0    0    0  0.00000000000E+00  0.00000000000E+00  0.13251719530E+04  0.13251719530E+04  0.00000000000E+00 0. -1.
         22   -1    0    0    0    0 -0.00000000000E+00 -0.00000000000E+00 -0.13689093916E+04  0.13689093916E+04  0.00000000000E+00 0.  1.
         24    2    1    2    0    0 -0.51249120898E+02  0.67147860371E+02 -0.27600054604E+03  0.29964247882E+03  0.80461208999E+02 0.  0.
         25    2    1    2    0    0  0.11266586411E+03  0.83784301664E+03 -0.68893313039E+03  0.10977023986E+04  0.12508868940E+03 0.  0.
        -24    2    1    2    0    0 -0.61416743216E+02 -0.90499087702E+03  0.92119623780E+03  0.12967364672E+04  0.10070974613E+03 0.  0.
        -13    1    3    3    0    0 -0.10784303737E+02  0.15635686283E+02 -0.19287893339E+03  0.19381191614E+03  0.00000000000E+00 0.  1.
         14    1    3    3    0    0 -0.40464817161E+02  0.51512174088E+02 -0.83121612645E+02  0.10583056267E+03  0.00000000000E+00 0. -1.
         11    1    5    5    0    0 -0.50443891344E+02 -0.83400314557E+03  0.88194996615E+03  0.12148833589E+04  0.00000000000E+00 0. -1.
        -12    1    5    5    0    0 -0.10972851872E+02 -0.70987731445E+02  0.39246271648E+02  0.81853108262E+02  0.00000000000E+00 0.  1.
          5    1    4    4  501    0  0.16423956931E+02  0.56404548174E+03 -0.44998594869E+03  0.72174917960E+03  0.41800000000E+01 0. -1.
         -5    1    4    4    0  501  0.96241907183E+02  0.27379753490E+03 -0.23894718170E+03  0.37595321898E+03  0.41800000000E+01 0. -1.
</event>
<event>
11    1  0.8479398E-009  0.1750358E+03  0.7561462E-02  0.1073731E+00
         22   -1    0    0    0    0  0.00000000000E+00  0.00000000000E+00  0.22650341477E+03  0.22650341477E+03  0.00000000000E+00 0. -1.
         22   -1    0    0    0    0 -0.00000000000E+00 -0.00000000000E+00 -0.14705821971E+04  0.14705821971E+04  0.00000000000E+00 0. -1.
         24    2    1    2    0    0  0.78025412867E+02  0.99174031849E+02 -0.12896650501E+04  0.12984302741E+04  0.82230052568E+02 0.  0.
         25    2    1    2    0    0 -0.11865815648E+03 -0.56929931330E+01 -0.10339913623E+03  0.20112556320E+03  0.12509173646E+03 0.  0.
        -24    2    1    2    0    0  0.40632743615E+02 -0.93481038716E+02  0.14898540402E+03  0.19752977457E+03  0.80197486105E+02 0.  0.
        -11    1    3    3    0    0  0.49099850338E+02  0.14538910624E+02 -0.71661344318E+03  0.71844067408E+03  0.00000000000E+00 0.  1.
         12    1    3    3    0    0  0.28925562528E+02  0.84635121225E+02 -0.57305160693E+03  0.57998960001E+03  0.00000000000E+00 0. -1.
         11    1    5    5    0    0  0.58187859386E+02 -0.64915162914E+02  0.13606668781E+03  0.16159810917E+03  0.00000000000E+00 0. -1.
        -12    1    5    5    0    0 -0.17555115771E+02 -0.28565875801E+02  0.12918716218E+02  0.35931665405E+02  0.00000000000E+00 0.  1.
          5    1    4    4  501    0 -0.37471451870E+01 -0.48718599763E+00 -0.84250682664E+02  0.84438903218E+02  0.41800000000E+01 0.  1.
         -5    1    4    4    0  501 -0.11491101129E+03 -0.52058071354E+01 -0.19148453563E+02  0.11668665999E+03  0.41800000000E+01 0.  1.
</event>
<event>
11    1  0.8479398E-009  0.1720358E+03  0.7561462E-02  0.1076274E+00
         22   -1    0    0    0    0  0.00000000000E+00  0.00000000000E+00  0.35575738611E+03  0.35575738611E+03  0.00000000000E+00 0.  1.
         22   -1    0    0    0    0 -0.00000000000E+00 -0.00000000000E+00 -0.21163874218E+04  0.21163874218E+04  0.00000000000E+00 0. -1.
         24    2    1    2    0    0 -0.11036018641E+03  0.45980559892E+02 -0.18557989093E+04  0.18614509209E+04  0.81953380504E+02 0.  0.
         25    2    1    2    0    0  0.10309899230E+03 -0.23795428956E+02 -0.22566576435E+03  0.27886950425E+03  0.12509012171E+03 0.  0.
        -24    2    1    2    0    0  0.72611941063E+01 -0.22185130936E+02  0.32083463799E+03  0.33182438271E+03  0.81410386641E+02 0.  0.
        -13    1    3    3    0    0 -0.64737882547E+02  0.66764758867E+02 -0.10585201502E+04  0.10625974943E+04  0.00000000000E+00 0.  1.
         14    1    3    3    0    0 -0.45622303858E+02 -0.20784198975E+02 -0.79727875909E+03  0.79885342663E+03  0.00000000000E+00 0. -1.
         13    1    5    5    0    0  0.12740320366E+02  0.18866658901E+02  0.28053380226E+02  0.36128364525E+02  0.00000000000E+00 0. -1.
        -14    1    5    5    0    0 -0.54791262601E+01 -0.41051789837E+02  0.29278125777E+03  0.29569601819E+03  0.00000000000E+00 0.  1.
          5    1    4    4  501    0  0.18122986276E+02 -0.40095695323E+02 -0.17057738638E+03  0.17621073906E+03  0.41800000000E+01 0. -1.
         -5    1    4    4    0  501  0.84976006023E+02  0.16300266368E+02 -0.55088377970E+02  0.10265876519E+03  0.41800000000E+01 0. -1.
</event>
<event>
11    1  0.8479398E-009  0.1459454E+03  0.7561462E-02  0.1101095E+00
         22   -1    0    0    0    0  0.00000000000E+00  0.00000000000E+00  0.22832569760E+03  0.22832569760E+03  0.00000000000E+00 0. -1.
         22   -1    0    0    0    0 -0.00000000000E+00 -0.00000000000E+00 -0.29605851147E+03  0.29605851147E+03  0.00000000000E+00 0.  1.
        -24    2    1    2    0    0 -0.53169906917E+02  0.31888316012E+02 -0.83763699816E+02  0.13133069021E+03  0.79921768526E+02 0.  0.
         25    2    1    2    0    0  0.12325876699E+03 -0.30259874196E+02 -0.12390977619E+03  0.21704544083E+03  0.12508679835E+03 0.  0.
         24    2    1    2    0    0 -0.70088860076E+02 -0.16284418166E+01  0.13994066213E+03  0.17600807803E+03  0.80500648980E+02 0.  0.
        -11    1    5    5    0    0 -0.15244901149E+02 -0.31395577639E+02  0.18566470113E+02  0.39532304749E+02  0.00000000000E+00 0.  1.
         12    1    5    5    0    0 -0.54843958927E+02  0.29767135822E+02  0.12137419202E+03  0.13647577329E+03  0.00000000000E+00 0. -1.
         13    1    3    3    0    0  0.20495679832E+02  0.14506073747E+02 -0.16272078257E+02  0.29921223206E+02  0.00000000000E+00 0. -1.
        -14    1    3    3    0    0 -0.73665586749E+02  0.17382242265E+02 -0.67491621558E+02  0.10140946700E+03  0.00000000000E+00 0.  1.
          5    1    4    4  501    0  0.74461559892E+02 -0.62615592567E+02 -0.12485427091E+03  0.15833918560E+03  0.41800000000E+01 0. -1.
         -5    1    4    4    0  501  0.48797207101E+02  0.32355718371E+02  0.94449471929E+00  0.58706255224E+02  0.41800000000E+01 0. -1.
</event>
<event>
11    1  0.8479398E-009  0.1486559E+03  0.7561462E-02  0.1098260E+00
         22   -1    0    0    0    0  0.00000000000E+00  0.00000000000E+00  0.14173800186E+04  0.14173800186E+04  0.00000000000E+00 0.  1.
         22   -1    0    0    0    0 -0.00000000000E+00 -0.00000000000E+00 -0.61356017782E+03  0.61356017782E+03  0.00000000000E+00 0. -1.
        -24    2    1    2    0    0  0.78068827531E+02  0.19990059108E+02 -0.57008536470E+03  0.58121668100E+03  0.79505741506E+02 0.  0.
         25    2    1    2    0    0 -0.86192266970E+02  0.52018228432E+02  0.14593682473E+03  0.21697943192E+03  0.12509002395E+03 0.  0.
         24    2    1    2    0    0  0.81234394394E+01 -0.72008287540E+02  0.12279683807E+04  0.12327440835E+04  0.80625352821E+02 0.  0.
        -11    1    5    5    0    0  0.28764284254E+02 -0.73031847516E+02  0.11242562955E+04  0.11269930136E+04  0.00000000000E+00 0.  1.
         12    1    5    5    0    0 -0.20640844814E+02  0.10235599765E+01  0.10371208522E+03  0.10575106983E+03  0.00000000000E+00 0. -1.
         11    1    3    3    0    0  0.92733185857E+02  0.13652792754E+02 -0.52687662349E+03  0.53514934261E+03  0.00000000000E+00 0. -1.
        -12    1    3    3    0    0 -0.14664358326E+02  0.63372663540E+01 -0.43208741211E+02  0.46067338397E+02  0.00000000000E+00 0.  1.
          5    1    4    4  501    0 -0.95791864506E+02  0.83270252652E+02  0.12323293825E+03  0.17695718621E+03  0.41800000000E+01 0.  1.
         -5    1    4    4    0  501  0.95995975356E+01 -0.31252024220E+02  0.22703886481E+02  0.40022245714E+02  0.41800000000E+01 0.  1.
</event>
<event>
11    1  0.8479398E-009  0.1409954E+03  0.7561462E-02  0.1106452E+00
         22   -1    0    0    0    0  0.00000000000E+00  0.00000000000E+00  0.25738216466E+02  0.25738216466E+02  0.00000000000E+00 0. -1.
         22   -1    0    0    0    0 -0.00000000000E+00 -0.00000000000E+00 -0.38392242013E+04  0.38392242013E+04  0.00000000000E+00 0.  1.
        -24    2    1    2    0    0  0.29733253017E+02 -0.48759343408E+02 -0.29914728211E+04  0.29930836492E+04  0.79865837442E+02 0.  0.
         25    2    1    2    0    0  0.40584008716E+02  0.32942212674E+02 -0.68072626230E+03  0.69409508688E+03  0.12508994491E+03 0.  0.
         24    2    1    2    0    0 -0.70317261733E+02  0.15817130734E+02 -0.14128690140E+03  0.17778368161E+03  0.80314071117E+02 0.  0.
        -11    1    5    5    0    0  0.16516835415E+02 -0.72669619881E+01 -0.22454340662E+02  0.28806457665E+02  0.00000000000E+00 0.  1.
         12    1    5    5    0    0 -0.86834097148E+02  0.23084092722E+02 -0.11883256073E+03  0.14897722395E+03  0.00000000000E+00 0. -1.
         11    1    3    3    0    0 -0.72367227403E+01  0.14652331176E+02 -0.20720074114E+03  0.20784419187E+03  0.00000000000E+00 0. -1.
        -12    1    3    3    0    0  0.36969975757E+02 -0.63411674584E+02 -0.27842720800E+04  0.27852394574E+04  0.00000000000E+00 0.  1.
          5    1    4    4  501    0  0.54646661802E+02  0.48838087340E+02 -0.66022058853E+03  0.66428917975E+03  0.41800000000E+01 0. -1.
         -5    1    4    4    0  501 -0.14062653086E+02 -0.15895874666E+02 -0.20505673771E+02  0.29805907132E+02  0.41800000000E+01 0. -1.
</event>
<event>
11    1  0.8479398E-009  0.1509853E+03  0.7561462E-02  0.1095876E+00
         22   -1    0    0    0    0  0.00000000000E+00  0.00000000000E+00  0.92147128909E+03  0.92147128909E+03  0.00000000000E+00 0. -1.
         22   -1    0    0    0    0 -0.00000000000E+00 -0.00000000000E+00 -0.12639350928E+04  0.12639350928E+04  0.00000000000E+00 0. -1.
         24    2    1    2    0    0 -0.60893301228E+02  0.63209591787E+02 -0.11584433917E+04  0.11645164364E+04  0.80024947831E+02 0.  0.
         25    2    1    2    0    0  0.13645881507E+02 -0.39966935088E+02 -0.56124757223E+02  0.14345767880E+03  0.12508617530E+03 0.  0.
        -24    2    1    2    0    0  0.47247419721E+02 -0.23242656699E+02  0.87210434519E+03  0.87743226670E+03  0.80924989875E+02 0.  0.
        -13    1    3    3    0    0  0.15467548000E+02  0.15967340489E+02 -0.10932178719E+03  0.11155919576E+03  0.00000000000E+00 0.  1.
         14    1    3    3    0    0 -0.76360849228E+02  0.47242251299E+02 -0.10491216045E+04  0.10529572406E+04  0.00000000000E+00 0. -1.
         11    1    5    5    0    0  0.29734032126E+02 -0.51079367638E+02  0.42068824792E+03  0.42481974578E+03  0.00000000000E+00 0. -1.
        -12    1    5    5    0    0  0.17513387595E+02  0.27836710939E+02  0.45141609727E+03  0.45261252092E+03  0.00000000000E+00 0.  1.
          5    1    4    4  501    0  0.62393155444E+02 -0.39233985504E+02 -0.70520186989E+01  0.74158039568E+02  0.41800000000E+01 0. -1.
         -5    1    4    4    0  501 -0.48747273938E+02 -0.73294958451E+00 -0.49072738524E+02  0.69299639232E+02  0.41800000000E+01 0. -1.
</event>
<event>
11    1  0.8479398E-009  0.1866026E+03  0.7561462E-02  0.1064424E+00
         22   -1    0    0    0    0  0.00000000000E+00  0.00000000000E+00  0.22796103387E+03  0.22796103387E+03  0.00000000000E+00 0. -1.
         22   -1    0    0    0    0 -0.00000000000E+00 -0.00000000000E+00 -0.12672473758E+04  0.12672473758E+04  0.00000000000E+00 0.  1.
        -24    2    1    2    0    0 -0.55802717546E+02 -0.11846851472E+03 -0.90832947820E+03  0.92127552811E+03  0.80854347136E+02 0.  0.
         25    2    1    2    0    0  0.12782130196E+03  0.14039469483E+03 -0.29793990064E+03  0.37478419317E+03  0.12508417761E+03 0.  0.
         24    2    1    2    0    0 -0.72018584410E+02 -0.21926180103E+02  0.16698303694E+03  0.19914868835E+03  0.78162852887E+02 0.  0.
        -13    1    5    5    0    0 -0.48787337896E+02 -0.51421711913E+02  0.11303205914E+03  0.13341905107E+03  0.00000000000E+00 0.  1.
         14    1    5    5    0    0 -0.23231246514E+02  0.29495531810E+02  0.53950977799E+02  0.65729637279E+02  0.00000000000E+00 0. -1.
         11    1    3    3    0    0  0.15536283439E+01 -0.83830683815E+02 -0.41211361443E+03  0.42055633215E+03  0.00000000000E+00 0. -1.
        -12    1    3    3    0    0 -0.57356345889E+02 -0.34637830908E+02 -0.49621586377E+03  0.50071919596E+03  0.00000000000E+00 0.  1.
          5    1    4    4  501    0  0.11963792660E+03  0.40219459515E+02 -0.17789577149E+03  0.21816327904E+03  0.41800000000E+01 0. -1.
         -5    1    4    4    0  501  0.81833753537E+01  0.10017523531E+03 -0.12004412915E+03  0.15662091414E+03  0.41800000000E+01 0. -1.
</event>
<event>
11    1  0.8479398E-009  0.1948092E+03  0.7561462E-02  0.1058256E+00
         22   -1    0    0    0    0  0.00000000000E+00  0.00000000000E+00  0.49643759324E+03  0.49643759324E+03  0.00000000000E+00 0. -1.
         22   -1    0    0    0    0 -0.00000000000E+00 -0.00000000000E+00 -0.21650866666E+04  0.21650866666E+04  0.00000000000E+00 0. -1.
        -24    2    1    2    0    0  0.11825213639E+03 -0.82211975419E+02 -0.17040078230E+04  0.17118277398E+04  0.77260424570E+02 0.  0.
         25    2    1    2    0    0 -0.19914010696E+03  0.48165201668E+02 -0.41735814781E+03  0.48146702542E+03  0.12508398846E+03 0.  0.
         24    2    1    2    0    0  0.80887970569E+02  0.34046773751E+02  0.45271689745E+03  0.46822949463E+03  0.81143230230E+02 0.  0.
        -13    1    5    5    0    0 -0.26847010409E+01 -0.18286225734E+01 -0.24479185433E+01  0.40674052404E+01  0.00000000000E+00 0.  1.
         14    1    5    5    0    0  0.83572671610E+02  0.35875396325E+02  0.45516481600E+03  0.46416208939E+03  0.00000000000E+00 0. -1.
         11    1    3    3    0    0  0.27946036362E+02 -0.42530429494E+02 -0.95468281096E+03  0.95603822514E+03  0.00000000000E+00 0. -1.
        -12    1    3    3    0    0  0.90306100031E+02 -0.39681545925E+02 -0.74932501203E+03  0.75578951465E+03  0.00000000000E+00 0.  1.
          5    1    4    4  501    0 -0.68944429569E+02  0.61992547286E+02 -0.91794108019E+02  0.13053750785E+03  0.41800000000E+01 0. -1.
         -5    1    4    4    0  501 -0.13019567739E+03 -0.13827345619E+02 -0.32556403980E+03  0.35092951758E+03  0.41800000000E+01 0. -1.
</event>
<event>
11    1  0.8479398E-009  0.1278387E+03  0.7561462E-02  0.1121953E+00
         22   -1    0    0    0    0  0.00000000000E+00  0.00000000000E+00  0.13544346699E+04  0.13544346699E+04  0.00000000000E+00 0. -1.
         22   -1    0    0    0    0 -0.00000000000E+00 -0.00000000000E+00 -0.31216866056E+03  0.31216866056E+03  0.00000000000E+00 0.  1.
         24    2    1    2    0    0 -0.25426656442E+02 -0.60103097507E+01 -0.28498956921E+03  0.29757997498E+03  0.81560703000E+02 0.  0.
         25    2    1    2    0    0  0.37742219182E+02 -0.84247266981E+01  0.20140514949E+03  0.24022230757E+03  0.12508905502E+03 0.  0.
        -24    2    1    2    0    0 -0.12315562740E+02  0.14435036449E+02  0.11258504291E+04  0.11288010479E+04  0.79325744548E+02 0.  0.
        -11    1    3    3    0    0  0.28292788121E+02 -0.74865974787E+00 -0.14084987722E+03  0.14366534121E+03  0.00000000000E+00 0.  1.
         12    1    3    3    0    0 -0.53719444563E+02 -0.52616500028E+01 -0.14413969198E+03  0.15391463378E+03  0.00000000000E+00 0. -1.
         11    1    5    5    0    0 -0.14897374830E+02 -0.28101890182E+02  0.72378400463E+03  0.72448252799E+03  0.00000000000E+00 0. -1.
        -12    1    5    5    0    0  0.25818120901E+01  0.42536926631E+02  0.40206642448E+03  0.40431851995E+03  0.00000000000E+00 0.  1.
          5    1    4    4  501    0  0.37077822774E+02 -0.33584171116E+02  0.20791685926E+03  0.21389145438E+03  0.41800000000E+01 0.  1.
         -5    1    4    4    0  501  0.66439640812E+00  0.25159444418E+02 -0.65117097695E+01  0.26330853198E+02  0.41800000000E+01 0.  1.
</event>
<event>
11    1  0.8479398E-009  0.1374579E+03  0.7561462E-02  0.1110431E+00
         22   -1    0    0    0    0  0.00000000000E+00  0.00000000000E+00  0.23312858781E+03  0.23312858781E+03  0.00000000000E+00 0. -1.
         22   -1    0    0    0    0 -0.00000000000E+00 -0.00000000000E+00 -0.52518056815E+03  0.52518056815E+03  0.00000000000E+00 0. -1.
        -24    2    1    2    0    0  0.28381370009E+02 -0.47877507271E+02 -0.43984010355E+03  0.45044342965E+03  0.79637985655E+02 0.  0.
         25    2    1    2    0    0 -0.39123173965E+02  0.65683704835E+02  0.12078524138E+02  0.14711060234E+03  0.12510262489E+03 0.  0.
         24    2    1    2    0    0  0.10741803956E+02 -0.17806197563E+02  0.13570959907E+03  0.16075512396E+03  0.83622171566E+02 0.  0.
        -11    1    5    5    0    0 -0.18399288697E+02  0.16366935867E+02  0.10109943164E+03  0.10405530016E+03  0.00000000000E+00 0.  1.
         12    1    5    5    0    0  0.29141092654E+02 -0.34173133430E+02  0.34610167427E+02  0.56699823799E+02  0.00000000000E+00 0. -1.
         13    1    3    3    0    0  0.11358693691E+02 -0.29215710510E+02 -0.41063768042E+03  0.41183234725E+03  0.00000000000E+00 0. -1.
        -14    1    3    3    0    0  0.17022676318E+02 -0.18661796761E+02 -0.29202423132E+02  0.38611082401E+02  0.00000000000E+00 0.  1.
          5    1    4    4  501    0  0.39787932844E+02  0.14651560560E+02  0.28992710971E+02  0.51534430397E+02  0.41800000000E+01 0. -1.
         -5    1    4    4    0  501 -0.78911106809E+02  0.51032144275E+02 -0.16914186833E+02  0.95576171943E+02  0.41800000000E+01 0. -1.
</event>
<event>
11    1  0.8479398E-009  0.1456721E+03  0.7561462E-02  0.1101385E+00
         22   -1    0    0    0    0  0.00000000000E+00  0.00000000000E+00  0.13707393719E+03  0.13707393719E+03  0.00000000000E+00 0.  1.
         22   -1    0    0    0    0 -0.00000000000E+00 -0.00000000000E+00 -0.54875484635E+03  0.54875484635E+03  0.00000000000E+00 0.  1.
         24    2    1    2    0    0  0.52380536898E+02  0.31396928713E+02 -0.31435978495E+03  0.33010968262E+03  0.80130146542E+02 0.  0.
         25    2    1    2    0    0 -0.11451225980E+03 -0.55273329047E+02 -0.15553773782E+03  0.23665869191E+03  0.12508856872E+03 0.  0.
        -24    2    1    2    0    0  0.62131722899E+02  0.23876400333E+02  0.58216613613E+02  0.11906040901E+03  0.79723104620E+02 0.  0.
        -13    1    3    3    0    0  0.64303131310E+02  0.73668671850E+01 -0.14706059420E+03  0.16067352550E+03  0.00000000000E+00 0.  1.
         14    1    3    3    0    0 -0.11922594412E+02  0.24030061528E+02 -0.16729919075E+03  0.16943615712E+03  0.00000000000E+00 0. -1.
         11    1    5    5    0    0  0.25738935404E+02  0.19329376183E+02 -0.16245580917E+02  0.36056018619E+02  0.00000000000E+00 0. -1.
        -12    1    5    5    0    0  0.36392787495E+02  0.45470241507E+01  0.74462194530E+02  0.83004390393E+02  0.00000000000E+00 0.  1.
          5    1    4    4  501    0 -0.19621404642E+02 -0.11953141383E+02  0.21102909796E+02  0.31475106210E+02  0.41800000000E+01 0.  1.
         -5    1    4    4    0  501 -0.94890855156E+02 -0.43320187664E+02 -0.17664064762E+03  0.20518358570E+03  0.41800000000E+01 0.  1.
</event>
<event>
11    1  0.8479398E-009  0.1717258E+03  0.7561462E-02  0.1076539E+00
         22   -1    0    0    0    0  0.00000000000E+00  0.00000000000E+00  0.36882246233E+03  0.36882246233E+03  0.00000000000E+00 0.  1.
         22   -1    0    0    0    0 -0.00000000000E+00 -0.00000000000E+00 -0.40377041578E+03  0.40377041578E+03  0.00000000000E+00 0. -1.
         24    2    1    2    0    0  0.17932390146E+02 -0.11801301248E+03 -0.33243683204E+03  0.36231887635E+03  0.80697454303E+02 0.  0.
         25    2    1    2    0    0 -0.39440147692E+02  0.96680102277E+02  0.90328449723E+02  0.18630584579E+03  0.12509225363E+03 0.  0.
        -24    2    1    2    0    0  0.21507757546E+02  0.21332910200E+02  0.20716042887E+03  0.22396815597E+03  0.79552592082E+02 0.  0.
        -13    1    3    3    0    0  0.40638454910E+01 -0.58827668313E+01  0.34497526436E+01  0.79386761534E+01  0.00000000000E+00 0.  1.
         14    1    3    3    0    0  0.13868544655E+02 -0.11213024565E+03 -0.33588658469E+03  0.35438020020E+03  0.00000000000E+00 0. -1.
         11    1    5    5    0    0  0.31541657256E+02  0.38116555859E+02  0.71754969605E+02  0.87158038276E+02  0.00000000000E+00 0. -1.
        -12    1    5    5    0    0 -0.10033899709E+02 -0.16783645659E+02  0.13540545926E+03  0.13681011769E+03  0.00000000000E+00 0.  1.
          5    1    4    4  501    0 -0.55966209624E+02  0.11028966007E+03  0.37742635887E+02  0.12937544088E+03  0.41800000000E+01 0.  1.
         -5    1    4    4    0  501  0.16526061931E+02 -0.13609557795E+02  0.52585813836E+02  0.56930404909E+02  0.41800000000E+01 0.  1.
</event>
<event>
11    1  0.8479398E-009  0.1419160E+03  0.7561462E-02  0.1105438E+00
         22   -1    0    0    0    0  0.00000000000E+00  0.00000000000E+00  0.18134244831E+03  0.18134244831E+03  0.00000000000E+00 0.  1.
         22   -1    0    0    0    0 -0.00000000000E+00 -0.00000000000E+00 -0.10318033667E+04  0.10318033667E+04  0.00000000000E+00 0. -1.
        -24    2    1    2    0    0 -0.13558814359E+01  0.68934358578E+02 -0.95508546216E+03  0.96278399372E+03  0.10005495654E+03 0.  0.
         25    2    1    2    0    0  0.21199355847E+01 -0.28027518778E+02  0.25491170366E+02  0.13071841804E+03  0.12508984416E+03 0.  0.
         24    2    1    2    0    0 -0.76405414885E+00 -0.40906839799E+02  0.79133373450E+02  0.11964340320E+03  0.79865510799E+02 0.  0.
        -11    1    5    5    0    0  0.57274379024E+01  0.17595533666E+02  0.51295575715E+02  0.54531114402E+02  0.00000000000E+00 0.  1.
         12    1    5    5    0    0 -0.64914920513E+01 -0.58502373465E+02  0.27837797734E+02  0.65112288800E+02  0.00000000000E+00 0. -1.
         11    1    3    3    0    0 -0.29222757779E+02  0.63027738848E+02 -0.87553713967E+03  0.87828910296E+03  0.00000000000E+00 0. -1.
        -12    1    3    3    0    0  0.27866876343E+02  0.59066197295E+01 -0.79548322490E+02  0.84494890761E+02  0.00000000000E+00 0.  1.
          5    1    4    4  501    0  0.54027083514E+02  0.17336541805E+02  0.23696872975E+02  0.61631936718E+02  0.41800000000E+01 0.  1.
         -5    1    4    4    0  501 -0.51907147929E+02 -0.45364060583E+02  0.17942973905E+01  0.69086481325E+02  0.41800000000E+01 0.  1.
</event>
<event>
11    1  0.8479398E-009  0.1315755E+03  0.7561462E-02  0.1117348E+00
         22   -1    0    0    0    0  0.00000000000E+00  0.00000000000E+00  0.68726370001E+03  0.68726370001E+03  0.00000000000E+00 0. -1.
         22   -1    0    0    0    0 -0.00000000000E+00 -0.00000000000E+00 -0.71225362346E+02  0.71225362346E+02  0.00000000000E+00 0.  1.
         24    2    1    2    0    0  0.19620674901E+02  0.35034158243E+02 -0.11695701569E+02  0.92116167225E+02  0.82074574027E+02 0.  0.
         25    2    1    2    0    0 -0.12348667887E+02 -0.45014263661E+02  0.27243095080E+03  0.30338776961E+03  0.12508693881E+03 0.  0.
        -24    2    1    2    0    0 -0.72720070141E+01  0.99801054184E+01  0.35530308843E+03  0.36298512553E+03  0.73249109974E+02 0.  0.
        -13    1    3    3    0    0 -0.12104267174E+02 -0.16712968540E+02 -0.22427634694E+02  0.30476801001E+02  0.00000000000E+00 0.  1.
         14    1    3    3    0    0  0.31724942075E+02  0.51747126783E+02  0.10731933125E+02  0.61639366225E+02  0.00000000000E+00 0. -1.
         13    1    5    5    0    0  0.72001655633E-01  0.38558762139E+02  0.12534707488E+03  0.13114370936E+03  0.00000000000E+00 0. -1.
        -14    1    5    5    0    0 -0.73440086698E+01 -0.28578656720E+02  0.22995601355E+03  0.23184141617E+03  0.00000000000E+00 0.  1.
          5    1    4    4  501    0  0.11264531449E+02 -0.77739359565E+02  0.23634072459E+03  0.24908775199E+03  0.41800000000E+01 0.  1.
         -5    1    4    4    0  501 -0.23613199336E+02  0.32725095903E+02  0.36090226212E+02  0.54300017614E+02  0.41800000000E+01 0.  1.
</event>
<event>
11    1  0.8479398E-009  0.1545696E+03  0.7561462E-02  0.1092299E+00
         22   -1    0    0    0    0  0.00000000000E+00  0.00000000000E+00  0.23974492840E+04  0.23974492840E+04  0.00000000000E+00 0.  1.
         22   -1    0    0    0    0 -0.00000000000E+00 -0.00000000000E+00 -0.67247222205E+03  0.67247222205E+03  0.00000000000E+00 0. -1.
         24    2    1    2    0    0  0.68152458502E+02 -0.59407666887E+02 -0.58624002089E+03  0.59840187513E+03  0.78951970120E+02 0.  0.
         25    2    1    2    0    0 -0.98673933689E+02  0.32032404646E+02  0.40341961622E+01  0.16256409430E+03  0.12509272513E+03 0.  0.
        -24    2    1    2    0    0  0.30521475187E+02  0.27375262241E+02  0.23071828867E+04  0.23089555366E+04  0.80633938625E+02 0.  0.
        -13    1    3    3    0    0 -0.98545665347E+01 -0.36710641074E+02 -0.15648807464E+03  0.16103819781E+03  0.00000000000E+00 0.  1.
         14    1    3    3    0    0  0.78007025037E+02 -0.22697025813E+02 -0.42975194625E+03  0.43736367732E+03  0.00000000000E+00 0. -1.
         11    1    5    5    0    0 -0.24877463981E+02 -0.45430669415E+01  0.49564573474E+03  0.49629046136E+03  0.00000000000E+00 0. -1.
        -12    1    5    5    0    0  0.55398939168E+02  0.31918329182E+02  0.18115371520E+04  0.18126650753E+04  0.00000000000E+00 0.  1.
          5    1    4    4  501    0 -0.63729612544E+02 -0.40123907608E+02  0.25228674983E+02  0.79532068489E+02  0.41800000000E+01 0.  1.
         -5    1    4    4    0  501 -0.34944321145E+02  0.72156312255E+02 -0.21194478821E+02  0.83032025815E+02  0.41800000000E+01 0.  1.
</event>
<event>
11    1  0.8479398E-009  0.1842868E+03  0.7561462E-02  0.1066227E+00
         22   -1    0    0    0    0  0.00000000000E+00  0.00000000000E+00  0.99877933393E+03  0.99877933393E+03  0.00000000000E+00 0. -1.
         22   -1    0    0    0    0 -0.00000000000E+00 -0.00000000000E+00 -0.43518693935E+03  0.43518693935E+03  0.00000000000E+00 0. -1.
         24    2    1    2    0    0  0.23000566948E+02 -0.14328860397E+03 -0.36100151992E+03  0.39775995209E+03  0.82645217601E+02 0.  0.
         25    2    1    2    0    0  0.66564063510E+02  0.75641077740E+02  0.78086375634E+02  0.17859919409E+03  0.12509133814E+03 0.  0.
        -24    2    1    2    0    0 -0.89564630457E+02  0.67647526233E+02  0.84650753887E+03  0.85760712709E+03  0.79479307062E+02 0.  0.
        -13    1    3    3    0    0  0.28751186457E+01 -0.11107837647E+03 -0.17051607081E+03  0.20352494302E+03  0.00000000000E+00 0.  1.
         14    1    3    3    0    0  0.20125448302E+02 -0.32210227501E+02 -0.19048544911E+03  0.19423500907E+03  0.00000000000E+00 0. -1.
         11    1    5    5    0    0  0.70918291832E+01  0.30811730489E+02  0.13711929097E+03  0.14071729365E+03  0.00000000000E+00 0. -1.
        -12    1    5    5    0    0 -0.96656459640E+02  0.36835795744E+02  0.70938824789E+03  0.71688983344E+03  0.00000000000E+00 0.  1.
          5    1    4    4  501    0  0.10000290207E+03  0.36743801827E+02  0.67088726105E+02  0.12597244526E+03  0.41800000000E+01 0. -1.
         -5    1    4    4    0  501 -0.33438838558E+02  0.38897275913E+02  0.10997649529E+02  0.52626748833E+02  0.41800000000E+01 0. -1.
</event>
<event>
11    1  0.8479398E-009  0.1487753E+03  0.7561462E-02  0.1098137E+00
         22   -1    0    0    0    0  0.00000000000E+00  0.00000000000E+00  0.87716712804E+02  0.87716712804E+02  0.00000000000E+00 0.  1.
         22   -1    0    0    0    0 -0.00000000000E+00 -0.00000000000E+00 -0.10561412392E+04  0.10561412392E+04  0.00000000000E+00 0. -1.
         24    2    1    2    0    0  0.38165496372E+02  0.18841964879E+02 -0.83172395743E+03  0.83714189050E+03  0.85030457588E+02 0.  0.
         25    2    1    2    0    0 -0.24813037555E+02  0.67741068978E+02 -0.11586092309E+03  0.18513750994E+03  0.12509038664E+03 0.  0.
        -24    2    1    2    0    0 -0.13352458816E+02 -0.86583033857E+02 -0.20839645857E+02  0.12157855154E+03  0.81683189497E+02 0.  0.
        -11    1    3    3    0    0  0.81988180510E+00 -0.31967574944E+02 -0.29313817232E+03  0.29487723908E+03  0.00000000000E+00 0.  1.
         12    1    3    3    0    0  0.37345614566E+02  0.50809539823E+02 -0.53858578511E+03  0.54226465143E+03  0.00000000000E+00 0. -1.
         13    1    5    5    0    0 -0.14292271770E+02  0.74165504341E+01  0.13988723050E+02  0.21329759147E+02  0.00000000000E+00 0. -1.
        -14    1    5    5    0    0  0.93981295342E+00 -0.93999584291E+02 -0.34828368907E+02  0.10024879239E+03  0.00000000000E+00 0.  1.
          5    1    4    4  501    0  0.33131894511E+01  0.86906370259E+02 -0.29031705903E+02  0.91782388090E+02  0.41800000000E+01 0. -1.
         -5    1    4    4    0  501 -0.28126227006E+02 -0.19165301281E+02 -0.86829217185E+02  0.93355121851E+02  0.41800000000E+01 0. -1.
</event>
<event>
11    1  0.8479398E-009  0.1462156E+03  0.7561462E-02  0.1100810E+00
         22   -1    0    0    0    0  0.00000000000E+00  0.00000000000E+00  0.94739428968E+03  0.94739428968E+03  0.00000000000E+00 0. -1.
         22   -1    0    0    0    0 -0.00000000000E+00 -0.00000000000E+00 -0.13723260122E+03  0.13723260122E+03  0.00000000000E+00 0.  1.
         24    2    1    2    0    0 -0.54422385909E+02  0.58495735844E+02 -0.83692132048E+02  0.14168134378E+03  0.81766026011E+02 0.  0.
         25    2    1    2    0    0  0.30714014094E+02 -0.33762380921E+02  0.18566685915E+03  0.22848526590E+03  0.12510030024E+03 0.  0.
        -24    2    1    2    0    0  0.23708371815E+02 -0.24733354922E+02  0.70818696135E+03  0.71446028122E+03  0.88039170115E+02 0.  0.
        -11    1    3    3    0    0 -0.60869564246E+02  0.31724804358E+02 -0.18770057610E+02  0.71160959281E+02  0.00000000000E+00 0.  1.
         12    1    3    3    0    0  0.64471783371E+01  0.26770931485E+02 -0.64922074438E+02  0.70520384502E+02  0.00000000000E+00 0. -1.
         13    1    5    5    0    0 -0.49679738958E+00 -0.17963622097E+02  0.65880468991E+03  0.65904973862E+03  0.00000000000E+00 0. -1.
        -14    1    5    5    0    0  0.24205169204E+02 -0.67697328257E+01  0.49382271441E+02  0.55410542602E+02  0.00000000000E+00 0.  1.
          5    1    4    4  501    0  0.41352754120E+02 -0.29410308592E+02  0.20186542421E+03  0.20818774800E+03  0.41800000000E+01 0.  1.
         -5    1    4    4    0  501 -0.10638740025E+02 -0.43520723291E+01 -0.16198565061E+02  0.20297517901E+02  0.41800000000E+01 0.  1.
</event>
<event>
11    1  0.8479398E-009  0.3116716E+03  0.7561462E-02  0.9953691E-01
         22   -1    0    0    0    0  0.00000000000E+00  0.00000000000E+00  0.27209630068E+03  0.27209630068E+03  0.00000000000E+00 0.  1.
         22   -1    0    0    0    0 -0.00000000000E+00 -0.00000000000E+00 -0.20166163224E+04  0.20166163224E+04  0.00000000000E+00 0. -1.
        -24    2    1    2    0    0  0.10687129663E+03 -0.28109591899E+03 -0.18093795605E+04  0.18360426782E+04  0.82230970360E+02 0.  0.
         25    2    1    2    0    0 -0.96406854646E+02  0.17013062270E+03 -0.87196362642E+02  0.24796367003E+03  0.12507623913E+03 0.  0.
         24    2    1    2    0    0 -0.10464441984E+02  0.11096529629E+03  0.15205590140E+03  0.20470627488E+03  0.79755001731E+02 0.  0.
        -11    1    5    5    0    0 -0.13420782178E+02  0.33641669295E+02  0.11171916832E+03  0.11744382434E+03  0.00000000000E+00 0.  1.
         12    1    5    5    0    0  0.29563401937E+01  0.77323626993E+02  0.40336733080E+02  0.87262450540E+02  0.00000000000E+00 0. -1.
         11    1    3    3    0    0  0.27203724424E+02 -0.15501287710E+03 -0.10957537715E+04  0.11069983570E+04  0.00000000000E+00 0. -1.
        -12    1    3    3    0    0  0.79667572206E+02 -0.12608304189E+03 -0.71362578902E+03  0.72904432120E+03  0.00000000000E+00 0.  1.
          5    1    4    4  501    0  0.65052546032E+00  0.91047675762E+02 -0.81977710084E+02  0.12258841624E+03  0.41800000000E+01 0. -1.
         -5    1    4    4    0  501 -0.97057380106E+02  0.79082946937E+02 -0.52186525580E+01  0.12537525379E+03  0.41800000000E+01 0. -1.
</event>
<event>
11    1  0.8479398E-009  0.1390313E+03  0.7561462E-02  0.1108645E+00
         22   -1    0    0    0    0  0.00000000000E+00  0.00000000000E+00  0.20280802367E+04  0.20280802367E+04  0.00000000000E+00 0. -1.
         22   -1    0    0    0    0 -0.00000000000E+00 -0.00000000000E+00 -0.71988955927E+02  0.71988955927E+02  0.00000000000E+00 0. -1.
        -24    2    1    2    0    0 -0.32071163751E+02 -0.61193155955E+02  0.43419462548E+01  0.10611050821E+03  0.80420305745E+02 0.  0.
         25    2    1    2    0    0 -0.32534824993E+00  0.32218116704E+02  0.18984962023E+03  0.22962512932E+03  0.12508680514E+03 0.  0.
         24    2    1    2    0    0  0.32396512001E+02  0.28975039250E+02  0.17618997143E+04  0.17643335551E+04  0.81812001091E+02 0.  0.
        -11    1    5    5    0    0 -0.81417539489E+01  0.70148761533E+00  0.18395461631E+02  0.20128915789E+02  0.00000000000E+00 0.  1.
         12    1    5    5    0    0  0.40538265950E+02  0.28273551635E+02  0.17435042526E+04  0.17442046393E+04  0.00000000000E+00 0. -1.
         13    1    3    3    0    0 -0.29000129984E+02 -0.32971948161E+02 -0.35999963887E+02  0.56781637036E+02  0.00000000000E+00 0. -1.
        -14    1    3    3    0    0 -0.30710337669E+01 -0.28221207794E+02  0.40341910142E+02  0.49328871178E+02  0.00000000000E+00 0.  1.
          5    1    4    4  501    0 -0.35649177918E+02  0.15245919443E+02  0.18597899718E+03  0.19002358206E+03  0.41800000000E+01 0.  1.
         -5    1    4    4    0  501  0.35323829668E+02  0.16972197261E+02  0.38706230409E+01  0.39601547256E+02  0.41800000000E+01 0.  1.
</event>
<event>
11    1  0.8479398E-009  0.2285770E+03  0.7561462E-02  0.1035974E+00
         22   -1    0    0    0    0  0.00000000000E+00  0.00000000000E+00  0.14353225991E+04  0.14353225991E+04  0.00000000000E+00 0.  1.
         22   -1    0    0    0    0 -0.00000000000E+00 -0.00000000000E+00 -0.51990499501E+03  0.51990499501E+03  0.00000000000E+00 0. -1.
         24    2    1    2    0    0  0.15827547398E+03  0.11439241125E+03 -0.45375221642E+03  0.49900956653E+03  0.70588413831E+02 0.  0.
         25    2    1    2    0    0 -0.91778518007E+02 -0.12606574064E+03  0.20117538035E+03  0.28360913462E+03  0.12508693077E+03 0.  0.
        -24    2    1    2    0    0 -0.66496955971E+02  0.11673329387E+02  0.11679944401E+04  0.11726088929E+04  0.79009441354E+02 0.  0.
        -11    1    3    3    0    0  0.42307351388E+02  0.20329621318E+02 -0.50237825582E+02  0.68753506118E+02  0.00000000000E+00 0.  1.
         12    1    3    3    0    0  0.11596812259E+03  0.94062789936E+02 -0.40351439084E+03  0.43025606041E+03  0.00000000000E+00 0. -1.
         13    1    5    5    0    0  0.12541799488E+01  0.17277579363E+02  0.57928255497E+02  0.60462968013E+02  0.00000000000E+00 0. -1.
        -14    1    5    5    0    0 -0.67751135920E+02 -0.56042499764E+01  0.11100661846E+04  0.11121459249E+04  0.00000000000E+00 0.  1.
          5    1    4    4  501    0 -0.10915373883E+03 -0.47128570452E+02  0.12068909016E+03  0.16946672162E+03  0.41800000000E+01 0.  1.
         -5    1    4    4    0  501  0.17375220825E+02 -0.78937170188E+02  0.80486290188E+02  0.11414241299E+03  0.41800000000E+01 0.  1.
</event>
<event>
11    1  0.8479398E-009  0.1625116E+03  0.7561462E-02  0.1084739E+00
         22   -1    0    0    0    0  0.00000000000E+00  0.00000000000E+00  0.92165416910E+03  0.92165416910E+03  0.00000000000E+00 0. -1.
         22   -1    0    0    0    0 -0.00000000000E+00 -0.00000000000E+00 -0.47059998376E+03  0.47059998376E+03  0.00000000000E+00 0. -1.
         24    2    1    2    0    0 -0.10287228580E+03  0.15471973829E+02 -0.41200043559E+03  0.43265901767E+03  0.81408706447E+02 0.  0.
         25    2    1    2    0    0  0.10035713934E+03 -0.42498467421E+01  0.93176427666E+02  0.18552204917E+03  0.12508783890E+03 0.  0.
        -24    2    1    2    0    0  0.25151464581E+01 -0.11222127087E+02  0.76987819327E+03  0.77407308602E+03  0.79652042890E+02 0.  0.
        -13    1    3    3    0    0 -0.12956781765E+02 -0.29015038088E+02 -0.99795403306E+02  0.10473238826E+03  0.00000000000E+00 0.  1.
         14    1    3    3    0    0 -0.89915504036E+02  0.44487011917E+02 -0.31220503229E+03  0.32792662942E+03  0.00000000000E+00 0. -1.
         11    1    5    5    0    0  0.21747480015E+02  0.90181049688E+01  0.66866861461E+03  0.66908295097E+03  0.00000000000E+00 0. -1.
        -12    1    5    5    0    0 -0.19232333557E+02 -0.20240232056E+02  0.10120957865E+03  0.10499013505E+03  0.00000000000E+00 0.  1.
          5    1    4    4  501    0  0.98072454262E+02  0.22179672679E+02  0.13617993335E+02  0.10155326833E+03  0.41800000000E+01 0.  1.
         -5    1    4    4    0  501  0.22846850801E+01 -0.26429519421E+02  0.79558434330E+02  0.83968780841E+02  0.41800000000E+01 0.  1.
</event>
<event>
11    1  0.8479398E-009  0.1341965E+03  0.7561462E-02  0.1114218E+00
         22   -1    0    0    0    0  0.00000000000E+00  0.00000000000E+00  0.21190656292E+04  0.21190656292E+04  0.00000000000E+00 0. -1.
         22   -1    0    0    0    0 -0.00000000000E+00 -0.00000000000E+00 -0.23993894921E+03  0.23993894921E+03  0.00000000000E+00 0. -1.
        -24    2    1    2    0    0 -0.17207434314E+02 -0.12452208676E+01 -0.21501411708E+03  0.22995800119E+03  0.79699218296E+02 0.  0.
         25    2    1    2    0    0  0.49204724806E+02  0.36564513524E+02  0.28286527241E+03  0.31531426179E+03  0.12510896354E+03 0.  0.
         24    2    1    2    0    0 -0.31997290492E+02 -0.35319292657E+02  0.18112755247E+04  0.18137323154E+04  0.81453095575E+02 0.  0.
        -11    1    5    5    0    0 -0.17834616856E+02  0.25158555733E+02  0.75779281352E+03  0.75842005162E+03  0.00000000000E+00 0.  1.
         12    1    5    5    0    0 -0.14162673636E+02 -0.60477848390E+02  0.10534827112E+04  0.10553122638E+04  0.00000000000E+00 0. -1.
         13    1    3    3    0    0 -0.25958566379E+02 -0.35600476269E+02 -0.14394518874E+03  0.15053723274E+03  0.00000000000E+00 0. -1.
        -14    1    3    3    0    0  0.87511320646E+01  0.34355255401E+02 -0.71068928335E+02  0.79420768448E+02  0.00000000000E+00 0.  1.
          5    1    4    4  501    0  0.44525549580E+02  0.74376846594E+02  0.12058387587E+03  0.14856777374E+03  0.41800000000E+01 0.  1.
         -5    1    4    4    0  501  0.46791752262E+01 -0.37812333069E+02  0.16228139654E+03  0.16674648805E+03  0.41800000000E+01 0.  1.
</event>
<event>
11    1  0.8479398E-009  0.1922218E+03  0.7561462E-02  0.1060164E+00
         22   -1    0    0    0    0  0.00000000000E+00  0.00000000000E+00  0.15419748812E+03  0.15419748812E+03  0.00000000000E+00 0.  1.
         22   -1    0    0    0    0 -0.00000000000E+00 -0.00000000000E+00 -0.84789556157E+03  0.84789556157E+03  0.00000000000E+00 0. -1.
         24    2    1    2    0    0  0.81034142562E+02  0.24546912137E+02 -0.59289382111E+03  0.60406145961E+03  0.78727890381E+02 0.  0.
         25    2    1    2    0    0 -0.32030914438E+02 -0.16076008457E+03 -0.10560651501E+03  0.23166945745E+03  0.12509283445E+03 0.  0.
        -24    2    1    2    0    0 -0.49003228123E+02  0.13621317243E+03  0.48022626719E+01  0.16636213263E+03  0.81841021109E+02 0.  0.
        -11    1    3    3    0    0  0.51682327183E+02  0.91226215815E+01 -0.13309149981E+03  0.14306513373E+03  0.00000000000E+00 0.  1.
         12    1    3    3    0    0  0.29351815379E+02  0.15424290556E+02 -0.45980232130E+03  0.46099632588E+03  0.00000000000E+00 0. -1.
         11    1    5    5    0    0 -0.25789344257E+02  0.11406832872E+02 -0.23019892396E+02  0.36402219153E+02  0.00000000000E+00 0. -1.
        -12    1    5    5    0    0 -0.23213883866E+02  0.12480633956E+03  0.27822155067E+02  0.12995991347E+03  0.00000000000E+00 0.  1.
          5    1    4    4  501    0 -0.76046002544E+02 -0.69183552344E+02 -0.67580118620E+02  0.12310119110E+03  0.41800000000E+01 0. -1.
         -5    1    4    4    0  501  0.44015088105E+02 -0.91576532222E+02 -0.38026396394E+02  0.10856826635E+03  0.41800000000E+01 0. -1.
</event>
<event>
11    1  0.8479398E-009  0.1415156E+03  0.7561462E-02  0.1105878E+00
         22   -1    0    0    0    0  0.00000000000E+00  0.00000000000E+00  0.18383444236E+04  0.18383444236E+04  0.00000000000E+00 0.  1.
         22   -1    0    0    0    0 -0.00000000000E+00 -0.00000000000E+00 -0.11044352845E+03  0.11044352845E+03  0.00000000000E+00 0. -1.
        -24    2    1    2    0    0  0.17206533275E+02  0.13992171869E+02 -0.83551056753E+02  0.11813250516E+03  0.80514992579E+02 0.  0.
         25    2    1    2    0    0  0.52733403874E+02 -0.20049807931E+02  0.65546388437E+03  0.66967354080E+03  0.12508773262E+03 0.  0.
         24    2    1    2    0    0 -0.69939937150E+02  0.60576360626E+01  0.11559880676E+04  0.11609819061E+04  0.81500209963E+02 0.  0.
        -11    1    5    5    0    0 -0.46657131803E+02 -0.34549236937E+02  0.50833166492E+03  0.51163621772E+03  0.00000000000E+00 0.  1.
         12    1    5    5    0    0 -0.23282805347E+02  0.40606872999E+02  0.64765640263E+03  0.64934568839E+03  0.00000000000E+00 0. -1.
         11    1    3    3    0    0  0.38205996581E+02  0.34115886905E+02 -0.68055651952E+02  0.85177248586E+02  0.00000000000E+00 0. -1.
        -12    1    3    3    0    0 -0.20999463305E+02 -0.20123715036E+02 -0.15495404801E+02  0.32955256575E+02  0.00000000000E+00 0.  1.
          5    1    4    4  501    0 -0.37766392093E+02  0.10588009849E+02  0.24936176844E+03  0.25246221556E+03  0.41800000000E+01 0. -1.
         -5    1    4    4    0  501  0.90499795967E+02 -0.30637817780E+02  0.40610211593E+03  0.41721132525E+03  0.41800000000E+01 0. -1.
</event>
<event>
11    1  0.8479398E-009  0.1329212E+03  0.7561462E-02  0.1115731E+00
         22   -1    0    0    0    0  0.00000000000E+00  0.00000000000E+00  0.24190378819E+03  0.24190378819E+03  0.00000000000E+00 0.  1.
         22   -1    0    0    0    0 -0.00000000000E+00 -0.00000000000E+00 -0.48105192846E+03  0.48105192846E+03  0.00000000000E+00 0.  1.
         24    2    1    2    0    0  0.40595479344E+02  0.13791320655E+02 -0.37666822408E+03  0.38762448142E+03  0.80843021304E+02 0.  0.
         25    2    1    2    0    0 -0.62867240208E+02 -0.20450453337E+02 -0.34071386323E+02  0.14552874862E+03  0.12508895385E+03 0.  0.
        -24    2    1    2    0    0  0.22271760865E+02  0.66591326820E+01  0.17159147013E+03  0.18980248661E+03  0.77723715300E+02 0.  0.
        -11    1    3    3    0    0  0.38991781908E+01  0.27058753537E+02 -0.30325856529E+03  0.30448832023E+03  0.00000000000E+00 0.  1.
         12    1    3    3    0    0  0.36696301153E+02 -0.13267432882E+02 -0.73409658792E+02  0.83136161191E+02  0.00000000000E+00 0. -1.
         13    1    5    5    0    0  0.49706861183E+02 -0.13107378835E+01  0.83390914948E+02  0.97090343383E+02  0.00000000000E+00 0. -1.
        -14    1    5    5    0    0 -0.27435100318E+02  0.79698705655E+01  0.88200555185E+02  0.92712143225E+02  0.00000000000E+00 0.  1.
          5    1    4    4  501    0 -0.26589673941E+02 -0.13787286686E+02  0.47270813259E+02  0.56116862177E+02  0.41800000000E+01 0. -1.
         -5    1    4    4    0  501 -0.36277566267E+02 -0.66631666512E+01 -0.81342199582E+02  0.89411886440E+02  0.41800000000E+01 0. -1.
</event>
<event>
11    1  0.8479398E-009  0.1478467E+03  0.7561462E-02  0.1099100E+00
         22   -1    0    0    0    0  0.00000000000E+00  0.00000000000E+00  0.17079675051E+03  0.17079675051E+03  0.00000000000E+00 0. -1.
         22   -1    0    0    0    0 -0.00000000000E+00 -0.00000000000E+00 -0.19920220041E+04  0.19920220041E+04  0.00000000000E+00 0.  1.
         24    2    1    2    0    0  0.27159430577E+02  0.26508525963E+02 -0.16919542437E+04  0.16943693114E+04  0.82084493327E+02 0.  0.
         25    2    1    2    0    0 -0.63390551797E+02 -0.93535739445E+02 -0.25169799543E+03  0.30293054933E+03  0.12509092774E+03 0.  0.
        -24    2    1    2    0    0  0.36231121220E+02  0.67027213483E+02  0.12242698553E+03  0.16551889388E+03  0.81257590121E+02 0.  0.
        -11    1    3    3    0    0  0.55975885627E+02  0.22698837118E+02 -0.10203216950E+04  0.10221080658E+04  0.00000000000E+00 0.  1.
         12    1    3    3    0    0 -0.28816455050E+02  0.38096888440E+01 -0.67163254866E+03  0.67226124552E+03  0.00000000000E+00 0. -1.
         13    1    5    5    0    0  0.54035178400E+02  0.74539714954E+02  0.10161896162E+03  0.13712178154E+03  0.00000000000E+00 0. -1.
        -14    1    5    5    0    0 -0.17804057180E+02 -0.75125014710E+01  0.20808023907E+02  0.28397112341E+02  0.00000000000E+00 0.  1.
          5    1    4    4  501    0 -0.68827511750E+02  0.83215022260E+00 -0.71101007461E+02  0.99049202469E+02  0.41800000000E+01 0. -1.
         -5    1    4    4    0  501  0.54369599535E+01 -0.94367889668E+02 -0.18059698797E+03  0.20388134686E+03  0.41800000000E+01 0. -1.
</event>
<event>
11    1  0.8479398E-009  0.1284514E+03  0.7561462E-02  0.1121187E+00
         22   -1    0    0    0    0  0.00000000000E+00  0.00000000000E+00  0.12513937073E+04  0.12513937073E+04  0.00000000000E+00 0.  1.
         22   -1    0    0    0    0 -0.00000000000E+00 -0.00000000000E+00 -0.62312882771E+03  0.62312882771E+03  0.00000000000E+00 0. -1.
         24    2    1    2    0    0  0.25162800491E+02  0.13993586648E+02 -0.57730169874E+03  0.58319923603E+03  0.77557143651E+02 0.  0.
         25    2    1    2    0    0 -0.21881189019E+02 -0.34765334088E+02  0.63182830797E+02  0.14607706838E+03  0.12513602563E+03 0.  0.
        -24    2    1    2    0    0 -0.32816114713E+01  0.20771747440E+02  0.11423837475E+04  0.11452462306E+04  0.78141330916E+02 0.  0.
        -11    1    3    3    0    0 -0.13805317803E+02  0.21257873052E+02 -0.71745391461E+02  0.76091294918E+02  0.00000000000E+00 0.  1.
         12    1    3    3    0    0  0.38968118293E+02 -0.72642864045E+01 -0.50555630728E+03  0.50710794111E+03  0.00000000000E+00 0. -1.
         13    1    5    5    0    0 -0.12320396341E+01 -0.29051383436E+02  0.54968262093E+03  0.55045116455E+03  0.00000000000E+00 0. -1.
        -14    1    5    5    0    0 -0.20495718372E+01  0.49823130876E+02  0.59270112661E+03  0.59479506606E+03  0.00000000000E+00 0.  1.
          5    1    4    4  501    0 -0.15880813297E+00  0.19820953276E+02 -0.29785866324E+02  0.36021738457E+02  0.41800000000E+01 0. -1.
         -5    1    4    4    0  501 -0.21722380886E+02 -0.54586287364E+02  0.92968697121E+02  0.11005532992E+03  0.41800000000E+01 0. -1.
</event>
<event>
11    1  0.8779014E-009  0.1806080E+03  0.7561462E-02  0.1069152E+00
         22   -1    0    0    0    0  0.00000000000E+00  0.00000000000E+00  0.36343812450E+03  0.36343812450E+03  0.00000000000E+00 0. -1.
         22   -1    0    0    0    0 -0.00000000000E+00 -0.00000000000E+00 -0.45996926033E+03  0.45996926033E+03  0.00000000000E+00 0.  1.
         24    2    1    2    0    0  0.41556530876E+02 -0.23428914273E+01 -0.24424004714E+03  0.26046380058E+03  0.80347721734E+02 0.  0.
         25    2    1    2    0    0  0.60455235742E+00  0.12662708292E+03 -0.14667085993E+03  0.23063965215E+03  0.12509006506E+03 0.  0.
        -24    2    1    2    0    0 -0.42161083234E+02 -0.12428419149E+03  0.29437977124E+03  0.33230393210E+03  0.80884710423E+02 0.  0.
        -13    1    3    3    0    0 -0.28890546453E+01 -0.33815816391E+02 -0.67967247955E+02  0.75969749701E+02  0.00000000000E+00 0.  1.
         14    1    3    3    0    0  0.44445585521E+02  0.31472924964E+02 -0.17627279918E+03  0.18449405088E+03  0.00000000000E+00 0. -1.
         11    1    5    5    0    0 -0.56853311963E+02 -0.12297364730E+03  0.28270758948E+03  0.31349385666E+03  0.00000000000E+00 0. -1.
        -12    1    5    5    0    0  0.14692228729E+02 -0.13105441854E+01  0.11672181759E+02  0.18810075441E+02  0.00000000000E+00 0.  1.
          5    1    4    4  501    0  0.37963076883E+01 -0.24850593746E+02 -0.30026895886E+02  0.39383382767E+02  0.41800000000E+01 0.  1.
         -5    1    4    4    0  501 -0.31917553308E+01  0.15147767666E+03 -0.11664396404E+03  0.19125626938E+03  0.41800000000E+01 0.  1.
</event>
<event>
11    1  0.8479398E-009  0.1482100E+03  0.7561462E-02  0.1098722E+00
         22   -1    0    0    0    0  0.00000000000E+00  0.00000000000E+00  0.24406772902E+03  0.24406772902E+03  0.00000000000E+00 0. -1.
         22   -1    0    0    0    0 -0.00000000000E+00 -0.00000000000E+00 -0.15448524302E+04  0.15448524302E+04  0.00000000000E+00 0.  1.
         24    2    1    2    0    0  0.79365362734E+02 -0.18618688914E+02 -0.13757160573E+04  0.13804244860E+04  0.79571193497E+02 0.  0.
         25    2    1    2    0    0 -0.57154076738E+02 -0.59550868093E+01 -0.12769599457E+03  0.18773948015E+03  0.12505116484E+03 0.  0.
        -24    2    1    2    0    0 -0.22211285996E+02  0.24573775723E+02  0.20262735076E+03  0.22075619302E+03  0.81106361049E+02 0.  0.
        -11    1    3    3    0    0  0.69065445137E-01 -0.17860412863E+02 -0.67487828429E+03  0.67511458118E+03  0.00000000000E+00 0.  1.
         12    1    3    3    0    0  0.79296297289E+02 -0.75827605067E+00 -0.70083777305E+03  0.70530990485E+03  0.00000000000E+00 0. -1.
         11    1    5    5    0    0  0.13807790324E+02  0.39272825109E+02  0.14765232324E+03  0.15340866477E+03  0.00000000000E+00 0. -1.
        -12    1    5    5    0    0 -0.36019076321E+02 -0.14699049386E+02  0.54975027512E+02  0.67347528253E+02  0.00000000000E+00 0.  1.
          5    1    4    4  501    0 -0.66151471996E+02 -0.36498090134E+02 -0.24304140457E+02  0.79475099711E+02  0.41800000000E+01 0.  1.
         -5    1    4    4    0  501  0.89973952582E+01  0.30543003325E+02 -0.10339185412E+03  0.10826438044E+03  0.41800000000E+01 0.  1.
</event>
<event>
11    1  0.8479398E-009  0.1492204E+03  0.7561462E-02  0.1097678E+00
         22   -1    0    0    0    0  0.00000000000E+00  0.00000000000E+00  0.26261575696E+03  0.26261575696E+03  0.00000000000E+00 0.  1.
         22   -1    0    0    0    0 -0.00000000000E+00 -0.00000000000E+00 -0.10007662739E+04  0.10007662739E+04  0.00000000000E+00 0. -1.
        -24    2    1    2    0    0 -0.58934172416E+02 -0.64394412910E+02 -0.89544555575E+03  0.90334016107E+03  0.81122291542E+02 0.  0.
         25    2    1    2    0    0 -0.33411698357E+02  0.51296548230E+02 -0.23656316262E+02  0.14126229179E+03  0.12509091228E+03 0.  0.
         24    2    1    2    0    0  0.92345870773E+02  0.13097864680E+02  0.18095135509E+03  0.21877957799E+03  0.80136115018E+02 0.  0.
        -11    1    5    5    0    0  0.62504290288E+02  0.38364384859E+01  0.17642315324E+03  0.18720746129E+03  0.00000000000E+00 0.  1.
         12    1    5    5    0    0  0.29841580485E+02  0.92614261944E+01  0.45282018509E+01  0.31572116702E+02  0.00000000000E+00 0. -1.
         13    1    3    3    0    0 -0.22022290247E+02  0.16609564539E+02 -0.30175168703E+03  0.30300980104E+03  0.00000000000E+00 0. -1.
        -14    1    3    3    0    0 -0.36911882169E+02 -0.81003977449E+02 -0.59369386872E+03  0.60033036002E+03  0.00000000000E+00 0.  1.
          5    1    4    4  501    0 -0.37298402492E+02  0.86920263543E+02  0.55565089263E+01  0.94840129873E+02  0.41800000000E+01 0. -1.
         -5    1    4    4    0  501  0.38867041348E+01 -0.35623715313E+02 -0.29212825189E+02  0.46422161919E+02  0.41800000000E+01 0. -1.
</event>
<event>
11    1  0.8479398E-009  0.1476788E+03  0.7561462E-02  0.1099274E+00
         22   -1    0    0    0    0  0.00000000000E+00  0.00000000000E+00  0.76163775606E+03  0.76163775606E+03  0.00000000000E+00 0.  1.
         22   -1    0    0    0    0 -0.00000000000E+00 -0.00000000000E+00 -0.35270947425E+03  0.35270947425E+03  0.00000000000E+00 0. -1.
        -24    2    1    2    0    0  0.72186785069E+02 -0.33901668451E+02 -0.30846706954E+03  0.32714564066E+03  0.74243398053E+02 0.  0.
         25    2    1    2    0    0 -0.47217041020E+02  0.36122499642E+02  0.11943232910E+03  0.18288251593E+03  0.12509056502E+03 0.  0.
         24    2    1    2    0    0 -0.24969744050E+02 -0.22208311916E+01  0.59796302225E+03  0.60431907373E+03  0.83745726368E+02 0.  0.
        -11    1    5    5    0    0 -0.44677468607E+02  0.16682941652E+02  0.50974365472E+03  0.51196971617E+03  0.00000000000E+00 0.  1.
         12    1    5    5    0    0  0.19707724557E+02 -0.18903772844E+02  0.88219367526E+02  0.92349357559E+02  0.00000000000E+00 0. -1.
         13    1    3    3    0    0  0.64331969298E+02  0.75543606813E+01 -0.21607520537E+03  0.22557518705E+03  0.00000000000E+00 0. -1.
        -14    1    3    3    0    0  0.78548157709E+01 -0.41456029132E+02 -0.92391864166E+02  0.10157045361E+03  0.00000000000E+00 0.  1.
          5    1    4    4  501    0 -0.47178742393E+02  0.20013863110E+02 -0.10002356259E+02  0.52382325083E+02  0.41800000000E+01 0. -1.
         -5    1    4    4    0  501 -0.38298626429E-01  0.16108636532E+02  0.12943468536E+03  0.13050019085E+03  0.41800000000E+01 0. -1.
</event>
<event>
11    1  0.8479398E-009  0.1367472E+03  0.7561462E-02  0.1111246E+00
         22   -1    0    0    0    0  0.00000000000E+00  0.00000000000E+00  0.76131755131E+03  0.76131755131E+03  0.00000000000E+00 0.  1.
         22   -1    0    0    0    0 -0.00000000000E+00 -0.00000000000E+00 -0.65016636857E+02  0.65016636857E+02  0.00000000000E+00 0.  1.
         24    2    1    2    0    0 -0.74416553309E+01 -0.59815225749E+02  0.14537339928E+02  0.10143958534E+03  0.80283346699E+02 0.  0.
         25    2    1    2    0    0  0.42011744543E+02  0.22866764155E+02  0.27364419219E+03  0.30465810752E+03  0.12509013941E+03 0.  0.
        -24    2    1    2    0    0 -0.34570089212E+02  0.36948461594E+02  0.40811938234E+03  0.42023649530E+03  0.86469658628E+02 0.  0.
        -13    1    3    3    0    0 -0.69929137296E+01 -0.76180287605E+02 -0.41281074340E+01  0.76611868095E+02  0.00000000000E+00 0.  1.
         14    1    3    3    0    0 -0.44874160129E+00  0.16365061856E+02  0.18665447362E+02  0.24827717249E+02  0.00000000000E+00 0. -1.
         13    1    5    5    0    0 -0.40596571178E+02  0.38317059250E+02  0.12328026502E+03  0.13533034532E+03  0.00000000000E+00 0. -1.
        -14    1    5    5    0    0  0.60264819666E+01 -0.13685976565E+01  0.28483911731E+03  0.28490614998E+03  0.00000000000E+00 0.  1.
          5    1    4    4  501    0  0.81884908188E+02  0.89504949339E+01  0.12257195140E+03  0.14773829977E+03  0.41800000000E+01 0.  1.
         -5    1    4    4    0  501 -0.39873163645E+02  0.13916269221E+02  0.15107224079E+03  0.15691980775E+03  0.41800000000E+01 0.  1.
</event>
<event>
11    1  0.8479398E-009  0.1317986E+03  0.7561462E-02  0.1117079E+00
         22   -1    0    0    0    0  0.00000000000E+00  0.00000000000E+00  0.32952923452E+03  0.32952923452E+03  0.00000000000E+00 0.  1.
         22   -1    0    0    0    0 -0.00000000000E+00 -0.00000000000E+00 -0.25939496108E+03  0.25939496108E+03  0.00000000000E+00 0.  1.
         24    2    1    2    0    0 -0.26948886859E+02  0.24346838658E+02 -0.13511349312E+03  0.16098622229E+03  0.79636026336E+02 0.  0.
         25    2    1    2    0    0  0.58214165291E+02 -0.24029125039E+02 -0.57434638635E+02  0.15136278236E+03  0.12508263779E+03 0.  0.
        -24    2    1    2    0    0 -0.31265278433E+02 -0.31771361911E+00  0.26268240519E+03  0.27657519096E+03  0.80710418647E+02 0.  0.
        -11    1    3    3    0    0 -0.30991848247E+02  0.50741758189E+02 -0.10558050327E+03  0.12117121503E+03  0.00000000000E+00 0.  1.
         12    1    3    3    0    0  0.40429613887E+01 -0.26394919531E+02 -0.29532989846E+02  0.39815007260E+02  0.00000000000E+00 0. -1.
         13    1    5    5    0    0 -0.45442796714E+02 -0.26183158369E+02  0.12136285948E+03  0.13221024626E+03  0.00000000000E+00 0. -1.
        -14    1    5    5    0    0  0.14177518281E+02  0.25865444750E+02  0.14131954571E+03  0.14436494469E+03  0.00000000000E+00 0.  1.
          5    1    4    4  501    0 -0.35317679231E+02  0.98280367851E+01 -0.31416475741E+02  0.48460253004E+02  0.41800000000E+01 0.  1.
         -5    1    4    4    0  501  0.93531844522E+02 -0.33857161824E+02 -0.26018162894E+02  0.10290252935E+03  0.41800000000E+01 0.  1.
</event>
<event>
11    1  0.8479398E-009  0.1370973E+03  0.7561462E-02  0.1110844E+00
         22   -1    0    0    0    0  0.00000000000E+00  0.00000000000E+00  0.12755927866E+03  0.12755927866E+03  0.00000000000E+00 0. -1.
         22   -1    0    0    0    0 -0.00000000000E+00 -0.00000000000E+00 -0.25118639328E+04  0.25118639328E+04  0.00000000000E+00 0.  1.
        -24    2    1    2    0    0  0.51605583151E+02  0.19147393780E+02 -0.19967963418E+04  0.19988379676E+04  0.71608876797E+02 0.  0.
         25    2    1    2    0    0 -0.59202455984E+02 -0.32020296017E+02 -0.48925707660E+03  0.50946005082E+03  0.12508727443E+03 0.  0.
         24    2    1    2    0    0  0.75968728335E+01  0.12872902236E+02  0.10174876429E+03  0.13112519301E+03  0.81348516384E+02 0.  0.
        -13    1    5    5    0    0 -0.28767609255E+02  0.22707610090E+01  0.84896786942E+02  0.89667140753E+02  0.00000000000E+00 0.  1.
         14    1    5    5    0    0  0.36364482089E+02  0.10602141227E+02  0.16851977350E+02  0.41458052255E+02  0.00000000000E+00 0. -1.
         13    1    3    3    0    0 -0.44145809012E+00  0.27140604635E+02 -0.30020970391E+03  0.30143436039E+03  0.00000000000E+00 0. -1.
        -14    1    3    3    0    0  0.52047041241E+02 -0.79932108542E+01 -0.16965866379E+04  0.16974036072E+04  0.00000000000E+00 0.  1.
          5    1    4    4  501    0  0.60717200907E+00  0.35840837392E+02 -0.54450404596E+02  0.65324216363E+02  0.41800000000E+01 0.  1.
         -5    1    4    4    0  501 -0.59809627993E+02 -0.67861133409E+02 -0.43480667201E+03  0.44413583446E+03  0.41800000000E+01 0.  1.
</event>
<event>
11    1  0.8479398E-009  0.1983444E+03  0.7561462E-02  0.1055701E+00
         22   -1    0    0    0    0  0.00000000000E+00  0.00000000000E+00  0.13373477199E+04  0.13373477199E+04  0.00000000000E+00 0. -1.
         22   -1    0    0    0    0 -0.00000000000E+00 -0.00000000000E+00 -0.62472567342E+02  0.62472567342E+02  0.00000000000E+00 0.  1.
        -24    2    1    2    0    0 -0.64862842606E+02 -0.44161158097E+02  0.58314403804E+02  0.12517206133E+03  0.78166994391E+02 0.  0.
         25    2    1    2    0    0  0.17637387272E+02  0.17725223253E+03  0.72178545819E+03  0.75389066251E+03  0.12508977574E+03 0.  0.
         24    2    1    2    0    0  0.47225455334E+02 -0.13309107444E+03  0.49477529056E+03  0.52075756340E+03  0.80264400325E+02 0.  0.
        -13    1    5    5    0    0  0.43375547916E+02 -0.18715866678E+02  0.12267578522E+03  0.13145748401E+03  0.00000000000E+00 0.  1.
         14    1    5    5    0    0  0.38499074179E+01 -0.11437520776E+03  0.37209950534E+03  0.38930007939E+03  0.00000000000E+00 0. -1.
         13    1    3    3    0    0  0.68427831632E+01 -0.14109873776E+02 -0.12464607537E+02  0.20031941005E+02  0.00000000000E+00 0. -1.
        -14    1    3    3    0    0 -0.71705625769E+02 -0.30051284321E+02  0.70779011341E+02  0.10514012033E+03  0.00000000000E+00 0.  1.
          5    1    4    4  501    0  0.55901738974E+02  0.40665646205E+02  0.15783559622E+03  0.17236080481E+03  0.41800000000E+01 0. -1.
         -5    1    4    4    0  501 -0.38264351702E+02  0.13658658633E+03  0.56394986197E+03  0.58152985770E+03  0.41800000000E+01 0. -1.
</event>
<event>
11    1  0.8479398E-009  0.1508331E+03  0.7561462E-02  0.1096031E+00
         22   -1    0    0    0    0  0.00000000000E+00  0.00000000000E+00  0.30598917783E+04  0.30598917783E+04  0.00000000000E+00 0. -1.
         22   -1    0    0    0    0 -0.00000000000E+00 -0.00000000000E+00 -0.28946810446E+02  0.28946810446E+02  0.00000000000E+00 0.  1.
        -24    2    1    2    0    0 -0.65813120067E+02 -0.37563459763E+02  0.17142625035E+03  0.20508799364E+03  0.83257105069E+02 0.  0.
         25    2    1    2    0    0  0.11437222964E+02  0.10341061825E+03  0.61629212805E+03  0.63740715824E+03  0.12508929709E+03 0.  0.
         24    2    1    2    0    0  0.54375897103E+02 -0.65847158485E+02  0.22432265895E+04  0.22463434369E+04  0.81857914897E+02 0.  0.
        -13    1    5    5    0    0  0.74803028434E+02 -0.39422127385E+02  0.16817834894E+04  0.16839077476E+04  0.00000000000E+00 0.  1.
         14    1    5    5    0    0 -0.20427131331E+02 -0.26425031100E+02  0.56144310009E+03  0.56243568930E+03  0.00000000000E+00 0. -1.
         11    1    3    3    0    0 -0.12293309254E+02  0.24900581116E+02  0.64172165923E+02  0.69923038203E+02  0.00000000000E+00 0. -1.
        -12    1    3    3    0    0 -0.53519810813E+02 -0.62464040879E+02  0.10725408443E+03  0.13516495544E+03  0.00000000000E+00 0.  1.
          5    1    4    4  501    0 -0.47864108775E+02  0.18284019950E+02  0.12308120210E+03  0.13338565517E+03  0.41800000000E+01 0. -1.
         -5    1    4    4    0  501  0.59301331739E+02  0.85126598298E+02  0.49321092595E+03  0.50402150308E+03  0.41800000000E+01 0. -1.
</event>
<event>
11    1  0.8479398E-009  0.1561584E+03  0.7561462E-02  0.1090747E+00
         22   -1    0    0    0    0  0.00000000000E+00  0.00000000000E+00  0.16459731108E+03  0.16459731108E+03  0.00000000000E+00 0.  1.
         22   -1    0    0    0    0 -0.00000000000E+00 -0.00000000000E+00 -0.42645212810E+03  0.42645212810E+03  0.00000000000E+00 0. -1.
         24    2    1    2    0    0  0.73239134890E+02 -0.25686746889E+02 -0.22854183206E+03  0.25547031075E+03  0.83725329662E+02 0.  0.
         25    2    1    2    0    0 -0.91122024211E+02  0.10674952085E+03 -0.80751928419E+02  0.20461990034E+03  0.12509894553E+03 0.  0.
        -24    2    1    2    0    0  0.17882889321E+02 -0.81062773966E+02  0.47438943462E+02  0.13095922808E+03  0.89492429897E+02 0.  0.
        -13    1    3    3    0    0  0.35741847459E+02  0.22951449106E+02 -0.14924683020E+03  0.15517366078E+03  0.00000000000E+00 0.  1.
         14    1    3    3    0    0  0.37497287431E+02 -0.48638195995E+02 -0.79295001863E+02  0.10029664997E+03  0.00000000000E+00 0. -1.
         13    1    5    5    0    0  0.47702880911E+02 -0.19173864755E+02  0.31967422229E+02  0.60540218209E+02  0.00000000000E+00 0. -1.
        -14    1    5    5    0    0 -0.29819991590E+02 -0.61888909211E+02  0.15471521233E+02  0.70419009870E+02  0.00000000000E+00 0.  1.
          5    1    4    4  501    0 -0.12034126335E+03  0.10015882218E+03 -0.59009756380E+02  0.16737213948E+03  0.41800000000E+01 0.  1.
         -5    1    4    4    0  501  0.29219239136E+02  0.65906986736E+01 -0.21742172039E+02  0.37247760867E+02  0.41800000000E+01 0.  1.
</event>
<event>
11    1  0.8479398E-009  0.1874543E+03  0.7561462E-02  0.1063768E+00
         22   -1    0    0    0    0  0.00000000000E+00  0.00000000000E+00  0.98556723722E+03  0.98556723722E+03  0.00000000000E+00 0. -1.
         22   -1    0    0    0    0 -0.00000000000E+00 -0.00000000000E+00 -0.36663312382E+03  0.36663312382E+03  0.00000000000E+00 0.  1.
        -24    2    1    2    0    0 -0.80592268066E+02  0.12093284369E+03 -0.30274598723E+03  0.34614923234E+03  0.83930280037E+02 0.  0.
         25    2    1    2    0    0  0.13256754280E+02 -0.10357797516E+03  0.13284999678E+03  0.21024214126E+03  0.12509395607E+03 0.  0.
         24    2    1    2    0    0  0.67335513787E+02 -0.17354868536E+02  0.78883010385E+03  0.79580898744E+03  0.78890740043E+02 0.  0.
        -11    1    5    5    0    0  0.23761793723E+02 -0.38419586594E+02  0.20215057321E+03  0.20713652919E+03  0.00000000000E+00 0.  1.
         12    1    5    5    0    0  0.43573720064E+02  0.21064718058E+02  0.58667953065E+03  0.58867245826E+03  0.00000000000E+00 0. -1.
         13    1    3    3    0    0 -0.31266588193E+02  0.68085101151E+02 -0.70364006990E+02  0.10278265426E+03  0.00000000000E+00 0. -1.
        -14    1    3    3    0    0 -0.49325679873E+02  0.52847742544E+02 -0.23238198024E+03  0.24336657808E+03  0.00000000000E+00 0.  1.
          5    1    4    4  501    0  0.39815351263E+02 -0.10098408181E+03  0.43700667961E+02  0.11709085257E+03  0.41800000000E+01 0.  1.
         -5    1    4    4    0  501 -0.26558596984E+02 -0.25938933507E+01  0.89149328822E+02  0.93151288697E+02  0.41800000000E+01 0.  1.
</event>
<event>
11    1  0.8479398E-009  0.1338364E+03  0.7561462E-02  0.1114643E+00
         22   -1    0    0    0    0  0.00000000000E+00  0.00000000000E+00  0.28821916802E+04  0.28821916802E+04  0.00000000000E+00 0.  1.
         22   -1    0    0    0    0 -0.00000000000E+00 -0.00000000000E+00 -0.52225656909E+03  0.52225656909E+03  0.00000000000E+00 0. -1.
         24    2    1    2    0    0 -0.13982215785E+02 -0.22722608790E+02 -0.49589521757E+03  0.50330690438E+03  0.81816586772E+02 0.  0.
         25    2    1    2    0    0 -0.30881399330E+02  0.39535533373E+02  0.18884884673E+03  0.23198973174E+03  0.12505450611E+03 0.  0.
        -24    2    1    2    0    0  0.44863615114E+02 -0.16812924583E+02  0.26669814820E+04  0.26691516132E+04  0.96357099656E+02 0.  0.
        -13    1    3    3    0    0  0.23952941790E+02 -0.24583628838E+02 -0.10274832002E+03  0.10832966120E+03  0.00000000000E+00 0.  1.
         14    1    3    3    0    0 -0.37935157575E+02  0.18610200483E+01 -0.39314689755E+03  0.39497724318E+03  0.00000000000E+00 0. -1.
         11    1    5    5    0    0  0.49437710917E+02  0.68216617679E+01  0.61271611490E+03  0.61474519908E+03  0.00000000000E+00 0. -1.
        -12    1    5    5    0    0 -0.45740958025E+01 -0.23634586351E+02  0.20542653671E+04  0.20544064141E+04  0.00000000000E+00 0.  1.
          5    1    4    4  501    0 -0.71985064147E+02  0.48559117435E+02  0.15543109162E+03  0.17809024113E+03  0.41800000000E+01 0.  1.
         -5    1    4    4    0  501  0.41103664817E+02 -0.90235840621E+01  0.33417755110E+02  0.53899490604E+02  0.41800000000E+01 0.  1.
</event>
<event>
11    1  0.8479398E-009  0.1520827E+03  0.7561462E-02  0.1094769E+00
         22   -1    0    0    0    0  0.00000000000E+00  0.00000000000E+00  0.12350897804E+04  0.12350897804E+04  0.00000000000E+00 0.  1.
         22   -1    0    0    0    0 -0.00000000000E+00 -0.00000000000E+00 -0.18816639695E+04  0.18816639695E+04  0.00000000000E+00 0.  1.
         24    2    1    2    0    0 -0.10579441407E+01  0.49974021795E+01 -0.16634499717E+04  0.16656692349E+04  0.85802673101E+02 0.  0.
         25    2    1    2    0    0 -0.85190927885E+02  0.17240278499E+01 -0.18746445863E+03  0.24093947789E+03  0.12509373401E+03 0.  0.
        -24    2    1    2    0    0  0.86248872026E+02 -0.67214300294E+01  0.12043402412E+04  0.12101450371E+04  0.80817997861E+02 0.  0.
        -13    1    3    3    0    0 -0.27610958814E+02  0.22041587067E+02 -0.13827825557E+04  0.13832338171E+04  0.00000000000E+00 0.  1.
         14    1    3    3    0    0  0.26553014674E+02 -0.17044184887E+02 -0.28066741599E+03  0.28243541780E+03  0.00000000000E+00 0. -1.
         13    1    5    5    0    0  0.33831249620E+02 -0.21650981487E+02  0.90451265525E+03  0.90540403244E+03  0.00000000000E+00 0. -1.
        -14    1    5    5    0    0  0.52417622406E+02  0.14929551458E+02  0.29982758595E+03  0.30474100469E+03  0.00000000000E+00 0.  1.
          5    1    4    4  501    0 -0.10884449902E+03 -0.12630945251E+02 -0.18192064835E+03  0.21241294791E+03  0.41800000000E+01 0.  1.
         -5    1    4    4    0  501  0.23653571133E+02  0.14354973100E+02 -0.55438102831E+01  0.28526529977E+02  0.41800000000E+01 0.  1.
</event>
<event>
11    1  0.8479398E-009  0.1353088E+03  0.7561462E-02  0.1112913E+00
         22   -1    0    0    0    0  0.00000000000E+00  0.00000000000E+00  0.59244996950E+02  0.59244996950E+02  0.00000000000E+00 0. -1.
         22   -1    0    0    0    0 -0.00000000000E+00 -0.00000000000E+00 -0.24128994221E+04  0.24128994221E+04  0.00000000000E+00 0. -1.
        -24    2    1    2    0    0 -0.75209702300E+02 -0.62778260998E+01 -0.19905068170E+04  0.19935802470E+04  0.80925288813E+02 0.  0.
         25    2    1    2    0    0  0.11906656070E+02 -0.29743578258E+01 -0.34037042756E+03  0.36283603942E+03  0.12508936117E+03 0.  0.
         24    2    1    2    0    0  0.63303046230E+02  0.92521839255E+01 -0.22777180525E+02  0.11572813255E+03  0.93708708992E+02 0.  0.
        -11    1    5    5    0    0  0.85237857572E+01 -0.23895632271E+02 -0.41832925039E+02  0.48924940292E+02  0.00000000000E+00 0.  1.
         12    1    5    5    0    0  0.54779260473E+02  0.33147816196E+02  0.19055744515E+02  0.66803192256E+02  0.00000000000E+00 0. -1.
         13    1    3    3    0    0 -0.73267889344E+02 -0.26476724353E+02 -0.18474021393E+04  0.18490440408E+04  0.00000000000E+00 0. -1.
        -14    1    3    3    0    0 -0.19418129558E+01  0.20198898253E+02 -0.14310467772E+03  0.14453620624E+03  0.00000000000E+00 0.  1.
          5    1    4    4  501    0  0.62977773350E+02 -0.26694290862E+02 -0.20539408564E+03  0.21652479746E+03  0.41800000000E+01 0. -1.
         -5    1    4    4    0  501 -0.51071117280E+02  0.23719933036E+02 -0.13497634193E+03  0.14631124196E+03  0.41800000000E+01 0. -1.
</event>
<event>
11    1  0.8479398E-009  0.1444787E+03  0.7561462E-02  0.1102658E+00
         22   -1    0    0    0    0  0.00000000000E+00  0.00000000000E+00  0.11525512999E+04  0.11525512999E+04  0.00000000000E+00 0.  1.
         22   -1    0    0    0    0 -0.00000000000E+00 -0.00000000000E+00 -0.52659350904E+02  0.52659350904E+02  0.00000000000E+00 0.  1.
         24    2    1    2    0    0 -0.38341723290E+02  0.13147676514E+02  0.24029896684E+02  0.93647000023E+02  0.80928212239E+02 0.  0.
         25    2    1    2    0    0 -0.39704243299E+02  0.11235315720E+02  0.30344361059E+03  0.33079939284E+03  0.12509018442E+03 0.  0.
        -24    2    1    2    0    0  0.78045966589E+02 -0.24382992235E+02  0.77241844171E+03  0.78076425794E+03  0.79226726310E+02 0.  0.
        -11    1    3    3    0    0 -0.49488329500E+02 -0.16205638564E+02 -0.30788607028E+01  0.52165092363E+02  0.00000000000E+00 0.  1.
         12    1    3    3    0    0  0.11146606210E+02  0.29353315078E+02  0.27108757387E+02  0.41481907661E+02  0.00000000000E+00 0. -1.
         13    1    5    5    0    0  0.16617031986E+02  0.23897077691E+01  0.23646654732E+02  0.29000012677E+02  0.00000000000E+00 0. -1.
        -14    1    5    5    0    0  0.61428934603E+02 -0.26772700004E+02  0.74877178698E+03  0.75176424526E+03  0.00000000000E+00 0.  1.
          5    1    4    4  501    0  0.71433195008E-01 -0.33040688172E+02  0.24508961187E+03  0.24734203530E+03  0.41800000000E+01 0. -1.
         -5    1    4    4    0  501 -0.39775676494E+02  0.44276003892E+02  0.58353998722E+02  0.83457357543E+02  0.41800000000E+01 0. -1.
</event>
<event>
11    1  0.8953519E-009  0.1532447E+03  0.7561462E-02  0.1093609E+00
         22   -1    0    0    0    0  0.00000000000E+00  0.00000000000E+00  0.14305503148E+04  0.14305503148E+04  0.00000000000E+00 0.  1.
         22   -1    0    0    0    0 -0.00000000000E+00 -0.00000000000E+00 -0.25375513779E+03  0.25375513779E+03  0.00000000000E+00 0.  1.
        -24    2    1    2    0    0 -0.61669503074E+01 -0.93459906182E+02 -0.17247069198E+03  0.21198654243E+03  0.80120966287E+02 0.  0.
         25    2    1    2    0    0  0.76301620726E+02  0.52136358644E+02  0.43169410535E+02  0.16140525060E+03  0.12509164520E+03 0.  0.
         24    2    1    2    0    0 -0.70134670419E+02  0.41323547538E+02  0.13060964585E+04  0.13109136596E+04  0.77331471182E+02 0.  0.
        -13    1    5    5    0    0 -0.34237343393E+02  0.22851547376E+02  0.11070163671E+04  0.11077813981E+04  0.00000000000E+00 0.  1.
         14    1    5    5    0    0 -0.35897327026E+02  0.18472000163E+02  0.19908009135E+03  0.20313226147E+03  0.00000000000E+00 0. -1.
         11    1    3    3    0    0 -0.63988042004E+01 -0.27371228139E+01  0.76292517921E+01  0.10326762290E+02  0.00000000000E+00 0. -1.
        -12    1    3    3    0    0  0.23185389298E+00 -0.90722783368E+02 -0.18009994378E+03  0.20165978014E+03  0.00000000000E+00 0.  1.
          5    1    4    4  501    0  0.65620737520E+02 -0.28554117920E+02  0.63315372504E+01  0.71965127714E+02  0.41800000000E+01 0.  1.
         -5    1    4    4    0  501  0.10680883206E+02  0.80690476564E+02  0.36837873285E+02  0.89440122889E+02  0.41800000000E+01 0.  1.
</event>
<event>
11    1  0.8479398E-009  0.1478302E+03  0.7561462E-02  0.1099117E+00
         22   -1    0    0    0    0  0.00000000000E+00  0.00000000000E+00  0.11959590770E+04  0.11959590770E+04  0.00000000000E+00 0. -1.
         22   -1    0    0    0    0 -0.00000000000E+00 -0.00000000000E+00 -0.60509379528E+03  0.60509379528E+03  0.00000000000E+00 0.  1.
        -24    2    1    2    0    0  0.56809868898E+01  0.50416108171E+02 -0.57258358096E+03  0.58128561327E+03  0.86411512213E+02 0.  0.
         25    2    1    2    0    0 -0.82492836662E+02 -0.30222021792E+02  0.21028205316E+03  0.25996959521E+03  0.12508880786E+03 0.  0.
         24    2    1    2    0    0  0.76811849772E+02 -0.20194086379E+02  0.95316680956E+03  0.95979766383E+03  0.79854412874E+02 0.  0.
        -13    1    5    5    0    0 -0.16139711984E+02  0.34992080974E+01  0.16074458911E+03  0.16159071040E+03  0.00000000000E+00 0.  1.
         14    1    5    5    0    0  0.92951561757E+02 -0.23693294476E+02  0.79242222046E+03  0.79820695343E+03  0.00000000000E+00 0. -1.
         11    1    3    3    0    0  0.21328731202E+02  0.70748073444E+02 -0.45229620186E+03  0.45829254727E+03  0.00000000000E+00 0. -1.
        -12    1    3    3    0    0 -0.15647744312E+02 -0.20331965273E+02 -0.12028737910E+03  0.12299306600E+03  0.00000000000E+00 0.  1.
          5    1    4    4  501    0 -0.98263643195E+01 -0.68541894920E+02  0.79935866459E+02  0.10583838595E+03  0.41800000000E+01 0.  1.
         -5    1    4    4    0  501 -0.72666472343E+02  0.38319873129E+02  0.13034618670E+03  0.15413120926E+03  0.41800000000E+01 0.  1.
</event>
<event>
11    1  0.8479398E-009  0.1286274E+03  0.7561462E-02  0.1120967E+00
         22   -1    0    0    0    0  0.00000000000E+00  0.00000000000E+00  0.27208612522E+04  0.27208612522E+04  0.00000000000E+00 0.  1.
         22   -1    0    0    0    0 -0.00000000000E+00 -0.00000000000E+00 -0.12160302594E+04  0.12160302594E+04  0.00000000000E+00 0. -1.
         24    2    1    2    0    0 -0.26831522877E+02 -0.13188230241E+02 -0.11216371114E+04  0.11250294819E+04  0.82022347139E+02 0.  0.
         25    2    1    2    0    0  0.40834836460E+02 -0.11665116085E+02 -0.44606864168E+02  0.13942807831E+03  0.12508740099E+03 0.  0.
        -24    2    1    2    0    0 -0.14003313583E+02  0.24853346326E+02  0.26710749683E+04  0.26724339514E+04  0.80299166746E+02 0.  0.
        -11    1    3    3    0    0  0.16153040586E+02 -0.26612153093E+02 -0.21147904770E+03  0.21375807594E+03  0.00000000000E+00 0.  1.
         12    1    3    3    0    0 -0.42984563463E+02  0.13423922852E+02 -0.91015806368E+03  0.91127140593E+03  0.00000000000E+00 0. -1.
         11    1    5    5    0    0 -0.45564526387E+02  0.91610017400E+00  0.14644275930E+04  0.14651365603E+04  0.00000000000E+00 0. -1.
        -12    1    5    5    0    0  0.31561212803E+02  0.23937246152E+02  0.12066473754E+04  0.12072973911E+04  0.00000000000E+00 0.  1.
          5    1    4    4  501    0 -0.25471521690E+02 -0.13370351804E+02 -0.63919342481E+02  0.70219081935E+02  0.41800000000E+01 0. -1.
         -5    1    4    4    0  501  0.66306358151E+02  0.17052357190E+01  0.19312478313E+02  0.69208996371E+02  0.41800000000E+01 0. -1.
</event>
<event>
11    1  0.8479398E-009  0.1533744E+03  0.7561462E-02  0.1093480E+00
         22   -1    0    0    0    0  0.00000000000E+00  0.00000000000E+00  0.26390888523E+03  0.26390888523E+03  0.00000000000E+00 0. -1.
         22   -1    0    0    0    0 -0.00000000000E+00 -0.00000000000E+00 -0.15161101386E+03  0.15161101386E+03  0.00000000000E+00 0. -1.
        -24    2    1    2    0    0  0.78494968774E+02 -0.11343478042E+02 -0.17004356495E+02  0.11336622605E+03  0.79199863961E+02 0.  0.
         25    2    1    2    0    0 -0.11022411852E+03 -0.12545282212E+02  0.33482748350E+02  0.17051345864E+03  0.12508798796E+03 0.  0.
         24    2    1    2    0    0  0.31729149745E+02  0.23888760253E+02  0.95819479522E+02  0.13164021440E+03  0.81057766943E+02 0.  0.
        -13    1    5    5    0    0 -0.24481145373E+02 -0.77498259384E+01  0.24762310031E+02  0.35672934823E+02  0.00000000000E+00 0.  1.
         14    1    5    5    0    0  0.56210295118E+02  0.31638586192E+02  0.71057169491E+02  0.95967279578E+02  0.00000000000E+00 0. -1.
         13    1    3    3    0    0  0.12927503939E+02  0.29099384150E+01 -0.40234147673E+02  0.42360060655E+02  0.00000000000E+00 0. -1.
        -14    1    3    3    0    0  0.65567464834E+02 -0.14253416457E+02  0.23229791178E+02  0.71006165392E+02  0.00000000000E+00 0.  1.
          5    1    4    4  501    0 -0.84087119403E+02 -0.53838949651E+02 -0.15576771881E+02  0.10114041908E+03  0.41800000000E+01 0. -1.
         -5    1    4    4    0  501 -0.26136999115E+02  0.41293667440E+02  0.49059520231E+02  0.69373039566E+02  0.41800000000E+01 0. -1.
</event>
<event>
11    1  0.8479398E-009  0.2058919E+03  0.7561462E-02  0.1050434E+00
         22   -1    0    0    0    0  0.00000000000E+00  0.00000000000E+00  0.20756938789E+04  0.20756938789E+04  0.00000000000E+00 0.  1.
         22   -1    0    0    0    0 -0.00000000000E+00 -0.00000000000E+00 -0.16451916753E+03  0.16451916753E+03  0.00000000000E+00 0.  1.
         24    2    1    2    0    0  0.53952955182E+02 -0.67733942328E+02 -0.85510613263E+02  0.14702045905E+03  0.82487223748E+02 0.  0.
         25    2    1    2    0    0  0.84098852401E+02 -0.34347178583E+02  0.93678159582E+02  0.18076047660E+03  0.12508559736E+03 0.  0.
        -24    2    1    2    0    0 -0.13805180758E+03  0.10208112091E+03  0.19030071650E+04  0.19124321107E+04  0.80507460996E+02 0.  0.
        -13    1    3    3    0    0  0.68370782489E+02 -0.40611585897E+02 -0.32817599304E+02  0.86028249031E+02  0.00000000000E+00 0.  1.
         14    1    3    3    0    0 -0.14417827307E+02 -0.27122356431E+02 -0.52693013959E+02  0.60992210016E+02  0.00000000000E+00 0. -1.
         11    1    5    5    0    0 -0.40816482013E+02 -0.19167624323E+01  0.25132446372E+03  0.25462451815E+03  0.00000000000E+00 0. -1.
        -12    1    5    5    0    0 -0.97235325570E+02  0.10399788334E+03  0.16516827013E+04  0.16578075926E+04  0.00000000000E+00 0.  1.
          5    1    4    4  501    0 -0.19492358892E+02 -0.43980900275E+02  0.44270991020E+02  0.65510798271E+02  0.41800000000E+01 0.  1.
         -5    1    4    4    0  501  0.10359121129E+03  0.96337216919E+01  0.49407168562E+02  0.11524967833E+03  0.41800000000E+01 0.  1.
</event>
<event>
11    1  0.8479398E-009  0.1433331E+03  0.7561462E-02  0.1103892E+00
         22   -1    0    0    0    0  0.00000000000E+00  0.00000000000E+00  0.12602475982E+04  0.12602475982E+04  0.00000000000E+00 0.  1.
         22   -1    0    0    0    0 -0.00000000000E+00 -0.00000000000E+00 -0.13495585007E+03  0.13495585007E+03  0.00000000000E+00 0.  1.
        -24    2    1    2    0    0 -0.11429948641E+02  0.13226410525E+02 -0.97988393448E+02  0.12790690402E+03  0.80329752794E+02 0.  0.
         25    2    1    2    0    0  0.61929193866E+02 -0.58285471665E+02  0.28051002890E+03  0.31869409340E+03  0.12509047763E+03 0.  0.
         24    2    1    2    0    0 -0.50499245225E+02  0.45059061140E+02  0.94277011268E+03  0.94860245085E+03  0.80315824291E+02 0.  0.
        -11    1    5    5    0    0 -0.57639803785E+02  0.63162023324E+02  0.75520616767E+03  0.76003167293E+03  0.00000000000E+00 0.  1.
         12    1    5    5    0    0  0.71405585599E+01 -0.18102962184E+02  0.18756394501E+03  0.18857077792E+03  0.00000000000E+00 0. -1.
         13    1    3    3    0    0 -0.22712469919E+02 -0.27700155765E+02 -0.25744457859E+02  0.44112719590E+02  0.00000000000E+00 0. -1.
        -14    1    3    3    0    0  0.11282521277E+02  0.40926566290E+02 -0.72243935589E+02  0.83794184429E+02  0.00000000000E+00 0.  1.
          5    1    4    4  501    0 -0.20502231585E+02 -0.26473218087E+02  0.18682537272E+03  0.18984826854E+03  0.41800000000E+01 0.  1.
         -5    1    4    4    0  501  0.82431425451E+02 -0.31812253577E+02  0.93684656184E+02  0.12884582486E+03  0.41800000000E+01 0.  1.
</event>
<event>
11    1  0.8479398E-009  0.3638335E+03  0.7561462E-02  0.9762942E-01
         22   -1    0    0    0    0  0.00000000000E+00  0.00000000000E+00  0.43765925344E+03  0.43765925344E+03  0.00000000000E+00 0.  1.
         22   -1    0    0    0    0 -0.00000000000E+00 -0.00000000000E+00 -0.15668617876E+04  0.15668617876E+04  0.00000000000E+00 0.  1.
        -24    2    1    2    0    0 -0.68632694819E+02  0.78923543544E+01 -0.11863862768E+04  0.11905819449E+04  0.72112646421E+02 0.  0.
         25    2    1    2    0    0  0.38847833606E+03 -0.59126741934E+02 -0.12998003623E+03  0.43238205263E+03  0.12509212772E+03 0.  0.
         24    2    1    2    0    0 -0.31984564124E+03  0.51234387580E+02  0.18716377888E+03  0.38155704348E+03  0.75028665263E+02 0.  0.
        -13    1    5    5    0    0 -0.29336606703E+03  0.66982191317E+02  0.17701671251E+03  0.34912058052E+03  0.00000000000E+00 0.  1.
         14    1    5    5    0    0 -0.26479574212E+02 -0.15747803737E+02  0.10147066368E+02  0.32436462952E+02  0.00000000000E+00 0. -1.
         11    1    3    3    0    0 -0.24001040349E+02  0.34051441869E+02 -0.32749672018E+03  0.33013580896E+03  0.00000000000E+00 0. -1.
        -12    1    3    3    0    0 -0.44631654470E+02 -0.26159087514E+02 -0.85888955658E+03  0.86044613593E+03  0.00000000000E+00 0.  1.
          5    1    4    4  501    0  0.14626039550E+03 -0.62871994609E+02 -0.40066109777E+01  0.15930635998E+03  0.41800000000E+01 0. -1.
         -5    1    4    4    0  501  0.24221794056E+03  0.37452526749E+01 -0.12597342525E+03  0.27307569265E+03  0.41800000000E+01 0. -1.
</event>
<event>
11    1  0.1287799E-008  0.1723916E+03  0.7561462E-02  0.1075969E+00
         22   -1    0    0    0    0  0.00000000000E+00  0.00000000000E+00  0.66361480228E+03  0.66361480228E+03  0.00000000000E+00 0. -1.
         22   -1    0    0    0    0 -0.00000000000E+00 -0.00000000000E+00 -0.17429741800E+04  0.17429741800E+04  0.00000000000E+00 0. -1.
         24    2    1    2    0    0 -0.97945238895E+01 -0.82848066548E+02 -0.15236110377E+04  0.15280751200E+04  0.81628691133E+02 0.  0.
         25    2    1    2    0    0  0.74469833787E+02 -0.19559987339E+02 -0.18288446644E+03  0.23456575542E+03  0.12508403695E+03 0.  0.
        -24    2    1    2    0    0 -0.64675309898E+02  0.10240805389E+03  0.62713612643E+03  0.64394810689E+03  0.81848262543E+02 0.  0.
        -13    1    3    3    0    0 -0.34103990461E+02 -0.25560739028E+02 -0.31593424080E+03  0.31879598187E+03  0.00000000000E+00 0.  1.
         14    1    3    3    0    0  0.24309466572E+02 -0.57287327521E+02 -0.12076767969E+04  0.12092791381E+04  0.00000000000E+00 0. -1.
         13    1    5    5    0    0 -0.76162127690E+02  0.10217468910E+03  0.61094589517E+03  0.62409552443E+03  0.00000000000E+00 0. -1.
        -14    1    5    5    0    0  0.11486817792E+02  0.23336478790E+00  0.16190231261E+02  0.19852582462E+02  0.00000000000E+00 0.  1.
          5    1    4    4  501    0  0.22572649640E+02 -0.12073811979E+02  0.14895408330E+02  0.29910650892E+02  0.41800000000E+01 0. -1.
         -5    1    4    4    0  501  0.51897184147E+02 -0.74861753604E+01 -0.19777987477E+03  0.20465510453E+03  0.41800000000E+01 0. -1.
</event>
<event>
11    1  0.8479398E-009  0.1448859E+03  0.7561462E-02  0.1102222E+00
         22   -1    0    0    0    0  0.00000000000E+00  0.00000000000E+00  0.10537597039E+03  0.10537597039E+03  0.00000000000E+00 0.  1.
         22   -1    0    0    0    0 -0.00000000000E+00 -0.00000000000E+00 -0.17038818250E+04  0.17038818250E+04  0.00000000000E+00 0. -1.
        -24    2    1    2    0    0  0.63886178267E+02 -0.19040650523E+01 -0.14161798434E+04  0.14200778360E+04  0.83490371932E+02 0.  0.
         25    2    1    2    0    0 -0.30686590282E+02  0.70386479550E+02 -0.22733093629E+03  0.27059196158E+03  0.12507890209E+03 0.  0.
         24    2    1    2    0    0 -0.33199587985E+02 -0.68482414498E+02  0.45004925079E+02  0.11858799781E+03  0.79029211087E+02 0.  0.
        -11    1    5    5    0    0  0.13823741603E+01 -0.35808586463E+02  0.58970041673E+02  0.69004576933E+02  0.00000000000E+00 0.  1.
         12    1    5    5    0    0 -0.34581962145E+02 -0.32673828035E+02 -0.13965116594E+02  0.49583420875E+02  0.00000000000E+00 0. -1.
         13    1    3    3    0    0  0.53879078188E+02  0.31501371893E+02 -0.61969928123E+03  0.62283424011E+03  0.00000000000E+00 0. -1.
        -14    1    3    3    0    0  0.10007100078E+02 -0.33405436945E+02 -0.79648056222E+03  0.79724359593E+03  0.00000000000E+00 0.  1.
          5    1    4    4  501    0 -0.31617676341E+01  0.22122310260E+02  0.11408677573E+02  0.25436660743E+02  0.41800000000E+01 0. -1.
         -5    1    4    4    0  501 -0.27524822648E+02  0.48264169290E+02 -0.23873961386E+03  0.24515530083E+03  0.41800000000E+01 0. -1.
</event>
<event>
11    1  0.8479398E-009  0.1432180E+03  0.7561462E-02  0.1104017E+00
         22   -1    0    0    0    0  0.00000000000E+00  0.00000000000E+00  0.15286215442E+04  0.15286215442E+04  0.00000000000E+00 0. -1.
         22   -1    0    0    0    0 -0.00000000000E+00 -0.00000000000E+00 -0.53697971401E+03  0.53697971401E+03  0.00000000000E+00 0. -1.
        -24    2    1    2    0    0  0.22655981520E+02  0.23383450089E+02 -0.48294154069E+03  0.49065923229E+03  0.80335989938E+02 0.  0.
         25    2    1    2    0    0 -0.21421428124E+02 -0.92197076284E+02  0.79412105579E+02  0.17582381484E+03  0.12509417610E+03 0.  0.
         24    2    1    2    0    0 -0.12345533959E+01  0.68813626195E+02  0.13951712653E+04  0.13991182111E+04  0.79322567816E+02 0.  0.
        -13    1    5    5    0    0 -0.26415830458E+02 -0.42968997048E+01  0.44611644420E+03  0.44691849506E+03  0.00000000000E+00 0.  1.
         14    1    5    5    0    0  0.25181277062E+02  0.73110525899E+02  0.94905482110E+03  0.95219971601E+03  0.00000000000E+00 0. -1.
         13    1    3    3    0    0  0.10466185574E+02  0.60336291332E+01 -0.45697688007E+03  0.45713653829E+03  0.00000000000E+00 0. -1.
        -14    1    3    3    0    0  0.12189795946E+02  0.17349820956E+02 -0.25964660612E+02  0.33522694001E+02  0.00000000000E+00 0.  1.
          5    1    4    4  501    0 -0.46442581785E+01 -0.45533731069E+02  0.10874491327E+03  0.11805853786E+03  0.41800000000E+01 0.  1.
         -5    1    4    4    0  501 -0.16777169946E+02 -0.46663345215E+02 -0.29332807690E+02  0.57765276984E+02  0.41800000000E+01 0.  1.
</event>
<event>
11    1  0.8479398E-009  0.2199631E+03  0.7561462E-02  0.1041241E+00
         22   -1    0    0    0    0  0.00000000000E+00  0.00000000000E+00  0.48471020831E+03  0.48471020831E+03  0.00000000000E+00 0.  1.
         22   -1    0    0    0    0 -0.00000000000E+00 -0.00000000000E+00 -0.16345011073E+04  0.16345011073E+04  0.00000000000E+00 0.  1.
        -24    2    1    2    0    0 -0.14668028723E+03  0.14181225296E+03 -0.11377243823E+04  0.11587820959E+04  0.82057016002E+02 0.  0.
         25    2    1    2    0    0  0.10390001236E+03 -0.94674316113E+02 -0.46202299082E+03  0.49887035013E+03  0.12509174030E+03 0.  0.
         24    2    1    2    0    0  0.42780274869E+02 -0.47137936850E+02  0.44995647413E+03  0.46155886962E+03  0.80768957577E+02 0.  0.
        -13    1    5    5    0    0 -0.88111637980E+01 -0.38538140193E+02  0.30308425972E+03  0.30565158817E+03  0.00000000000E+00 0.  1.
         14    1    5    5    0    0  0.51591438667E+02 -0.85997966577E+01  0.14687221440E+03  0.15590728145E+03  0.00000000000E+00 0. -1.
         13    1    3    3    0    0  0.68719063838E+01  0.26687766800E+02 -0.16866067069E+03  0.17089728445E+03  0.00000000000E+00 0. -1.
        -14    1    3    3    0    0 -0.15355219361E+03  0.11512448616E+03 -0.96906371166E+03  0.98788481147E+03  0.00000000000E+00 0.  1.
          5    1    4    4  501    0  0.54556157510E+02 -0.11336295736E+03 -0.38772671044E+03  0.40764814339E+03  0.41800000000E+01 0. -1.
         -5    1    4    4    0  501  0.49343854848E+02  0.18688641249E+02 -0.74296280384E+02  0.91222206737E+02  0.41800000000E+01 0. -1.
</event>
<event>
11    1  0.8479398E-009  0.1444622E+03  0.7561462E-02  0.1102675E+00
         22   -1    0    0    0    0  0.00000000000E+00  0.00000000000E+00  0.12628284859E+03  0.12628284859E+03  0.00000000000E+00 0.  1.
         22   -1    0    0    0    0 -0.00000000000E+00 -0.00000000000E+00 -0.60565037921E+03  0.60565037921E+03  0.00000000000E+00 0.  1.
        -24    2    1    2    0    0  0.64206177987E+02  0.60010743680E+02 -0.37492068174E+03  0.39344407177E+03  0.80678357455E+02 0.  0.
         25    2    1    2    0    0 -0.21055910006E+02 -0.68384926816E+02  0.54853120110E+02  0.15419455070E+03  0.12508894882E+03 0.  0.
         24    2    1    2    0    0 -0.43150267981E+02  0.83741831353E+01 -0.15929996898E+03  0.18429460533E+03  0.81583998844E+02 0.  0.
        -11    1    5    5    0    0 -0.28444424440E+02 -0.35788598832E+02 -0.87587773224E+02  0.98800440821E+02  0.00000000000E+00 0.  1.
         12    1    5    5    0    0 -0.14705843541E+02  0.44162781967E+02 -0.71712195759E+02  0.85494164513E+02  0.00000000000E+00 0. -1.
         11    1    3    3    0    0  0.66246462548E+02  0.92670947841E+01 -0.18036427488E+03  0.19236877215E+03  0.00000000000E+00 0. -1.
        -12    1    3    3    0    0 -0.20402845615E+01  0.50743648896E+02 -0.19455640686E+03  0.20107529962E+03  0.00000000000E+00 0.  1.
          5    1    4    4  501    0 -0.59088492282E+02  0.48033706566E+01  0.10167112708E+02  0.60293987019E+02  0.41800000000E+01 0. -1.
         -5    1    4    4    0  501  0.38032582276E+02 -0.73188297472E+02  0.44686007402E+02  0.93900563678E+02  0.41800000000E+01 0. -1.
</event>
<event>
11    1  0.8479398E-009  0.1516785E+03  0.7561462E-02  0.1095176E+00
         22   -1    0    0    0    0  0.00000000000E+00  0.00000000000E+00  0.11208042150E+03  0.11208042150E+03  0.00000000000E+00 0. -1.
         22   -1    0    0    0    0 -0.00000000000E+00 -0.00000000000E+00 -0.13284641179E+04  0.13284641179E+04  0.00000000000E+00 0. -1.
         24    2    1    2    0    0  0.36119396035E+02  0.40478811264E+02 -0.10374489449E+04  0.10419419628E+04  0.79997473379E+02 0.  0.
         25    2    1    2    0    0 -0.29764676968E+02 -0.11892222948E+03 -0.20407003174E+03  0.26892897689E+03  0.12509909711E+03 0.  0.
        -24    2    1    2    0    0 -0.63547190667E+01  0.78443418215E+02  0.25135280231E+02  0.12967359966E+03  0.99948525862E+02 0.  0.
        -11    1    3    3    0    0  0.17071842845E+02 -0.55694003014E+01 -0.48163229998E+02  0.51401972352E+02  0.00000000000E+00 0.  1.
         12    1    3    3    0    0  0.19047553190E+02  0.46048211565E+02 -0.98928571488E+03  0.99053999048E+03  0.00000000000E+00 0. -1.
         13    1    5    5    0    0  0.15035124082E+02  0.35630680019E+01  0.46434562364E+02  0.48937909556E+02  0.00000000000E+00 0. -1.
        -14    1    5    5    0    0 -0.21389843149E+02  0.74880350213E+02 -0.21299282133E+02  0.80735690109E+02  0.00000000000E+00 0.  1.
          5    1    4    4  501    0 -0.15362883675E+02 -0.38675209830E+02  0.71960652081E+01  0.42438730008E+02  0.41800000000E+01 0.  1.
         -5    1    4    4    0  501 -0.14401793294E+02 -0.80247019649E+02 -0.21126609695E+03  0.22649024688E+03  0.41800000000E+01 0.  1.
</event>
<event>
11    1  0.8479398E-009  0.1270615E+03  0.7561462E-02  0.1122933E+00
         22   -1    0    0    0    0  0.00000000000E+00  0.00000000000E+00  0.13244014234E+03  0.13244014234E+03  0.00000000000E+00 0.  1.
         22   -1    0    0    0    0 -0.00000000000E+00 -0.00000000000E+00 -0.17395686792E+04  0.17395686792E+04  0.00000000000E+00 0.  1.
        -24    2    1    2    0    0 -0.18605832562E+02  0.20198819827E+02 -0.16157536635E+04  0.16178963684E+04  0.78578548270E+02 0.  0.
         25    2    1    2    0    0 -0.50358704971E+01 -0.25224221585E+02 -0.64164966546E+02  0.14292167432E+03  0.12509132948E+03 0.  0.
         24    2    1    2    0    0  0.23641703059E+02  0.50254017580E+01  0.72790093162E+02  0.11119077891E+03  0.80503458717E+02 0.  0.
        -11    1    5    5    0    0  0.51219677898E+01  0.24114837407E+02  0.79935656629E+02  0.83650876492E+02  0.00000000000E+00 0.  1.
         12    1    5    5    0    0  0.18519735270E+02 -0.19089435649E+02 -0.71455634666E+01  0.27539902417E+02  0.00000000000E+00 0. -1.
         11    1    3    3    0    0  0.12358294125E+02 -0.23417658903E+02 -0.34363646836E+03  0.34465509799E+03  0.00000000000E+00 0. -1.
        -12    1    3    3    0    0 -0.30964126688E+02  0.43616478729E+02 -0.12721171951E+04  0.12732412704E+04  0.00000000000E+00 0.  1.
          5    1    4    4  501    0  0.31097467117E+02  0.37605981284E+02 -0.47932691446E+02  0.68529392225E+02  0.41800000000E+01 0.  1.
         -5    1    4    4    0  501 -0.36133337614E+02 -0.62830202869E+02 -0.16232275100E+02  0.74392282090E+02  0.41800000000E+01 0.  1.
</event>
<event>
11    1  0.8479398E-009  0.1490694E+03  0.7561462E-02  0.1097833E+00
         22   -1    0    0    0    0  0.00000000000E+00  0.00000000000E+00  0.11529660616E+03  0.11529660616E+03  0.00000000000E+00 0.  1.
         22   -1    0    0    0    0 -0.00000000000E+00 -0.00000000000E+00 -0.48060817918E+03  0.48060817918E+03  0.00000000000E+00 0.  1.
         24    2    1    2    0    0 -0.30509337638E+02  0.42614486920E+02 -0.22153633006E+03  0.24231695904E+03  0.83020171791E+02 0.  0.
         25    2    1    2    0    0  0.76368002830E+02 -0.97987100473E+02 -0.16710785935E+03  0.24291196708E+03  0.12509054073E+03 0.  0.
        -24    2    1    2    0    0 -0.45858665192E+02  0.55372613553E+02  0.23332616398E+02  0.11067585922E+03  0.80843004155E+02 0.  0.
        -11    1    3    3    0    0 -0.38597510607E+02  0.59842028872E+02 -0.20530438909E+03  0.21730330974E+03  0.00000000000E+00 0.  1.
         12    1    3    3    0    0  0.80881729693E+01 -0.17227541952E+02 -0.16231940969E+02  0.25013649300E+02  0.00000000000E+00 0. -1.
         13    1    5    5    0    0 -0.87494335388E+01  0.67629959918E+02  0.78670874168E+01  0.68645867539E+02  0.00000000000E+00 0. -1.
        -14    1    5    5    0    0 -0.37109231653E+02 -0.12257346366E+02  0.15465528981E+02  0.42029991678E+02  0.00000000000E+00 0.  1.
          5    1    4    4  501    0  0.44011849315E+02 -0.80982702407E+02 -0.18134181708E+03  0.20346392307E+03  0.41800000000E+01 0. -1.
         -5    1    4    4    0  501  0.32356153514E+02 -0.17004398066E+02  0.14233957728E+02  0.39448044013E+02  0.41800000000E+01 0. -1.
</event>
<event>
11    1  0.8479398E-009  0.1678843E+03  0.7561462E-02  0.1079888E+00
         22   -1    0    0    0    0  0.00000000000E+00  0.00000000000E+00  0.85741390960E+03  0.85741390960E+03  0.00000000000E+00 0. -1.
         22   -1    0    0    0    0 -0.00000000000E+00 -0.00000000000E+00 -0.23058878029E+04  0.23058878029E+04  0.00000000000E+00 0.  1.
         24    2    1    2    0    0  0.47506604381E+02 -0.68573743697E+01 -0.17300734185E+04  0.17326262588E+04  0.80844407097E+02 0.  0.
         25    2    1    2    0    0 -0.14716282473E+03 -0.43345112034E+02 -0.55166562014E+03  0.58610367576E+03  0.12508743572E+03 0.  0.
        -24    2    1    2    0    0  0.99656220349E+02  0.50202486404E+02  0.83326514533E+03  0.84457177796E+03  0.80740533910E+02 0.  0.
        -13    1    3    3    0    0  0.36921538691E+02 -0.19942916707E+02 -0.16610666765E+04  0.16615966489E+04  0.00000000000E+00 0.  1.
         14    1    3    3    0    0  0.10585065690E+02  0.13085542337E+02 -0.69006741991E+02  0.71029609841E+02  0.00000000000E+00 0. -1.
         13    1    5    5    0    0  0.10747403433E+01  0.32412674594E+02  0.31875810679E+03  0.32040360046E+03  0.00000000000E+00 0. -1.
        -14    1    5    5    0    0  0.98581480005E+02  0.17789811810E+02  0.51450703854E+03  0.52416817750E+03  0.00000000000E+00 0.  1.
          5    1    4    4  501    0  0.91322138359E+01  0.98502596311E+01 -0.48311653592E+01  0.14874054695E+02  0.41800000000E+01 0. -1.
         -5    1    4    4    0  501 -0.15629503857E+03 -0.53195371666E+02 -0.54683445478E+03  0.57122962107E+03  0.41800000000E+01 0. -1.
</event>
<event>
11    1  0.8479398E-009  0.1352741E+03  0.7561462E-02  0.1112953E+00
         22   -1    0    0    0    0  0.00000000000E+00  0.00000000000E+00  0.85304602715E+03  0.85304602715E+03  0.00000000000E+00 0. -1.
         22   -1    0    0    0    0 -0.00000000000E+00 -0.00000000000E+00 -0.18659799089E+03  0.18659799089E+03  0.00000000000E+00 0. -1.
        -24    2    1    2    0    0 -0.14728233379E+02  0.10063426825E+02 -0.10730652342E+03  0.13462964150E+03  0.79323747920E+02 0.  0.
         25    2    1    2    0    0  0.65522839690E+02 -0.10744280138E+02  0.17279823281E+02  0.14268063119E+03  0.12510191104E+03 0.  0.
         24    2    1    2    0    0 -0.50794606310E+02  0.68085331249E+00  0.75647473639E+03  0.76233374535E+03  0.79486834883E+02 0.  0.
        -11    1    5    5    0    0 -0.12259667276E+02 -0.21728293041E+02  0.68250783596E+02  0.72667651824E+02  0.00000000000E+00 0.  1.
         12    1    5    5    0    0 -0.38534939034E+02  0.22409146354E+02  0.68822395279E+03  0.68966609353E+03  0.00000000000E+00 0. -1.
         11    1    3    3    0    0 -0.28124274118E+02 -0.27278018458E+02 -0.69749042538E+02  0.79999962629E+02  0.00000000000E+00 0. -1.
        -12    1    3    3    0    0  0.13396040739E+02  0.37341445284E+02 -0.37557480878E+02  0.54629678868E+02  0.00000000000E+00 0.  1.
          5    1    4    4  501    0 -0.37381128480E+02 -0.34314036078E+00  0.99463368143E+01  0.38908463447E+02  0.41800000000E+01 0.  1.
         -5    1    4    4    0  501  0.10290396817E+03 -0.10401139777E+02  0.73334864672E+01  0.10377216774E+03  0.41800000000E+01 0.  1.
</event>
<event>
11    1  0.8479398E-009  0.1512090E+03  0.7561462E-02  0.1095650E+00
         22   -1    0    0    0    0  0.00000000000E+00  0.00000000000E+00  0.12959825668E+04  0.12959825668E+04  0.00000000000E+00 0.  1.
         22   -1    0    0    0    0 -0.00000000000E+00 -0.00000000000E+00 -0.10663537684E+04  0.10663537684E+04  0.00000000000E+00 0. -1.
        -24    2    1    2    0    0 -0.76278818984E+02  0.36712203088E+02 -0.10397224533E+04  0.10458177202E+04  0.74469322168E+02 0.  0.
         25    2    1    2    0    0  0.98201294759E+02 -0.72661759250E+02  0.33638044216E+03  0.37910721875E+03  0.12508899188E+03 0.  0.
         24    2    1    2    0    0 -0.21922475775E+02  0.35949556162E+02  0.93297080949E+03  0.93741139620E+03  0.80824679616E+02 0.  0.
        -13    1    5    5    0    0 -0.13163478029E+02 -0.13704336537E+02  0.62902269544E+03  0.62930965142E+03  0.00000000000E+00 0.  1.
         14    1    5    5    0    0 -0.87589977459E+01  0.49653892699E+02  0.30394811405E+03  0.30810174478E+03  0.00000000000E+00 0. -1.
         11    1    3    3    0    0 -0.77804414193E+02  0.41610578434E+02 -0.10352746187E+04  0.10390276721E+04  0.00000000000E+00 0. -1.
        -12    1    3    3    0    0  0.15255952086E+01 -0.48983753456E+01 -0.44478345810E+01  0.67900481756E+01  0.00000000000E+00 0.  1.
          5    1    4    4  501    0  0.25437412020E+02 -0.93232159195E+02  0.21907611604E+03  0.23948092713E+03  0.41800000000E+01 0. -1.
         -5    1    4    4    0  501  0.72763882740E+02  0.20570399944E+02  0.11730432612E+03  0.13962629162E+03  0.41800000000E+01 0. -1.
</event>
<event>
11    1  0.8479398E-009  0.1597474E+03  0.7561462E-02  0.1087315E+00
         22   -1    0    0    0    0  0.00000000000E+00  0.00000000000E+00  0.13680814988E+04  0.13680814988E+04  0.00000000000E+00 0. -1.
         22   -1    0    0    0    0 -0.00000000000E+00 -0.00000000000E+00 -0.33315540644E+03  0.33315540644E+03  0.00000000000E+00 0.  1.
        -24    2    1    2    0    0  0.10470637357E+02 -0.38484092888E+01 -0.29411917495E+03  0.30399966233E+03  0.76060904057E+02 0.  0.
         25    2    1    2    0    0  0.86406397446E+02  0.29710442264E+02  0.16488635133E+03  0.22623834777E+03  0.12508998861E+03 0.  0.
         24    2    1    2    0    0 -0.96877034803E+02 -0.25862032975E+02  0.11641589160E+04  0.11709988951E+04  0.76931307845E+02 0.  0.
        -11    1    5    5    0    0 -0.16866009643E+02  0.21524955099E+02  0.44709138056E+03  0.44792687857E+03  0.00000000000E+00 0.  1.
         12    1    5    5    0    0 -0.80011025159E+02 -0.47386988075E+02  0.71706753541E+03  0.72307201656E+03  0.00000000000E+00 0. -1.
         11    1    3    3    0    0  0.17408058044E+02 -0.35506519468E+02 -0.10655678100E+03  0.11365782413E+03  0.00000000000E+00 0. -1.
        -12    1    3    3    0    0 -0.69374206874E+01  0.31658110179E+02 -0.18756239395E+03  0.19034183820E+03  0.00000000000E+00 0.  1.
          5    1    4    4  501    0  0.26239064201E+02  0.79910046618E+01  0.15951473188E+03  0.16190974873E+03  0.41800000000E+01 0.  1.
         -5    1    4    4    0  501  0.60167333245E+02  0.21719437602E+02  0.53716194427E+01  0.64328599044E+02  0.41800000000E+01 0.  1.
</event>
<event>
11    1  0.8479398E-009  0.1956408E+03  0.7561462E-02  0.1057650E+00
         22   -1    0    0    0    0  0.00000000000E+00  0.00000000000E+00  0.11758801442E+04  0.11758801442E+04  0.00000000000E+00 0.  1.
         22   -1    0    0    0    0 -0.00000000000E+00 -0.00000000000E+00 -0.36614203361E+03  0.36614203361E+03  0.00000000000E+00 0. -1.
         24    2    1    2    0    0  0.48023072573E+02  0.20803557739E+02 -0.29896324541E+03  0.31455431152E+03  0.82621966036E+02 0.  0.
         25    2    1    2    0    0  0.13228503862E+02 -0.15806463017E+03  0.14984505104E+03  0.25152326811E+03  0.12510393462E+03 0.  0.
        -24    2    1    2    0    0 -0.61251576435E+02  0.13726107243E+03  0.95885630496E+03  0.97594459818E+03  0.10232344567E+03 0.  0.
        -11    1    3    3    0    0 -0.15685693633E+01 -0.16269315861E+01  0.51419836829E+01  0.56166994248E+01  0.00000000000E+00 0.  1.
         12    1    3    3    0    0  0.49591641936E+02  0.22430489325E+02 -0.30410522910E+03  0.30893761209E+03  0.00000000000E+00 0. -1.
         11    1    5    5    0    0  0.13115387903E+02  0.94482342929E+02  0.54578310695E+03  0.55405606788E+03  0.00000000000E+00 0. -1.
        -12    1    5    5    0    0 -0.74366964338E+02  0.42778729501E+02  0.41307319801E+03  0.42188853030E+03  0.00000000000E+00 0.  1.
          5    1    4    4  501    0 -0.47885435410E+02 -0.10935012256E+03  0.64597849363E+02  0.13579697629E+03  0.41800000000E+01 0.  1.
         -5    1    4    4    0  501  0.61113939272E+02 -0.48714507608E+02  0.85247201675E+02  0.11572629182E+03  0.41800000000E+01 0.  1.
</event>
<event>
11    1  0.8479398E-009  0.1502312E+03  0.7561462E-02  0.1096643E+00
         22   -1    0    0    0    0  0.00000000000E+00  0.00000000000E+00  0.11301517823E+04  0.11301517823E+04  0.00000000000E+00 0. -1.
         22   -1    0    0    0    0 -0.00000000000E+00 -0.00000000000E+00 -0.29499355162E+03  0.29499355162E+03  0.00000000000E+00 0.  1.
         24    2    1    2    0    0 -0.46525933407E+02  0.79007544330E+01 -0.27132392827E+03  0.28654760510E+03  0.79156626608E+02 0.  0.
         25    2    1    2    0    0  0.84636387926E+02 -0.65754253202E+02  0.69110783587E+03  0.71046742935E+03  0.12508791865E+03 0.  0.
        -24    2    1    2    0    0 -0.38110454518E+02  0.57853498769E+02  0.41537432308E+03  0.42813029949E+03  0.77202920932E+02 0.  0.
        -11    1    3    3    0    0  0.68230011621E+01  0.32462890329E+02 -0.10832995569E+03  0.11329506562E+03  0.00000000000E+00 0.  1.
         12    1    3    3    0    0 -0.53348934569E+02 -0.24562135896E+02 -0.16299397257E+03  0.17325253947E+03  0.00000000000E+00 0. -1.
         13    1    5    5    0    0  0.15264764123E+02  0.41830196837E+02  0.24061444168E+03  0.24469999578E+03  0.00000000000E+00 0. -1.
        -14    1    5    5    0    0 -0.53375218641E+02  0.16023301932E+02  0.17475988141E+03  0.18343030371E+03  0.00000000000E+00 0.  1.
          5    1    4    4  501    0  0.63717726989E+01 -0.56904908692E+02  0.11048460442E+03  0.12451139841E+03  0.41800000000E+01 0.  1.
         -5    1    4    4    0  501  0.78264615227E+02 -0.88493445100E+01  0.58062323145E+03  0.58595603094E+03  0.41800000000E+01 0.  1.
</event>
<event>
11    1  0.8479398E-009  0.1695853E+03  0.7561462E-02  0.1078393E+00
         22   -1    0    0    0    0  0.00000000000E+00  0.00000000000E+00  0.16134792231E+04  0.16134792231E+04  0.00000000000E+00 0.  1.
         22   -1    0    0    0    0 -0.00000000000E+00 -0.00000000000E+00 -0.19261810279E+03  0.19261810279E+03  0.00000000000E+00 0.  1.
         24    2    1    2    0    0 -0.27491932156E+02  0.92799883260E+02 -0.14291863713E+03  0.19031786246E+03  0.80171860807E+02 0.  0.
         25    2    1    2    0    0 -0.49024234440E+02  0.11061088727E+02  0.18634694180E+03  0.22999571834E+03  0.12508846664E+03 0.  0.
        -24    2    1    2    0    0  0.76516166596E+02 -0.10386097199E+03  0.13774328156E+04  0.13857837451E+04  0.80209733347E+02 0.  0.
        -11    1    3    3    0    0 -0.23836919444E+02  0.97363119983E+02 -0.15044949356E+03  0.18078392067E+03  0.00000000000E+00 0.  1.
         12    1    3    3    0    0 -0.36550127119E+01 -0.45632367234E+01  0.75308564332E+01  0.95339417837E+01  0.00000000000E+00 0. -1.
         11    1    5    5    0    0  0.74871091888E+02 -0.44590085127E+02  0.62931168160E+03  0.63531657360E+03  0.00000000000E+00 0. -1.
        -12    1    5    5    0    0  0.16450747085E+01 -0.59270886859E+02  0.74812113399E+03  0.75046717145E+03  0.00000000000E+00 0.  1.
          5    1    4    4  501    0 -0.88020950923E+01 -0.32178205502E+02  0.16287691142E+03  0.16631077675E+03  0.41800000000E+01 0. -1.
         -5    1    4    4    0  501 -0.40222139348E+02  0.43239294229E+02  0.23470030380E+02  0.63684941589E+02  0.41800000000E+01 0. -1.
</event>
<event>
11    1  0.8479398E-009  0.1354040E+03  0.7561462E-02  0.1112802E+00
         22   -1    0    0    0    0  0.00000000000E+00  0.00000000000E+00  0.50569965113E+03  0.50569965113E+03  0.00000000000E+00 0.  1.
         22   -1    0    0    0    0 -0.00000000000E+00 -0.00000000000E+00 -0.34704486373E+03  0.34704486373E+03  0.00000000000E+00 0. -1.
         24    2    1    2    0    0  0.30257946785E+02  0.46661733641E+02 -0.31042957140E+03  0.32538836024E+03  0.80113703258E+02 0.  0.
         25    2    1    2    0    0  0.27653665334E+02 -0.50913327118E+02  0.22245791186E+03  0.26170921198E+03  0.12508915622E+03 0.  0.
        -24    2    1    2    0    0 -0.57911612120E+02  0.42515934774E+01  0.24662644693E+03  0.26564694264E+03  0.79823949660E+02 0.  0.
        -11    1    3    3    0    0  0.48371454741E+02  0.12977578382E+01 -0.16700932057E+03  0.17387810376E+03  0.00000000000E+00 0.  1.
         12    1    3    3    0    0 -0.18113507955E+02  0.45363975803E+02 -0.14342025083E+03  0.15151025648E+03  0.00000000000E+00 0. -1.
         11    1    5    5    0    0 -0.56078818369E+02  0.14146757229E+02  0.79998447784E+02  0.98715329395E+02  0.00000000000E+00 0. -1.
        -12    1    5    5    0    0 -0.18327937511E+01 -0.98951637520E+01  0.16662799915E+03  0.16693161324E+03  0.00000000000E+00 0.  1.
          5    1    4    4  501    0  0.18917448387E+02  0.26098101525E+02  0.15653572974E+03  0.15987460036E+03  0.41800000000E+01 0. -1.
         -5    1    4    4    0  501  0.87362169470E+01 -0.77011428643E+02  0.65922182125E+02  0.10183461162E+03  0.41800000000E+01 0. -1.
</event>
<event>
11    1  0.8479398E-009  0.1275968E+03  0.7561462E-02  0.1122257E+00
         22   -1    0    0    0    0  0.00000000000E+00  0.00000000000E+00  0.10229490201E+04  0.10229490201E+04  0.00000000000E+00 0.  1.
         22   -1    0    0    0    0 -0.00000000000E+00 -0.00000000000E+00 -0.25487589489E+03  0.25487589489E+03  0.00000000000E+00 0.  1.
        -24    2    1    2    0    0  0.24447083066E+02  0.24211008965E+01 -0.20244829985E+03  0.21907831154E+03  0.80040432757E+02 0.  0.
         25    2    1    2    0    0 -0.77558050292E+01 -0.22074980279E+02  0.54009728714E+02  0.13824596790E+03  0.12508972611E+03 0.  0.
         24    2    1    2    0    0 -0.16691278036E+02  0.19653879383E+02  0.91651169636E+03  0.92050063557E+03  0.81626324032E+02 0.  0.
        -11    1    5    5    0    0 -0.41412155401E+02  0.66651033080E+00  0.74696286426E+03  0.74811024016E+03  0.00000000000E+00 0.  1.
         12    1    5    5    0    0  0.24720877364E+02  0.18987369052E+02  0.16954883210E+03  0.17239039541E+03  0.00000000000E+00 0. -1.
         13    1    3    3    0    0  0.35225166672E+02 -0.31944102211E+02 -0.10849476818E+03  0.11845823212E+03  0.00000000000E+00 0. -1.
        -14    1    3    3    0    0 -0.10778083606E+02  0.34365203108E+02 -0.93953531665E+02  0.10062007942E+03  0.00000000000E+00 0.  1.
          5    1    4    4  501    0 -0.27309475436E+02  0.85020500190E+01 -0.33004377893E+02  0.43873154243E+02  0.41800000000E+01 0. -1.
         -5    1    4    4    0  501  0.19553670407E+02 -0.30577030298E+02  0.87014106608E+02  0.94372813654E+02  0.41800000000E+01 0. -1.
</event>
<event>
11    1  0.8479398E-009  0.1647704E+03  0.7561462E-02  0.1082674E+00
         22   -1    0    0    0    0  0.00000000000E+00  0.00000000000E+00  0.22108332962E+03  0.22108332962E+03  0.00000000000E+00 0.  1.
         22   -1    0    0    0    0 -0.00000000000E+00 -0.00000000000E+00 -0.29253814506E+04  0.29253814506E+04  0.00000000000E+00 0.  1.
        -24    2    1    2    0    0  0.10735602948E+03  0.14004861453E+02 -0.27441539439E+04  0.27474902760E+04  0.81243432616E+02 0.  0.
         25    2    1    2    0    0 -0.71886751910E+02 -0.76509621103E+02 -0.12237522835E+03  0.20407625694E+03  0.12509993969E+03 0.  0.
         24    2    1    2    0    0 -0.35469277565E+02  0.62504759650E+02  0.16223105136E+03  0.19489824727E+03  0.80631867974E+02 0.  0.
        -11    1    5    5    0    0 -0.43710922331E+02  0.47387231406E+02  0.16528364362E+03  0.17741160413E+03  0.00000000000E+00 0.  1.
         12    1    5    5    0    0  0.82416447662E+01  0.15117528244E+02 -0.30525922629E+01  0.17486643137E+02  0.00000000000E+00 0. -1.
         11    1    3    3    0    0  0.29984479636E+02 -0.22033293527E+02 -0.38527360084E+03  0.38706625085E+03  0.00000000000E+00 0. -1.
        -12    1    3    3    0    0  0.77371549839E+02  0.36038154980E+02 -0.23588803431E+04  0.23604240251E+04  0.00000000000E+00 0.  1.
          5    1    4    4  501    0 -0.59128531440E+02 -0.35037214239E+02 -0.14081234249E+03  0.15674622104E+03  0.41800000000E+01 0.  1.
         -5    1    4    4    0  501 -0.12758220471E+02 -0.41472406864E+02  0.18437114137E+02  0.47330035900E+02  0.41800000000E+01 0.  1.
</event>
<event>
11    1  0.8479398E-009  0.3977749E+03  0.7561462E-02  0.9656346E-01
         22   -1    0    0    0    0  0.00000000000E+00  0.00000000000E+00  0.66569449949E+03  0.66569449949E+03  0.00000000000E+00 0. -1.
         22   -1    0    0    0    0 -0.00000000000E+00 -0.00000000000E+00 -0.84654279817E+03  0.84654279817E+03  0.00000000000E+00 0.  1.
         24    2    1    2    0    0 -0.19000818669E+02 -0.48379196058E+02 -0.55604630632E+03  0.56409360454E+03  0.79451382587E+02 0.  0.
         25    2    1    2    0    0  0.23228318920E+03 -0.27299129452E+03 -0.32442016429E+02  0.38102333596E+03  0.12508625524E+03 0.  0.
        -24    2    1    2    0    0 -0.21328237053E+03  0.32137049058E+03  0.40764002407E+03  0.56712035715E+03  0.81772541084E+02 0.  0.
        -11    1    3    3    0    0  0.10525149635E+02 -0.49167411947E+02 -0.47813375119E+03  0.48077031647E+03  0.00000000000E+00 0.  1.
         12    1    3    3    0    0 -0.29525968305E+02  0.78821588857E+00 -0.77912555131E+02  0.83323288075E+02  0.00000000000E+00 0. -1.
         13    1    5    5    0    0 -0.21926066987E+03  0.31360329812E+03  0.40453205383E+03  0.55683790507E+03  0.00000000000E+00 0. -1.
        -14    1    5    5    0    0  0.59782993432E+01  0.77671924621E+01  0.31079702358E+01  0.10282452080E+02  0.00000000000E+00 0.  1.
          5    1    4    4  501    0  0.22287818251E+02 -0.79179000682E+02  0.31469342367E+02  0.88169455598E+02  0.41800000000E+01 0. -1.
         -5    1    4    4    0  501  0.20999537095E+03 -0.19381229384E+03 -0.63911358796E+02  0.29285388037E+03  0.41800000000E+01 0. -1.
</event>
<event>
11    1  0.8479398E-009  0.1400505E+03  0.7561462E-02  0.1107502E+00
         22   -1    0    0    0    0  0.00000000000E+00  0.00000000000E+00  0.82486082641E+03  0.82486082641E+03  0.00000000000E+00 0. -1.
         22   -1    0    0    0    0 -0.00000000000E+00 -0.00000000000E+00 -0.90963324111E+03  0.90963324111E+03  0.00000000000E+00 0. -1.
        -24    2    1    2    0    0 -0.63051443617E+02 -0.21878657721E+00 -0.85735796954E+03  0.86681473618E+03  0.11103858119E+03 0.  0.
         25    2    1    2    0    0  0.59410948218E+02 -0.29395609498E+02  0.65931489671E+02  0.15619579595E+03  0.12512554782E+03 0.  0.
         24    2    1    2    0    0  0.36404953990E+01  0.29614396075E+02  0.70665406517E+03  0.71148353539E+03  0.77191888536E+02 0.  0.
        -13    1    5    5    0    0  0.11641831511E+01 -0.26379297364E+02  0.19877140399E+03  0.20051756455E+03  0.00000000000E+00 0.  1.
         14    1    5    5    0    0  0.24763122480E+01  0.55993693438E+02  0.50788266118E+03  0.51096597084E+03  0.00000000000E+00 0. -1.
         13    1    3    3    0    0 -0.32885121624E+02  0.81706768890E+01 -0.80567279528E+03  0.80638504714E+03  0.00000000000E+00 0. -1.
        -14    1    3    3    0    0 -0.30166321993E+02 -0.83894634662E+01 -0.51685174256E+02  0.60429689042E+02  0.00000000000E+00 0.  1.
          5    1    4    4  501    0  0.27908598657E+02 -0.21267509158E+02 -0.35200523123E+02  0.49877310001E+02  0.41800000000E+01 0.  1.
         -5    1    4    4    0  501  0.31502349561E+02 -0.81281003397E+01  0.10113201279E+03  0.10631848595E+03  0.41800000000E+01 0.  1.
</event>
<event>
11    1  0.8479398E-009  0.1346228E+03  0.7561462E-02  0.1113716E+00
         22   -1    0    0    0    0  0.00000000000E+00  0.00000000000E+00  0.38395322850E+03  0.38395322850E+03  0.00000000000E+00 0.  1.
         22   -1    0    0    0    0 -0.00000000000E+00 -0.00000000000E+00 -0.76097691059E+03  0.76097691059E+03  0.00000000000E+00 0.  1.
         24    2    1    2    0    0  0.48174702765E+02 -0.24529340228E+01 -0.67816832609E+03  0.68460328638E+03  0.80265573790E+02 0.  0.
         25    2    1    2    0    0 -0.87900988891E+02 -0.16686669316E+01  0.73505985804E+01  0.15307077237E+03  0.12508901533E+03 0.  0.
        -24    2    1    2    0    0  0.39726286127E+02  0.41216009543E+01  0.29379404542E+03  0.30725608034E+03  0.80598960173E+02 0.  0.
        -11    1    3    3    0    0  0.12329077654E+02 -0.33019028638E+02 -0.46294268865E+03  0.46428245215E+03  0.00000000000E+00 0.  1.
         12    1    3    3    0    0  0.35845625111E+02  0.30566094615E+02 -0.21522563744E+03  0.22032083422E+03  0.00000000000E+00 0. -1.
         13    1    5    5    0    0 -0.13423383881E+02 -0.20634893836E+02  0.41616166586E+02  0.48351746605E+02  0.00000000000E+00 0. -1.
        -14    1    5    5    0    0  0.53149670007E+02  0.24756494790E+02  0.25217787883E+03  0.25890433374E+03  0.00000000000E+00 0.  1.
          5    1    4    4  501    0 -0.43161233005E+02 -0.38081493270E+02 -0.46448469511E+02  0.74081204661E+02  0.41800000000E+01 0.  1.
         -5    1    4    4    0  501 -0.44739755887E+02  0.36412826338E+02  0.53799068091E+02  0.78989567705E+02  0.41800000000E+01 0.  1.
</event>
<event>
11    1  0.8479398E-009  0.2194532E+03  0.7561462E-02  0.1041561E+00
         22   -1    0    0    0    0  0.00000000000E+00  0.00000000000E+00  0.10879438876E+03  0.10879438876E+03  0.00000000000E+00 0. -1.
         22   -1    0    0    0    0 -0.00000000000E+00 -0.00000000000E+00 -0.21750715092E+04  0.21750715092E+04  0.00000000000E+00 0. -1.
         24    2    1    2    0    0  0.69258172642E+02  0.10371858146E+03 -0.15080684636E+04  0.15153648109E+04  0.80658420338E+02 0.  0.
         25    2    1    2    0    0  0.11592308697E+03 -0.13806395888E+03 -0.51489388958E+03  0.55969848580E+03  0.12508740405E+03 0.  0.
        -24    2    1    2    0    0 -0.18518125961E+03  0.34345377418E+02 -0.43314767320E+02  0.20880260126E+03  0.79061073610E+02 0.  0.
        -11    1    3    3    0    0  0.35061797183E+02  0.21506930945E+02 -0.19552476769E+03  0.19980443559E+03  0.00000000000E+00 0.  1.
         12    1    3    3    0    0  0.34196375459E+02  0.82211650520E+02 -0.13125436959E+04  0.13155603753E+04  0.00000000000E+00 0. -1.
         13    1    5    5    0    0 -0.19077070960E+03  0.24876277566E+02 -0.45255515237E+02  0.19763692592E+03  0.00000000000E+00 0. -1.
        -14    1    5    5    0    0  0.55894499888E+01  0.94690998523E+01  0.19407479162E+01  0.11165675334E+02  0.00000000000E+00 0.  1.
          5    1    4    4  501    0  0.63853232076E+01 -0.75825114002E+02 -0.30919519245E+03  0.31844836269E+03  0.41800000000E+01 0. -1.
         -5    1    4    4    0  501  0.10953776377E+03 -0.62238844882E+02 -0.20569869713E+03  0.24125012311E+03  0.41800000000E+01 0. -1.
</event>
<event>
11    1  0.8479398E-009  0.1671144E+03  0.7561462E-02  0.1080570E+00
         22   -1    0    0    0    0  0.00000000000E+00  0.00000000000E+00  0.31537574211E+03  0.31537574211E+03  0.00000000000E+00 0.  1.
         22   -1    0    0    0    0 -0.00000000000E+00 -0.00000000000E+00 -0.94983165172E+03  0.94983165172E+03  0.00000000000E+00 0.  1.
        -24    2    1    2    0    0  0.10895774096E+03  0.13331632638E+02 -0.71002526741E+03  0.72296590954E+03  0.80587246188E+02 0.  0.
         25    2    1    2    0    0 -0.10628723503E+03 -0.71770050577E+02 -0.18796721831E+03  0.25966911126E+03  0.12509378759E+03 0.  0.
         24    2    1    2    0    0 -0.26705059283E+01  0.58438417940E+02  0.26353657611E+03  0.28257237303E+03  0.83507118025E+02 0.  0.
        -13    1    5    5    0    0 -0.15240019394E+02  0.61068962069E+02  0.26221415405E+03  0.26966263906E+03  0.00000000000E+00 0.  1.
         14    1    5    5    0    0  0.12569513466E+02 -0.26305441290E+01  0.13224220580E+01  0.12909733974E+02  0.00000000000E+00 0. -1.
         13    1    3    3    0    0  0.38221520000E+02  0.34254683535E+02 -0.16036995643E+03  0.16838286985E+03  0.00000000000E+00 0. -1.
        -14    1    3    3    0    0  0.70736220960E+02 -0.20923050898E+02 -0.54965531098E+03  0.55458303969E+03  0.00000000000E+00 0.  1.
          5    1    4    4  501    0 -0.13498204464E+03 -0.58479272583E+02 -0.15759672370E+03  0.21562508532E+03  0.41800000000E+01 0.  1.
         -5    1    4    4    0  501  0.28694809613E+02 -0.13290777994E+02 -0.30370494611E+02  0.44044025944E+02  0.41800000000E+01 0.  1.
</event>
<event>
11    1  0.8479398E-009  0.2033807E+03  0.7561462E-02  0.1052158E+00
         22   -1    0    0    0    0  0.00000000000E+00  0.00000000000E+00  0.32415678500E+03  0.32415678500E+03  0.00000000000E+00 0. -1.
         22   -1    0    0    0    0 -0.00000000000E+00 -0.00000000000E+00 -0.97156499718E+03  0.97156499718E+03  0.00000000000E+00 0. -1.
        -24    2    1    2    0    0 -0.16039192770E+03  0.57987053065E+02 -0.81014240979E+03  0.83234677648E+03  0.85920680841E+02 0.  0.
         25    2    1    2    0    0  0.14660433613E+03  0.11672336527E+03  0.26500324824E+02  0.22686276353E+03  0.12508905183E+03 0.  0.
         24    2    1    2    0    0  0.13787591569E+02 -0.17471041833E+03  0.13623387279E+03  0.23651224216E+03  0.81636662377E+02 0.  0.
        -11    1    5    5    0    0  0.36596392076E+02 -0.34982449565E+02  0.24990214911E+02  0.56458644439E+02  0.00000000000E+00 0.  1.
         12    1    5    5    0    0 -0.22808800507E+02 -0.13972796877E+03  0.11124365788E+03  0.18005359773E+03  0.00000000000E+00 0. -1.
         11    1    3    3    0    0 -0.15220598278E+03  0.48396256670E+02 -0.57224607547E+03  0.59411651193E+03  0.00000000000E+00 0. -1.
        -12    1    3    3    0    0 -0.81859449151E+01  0.95907963944E+01 -0.23789633432E+03  0.23823026456E+03  0.00000000000E+00 0.  1.
          5    1    4    4  501    0  0.36855815482E+02  0.76873686471E+02  0.61150298131E+02  0.10499879127E+03  0.41800000000E+01 0. -1.
         -5    1    4    4    0  501  0.10974852065E+03  0.39849678797E+02 -0.34649973307E+02  0.12186397226E+03  0.41800000000E+01 0. -1.
</event>
<event>
11    1  0.8479398E-009  0.1318259E+03  0.7561462E-02  0.1117046E+00
         22   -1    0    0    0    0  0.00000000000E+00  0.00000000000E+00  0.25370005433E+03  0.25370005433E+03  0.00000000000E+00 0.  1.
         22   -1    0    0    0    0 -0.00000000000E+00 -0.00000000000E+00 -0.67871010174E+03  0.67871010174E+03  0.00000000000E+00 0.  1.
         24    2    1    2    0    0 -0.12263900236E+02  0.12920512603E+02 -0.56340372425E+03  0.56844623309E+03  0.73416759102E+02 0.  0.
         25    2    1    2    0    0  0.33987381992E+02 -0.46602742696E+02 -0.56791578559E+02  0.14899116801E+03  0.12508447941E+03 0.  0.
        -24    2    1    2    0    0 -0.21723481755E+02  0.33682230093E+02  0.19518525541E+03  0.21497275497E+03  0.80682087022E+02 0.  0.
        -11    1    3    3    0    0  0.18668093827E+01 -0.29572482751E+02 -0.27414189592E+03  0.27573863678E+03  0.00000000000E+00 0.  1.
         12    1    3    3    0    0 -0.14130709619E+02  0.42492995353E+02 -0.28926182833E+03  0.29270759631E+03  0.00000000000E+00 0. -1.
         13    1    5    5    0    0  0.14052874382E+02 -0.20408275187E+02  0.64104071342E+02  0.68726362752E+02  0.00000000000E+00 0. -1.
        -14    1    5    5    0    0 -0.35776356138E+02  0.54090505280E+02  0.13108118406E+03  0.14624639221E+03  0.00000000000E+00 0.  1.
          5    1    4    4  501    0 -0.46618717624E+02 -0.26463402288E+02 -0.30123933468E+02  0.61632298847E+02  0.41800000000E+01 0.  1.
         -5    1    4    4    0  501  0.80606099616E+02 -0.20139340407E+02 -0.26667645091E+02  0.87358869166E+02  0.41800000000E+01 0.  1.
</event>
<event>
11    1  0.8479398E-009  0.1841048E+03  0.7561462E-02  0.1066370E+00
         22   -1    0    0    0    0  0.00000000000E+00  0.00000000000E+00  0.20185665691E+04  0.20185665691E+04  0.00000000000E+00 0. -1.
         22   -1    0    0    0    0 -0.00000000000E+00 -0.00000000000E+00 -0.68864549494E+03  0.68864549494E+03  0.00000000000E+00 0. -1.
         24    2    1    2    0    0 -0.45447146069E+02  0.87667329982E+01 -0.66968593056E+03  0.67549103542E+03  0.75276786910E+02 0.  0.
         25    2    1    2    0    0  0.16543455083E+03  0.76694327257E+01  0.97079999273E+03  0.99273745122E+03  0.12509040879E+03 0.  0.
        -24    2    1    2    0    0 -0.11998740476E+03 -0.16436165724E+02  0.10288070120E+04  0.10389835774E+04  0.79849116247E+02 0.  0.
        -13    1    3    3    0    0 -0.19370805356E+01  0.17611193966E+02 -0.34763263675E+02  0.39017828428E+02  0.00000000000E+00 0.  1.
         14    1    3    3    0    0 -0.43510065533E+02 -0.88444609674E+01 -0.63492266688E+03  0.63647320699E+03  0.00000000000E+00 0. -1.
         13    1    5    5    0    0 -0.89381615653E+02 -0.20952689559E+02  0.94835583603E+03  0.95278900086E+03  0.00000000000E+00 0. -1.
        -14    1    5    5    0    0 -0.30605789104E+02  0.45165238350E+01  0.80451175943E+02  0.86194576540E+02  0.00000000000E+00 0.  1.
          5    1    4    4  501    0  0.11723688413E+03  0.55684109575E+02  0.48111834372E+03  0.49833476712E+03  0.41800000000E+01 0. -1.
         -5    1    4    4    0  501  0.48197666693E+02 -0.48014676849E+02  0.48968164901E+03  0.49440268410E+03  0.41800000000E+01 0. -1.
</event>
<event>
11    1  0.8479398E-009  0.1725721E+03  0.7561462E-02  0.1075815E+00
         22   -1    0    0    0    0  0.00000000000E+00  0.00000000000E+00  0.71991960859E+03  0.71991960859E+03  0.00000000000E+00 0. -1.
         22   -1    0    0    0    0 -0.00000000000E+00 -0.00000000000E+00 -0.54309996762E+03  0.54309996762E+03  0.00000000000E+00 0. -1.
         24    2    1    2    0    0  0.48173915940E+02 -0.42471875941E+02 -0.41010107362E+03  0.42297154406E+03  0.81224688835E+02 0.  0.
         25    2    1    2    0    0 -0.12214956526E+03 -0.50774677089E+02 -0.48629225842E+02  0.18844341458E+03  0.12509010659E+03 0.  0.
        -24    2    1    2    0    0  0.73975649315E+02  0.93246553030E+02  0.63554994043E+03  0.65160461757E+03  0.80607285700E+02 0.  0.
        -13    1    3    3    0    0  0.13072023423E+02  0.15974036511E+02 -0.27722927471E+02  0.34563106724E+02  0.00000000000E+00 0.  1.
         14    1    3    3    0    0  0.35101892517E+02 -0.58445912453E+02 -0.38237814615E+03  0.38840843733E+03  0.00000000000E+00 0. -1.
         11    1    5    5    0    0  0.28463903557E+02  0.93964284874E+02  0.44249229151E+03  0.45325369131E+03  0.00000000000E+00 0. -1.
        -12    1    5    5    0    0  0.45511745758E+02 -0.71773184374E+00  0.19305764892E+03  0.19835092626E+03  0.00000000000E+00 0.  1.
          5    1    4    4  501    0 -0.13408285762E+03 -0.71682719304E+02 -0.57274134054E+02  0.16252514817E+03  0.41800000000E+01 0. -1.
         -5    1    4    4    0  501  0.11933292366E+02  0.20908042215E+02  0.86449082120E+01  0.25918266415E+02  0.41800000000E+01 0. -1.
</event>
<event>
11    1  0.8479398E-009  0.1356063E+03  0.7561462E-02  0.1112566E+00
         22   -1    0    0    0    0  0.00000000000E+00  0.00000000000E+00  0.36969990669E+04  0.36969990669E+04  0.00000000000E+00 0.  1.
         22   -1    0    0    0    0 -0.00000000000E+00 -0.00000000000E+00 -0.73261060258E+03  0.73261060258E+03  0.00000000000E+00 0. -1.
        -24    2    1    2    0    0  0.33679200785E+02  0.42767249102E+02 -0.67244322548E+03  0.67957137413E+03  0.81694766573E+02 0.  0.
         25    2    1    2    0    0 -0.58296178837E+01 -0.97877264207E+01  0.14388591184E+02  0.12642997027E+03  0.12509085416E+03 0.  0.
         24    2    1    2    0    0 -0.27849582901E+02 -0.32979522682E+02  0.36224430986E+04  0.36236083251E+04  0.81117462035E+02 0.  0.
        -11    1    5    5    0    0  0.31673967851E+01 -0.36385608015E+02  0.31109197221E+04  0.31111341119E+04  0.00000000000E+00 0.  1.
         12    1    5    5    0    0 -0.31016979686E+02  0.34060853331E+01  0.51152337653E+03  0.51247421319E+03  0.00000000000E+00 0. -1.
         11    1    3    3    0    0  0.20028610485E+02  0.24973062886E+02 -0.63583007330E+03  0.63663543824E+03  0.00000000000E+00 0. -1.
        -12    1    3    3    0    0  0.13650590300E+02  0.17794186216E+02 -0.36613152183E+02  0.42935935897E+02  0.00000000000E+00 0.  1.
          5    1    4    4  501    0 -0.35471140792E+02 -0.34391048217E+02  0.52407223043E+02  0.72145238606E+02  0.41800000000E+01 0. -1.
         -5    1    4    4    0  501  0.29641522908E+02  0.24603321796E+02 -0.38018631859E+02  0.54284731667E+02  0.41800000000E+01 0. -1.
</event>
<event>
11    1  0.8479398E-009  0.1873215E+03  0.7561462E-02  0.1063870E+00
         22   -1    0    0    0    0  0.00000000000E+00  0.00000000000E+00  0.18168073530E+04  0.18168073530E+04  0.00000000000E+00 0.  1.
         22   -1    0    0    0    0 -0.00000000000E+00 -0.00000000000E+00 -0.13717710893E+04  0.13717710893E+04  0.00000000000E+00 0.  1.
         24    2    1    2    0    0 -0.14147650310E+03 -0.83777211305E+01 -0.12720029881E+04  0.12824185903E+04  0.80746838041E+02 0.  0.
         25    2    1    2    0    0  0.10723240417E+03  0.67277151041E+01 -0.20735131286E+02  0.16619742221E+03  0.12509031466E+03 0.  0.
        -24    2    1    2    0    0  0.34244098923E+02  0.16500060264E+01  0.17377743831E+04  0.17399624298E+04  0.80212653194E+02 0.  0.
        -13    1    3    3    0    0 -0.13129624434E+03 -0.28548419063E+02 -0.11824412009E+04  0.11900508012E+04  0.00000000000E+00 0.  1.
         14    1    3    3    0    0 -0.10180258761E+02  0.20170697933E+02 -0.89561787258E+02  0.92367789084E+02  0.00000000000E+00 0. -1.
         11    1    5    5    0    0  0.16739503311E+02  0.35276376222E+02  0.46926011915E+03  0.47088182500E+03  0.00000000000E+00 0. -1.
        -12    1    5    5    0    0  0.17504595612E+02 -0.33626370196E+02  0.12685142640E+04  0.12690806048E+04  0.00000000000E+00 0.  1.
          5    1    4    4  501    0  0.31031259495E+02 -0.21444841577E+02 -0.63737958045E+02  0.74180994816E+02  0.41800000000E+01 0.  1.
         -5    1    4    4    0  501  0.76201144679E+02  0.28172556681E+02  0.43002826759E+02  0.92016427390E+02  0.41800000000E+01 0.  1.
</event>
<event>
11    1  0.8479398E-009  0.2017815E+03  0.7561462E-02  0.1053271E+00
         22   -1    0    0    0    0  0.00000000000E+00  0.00000000000E+00  0.40792777779E+03  0.40792777779E+03  0.00000000000E+00 0. -1.
         22   -1    0    0    0    0 -0.00000000000E+00 -0.00000000000E+00 -0.49119735987E+03  0.49119735987E+03  0.00000000000E+00 0. -1.
         24    2    1    2    0    0 -0.77778274131E+02 -0.42745335210E+02 -0.34578263499E+03  0.36513603495E+03  0.76694652669E+02 0.  0.
         25    2    1    2    0    0  0.15727405403E+03 -0.92498519764E+02  0.28286714049E+01  0.22123805942E+03  0.12508866185E+03 0.  0.
        -24    2    1    2    0    0 -0.79495779902E+02  0.13524385497E+03  0.25968438151E+03  0.31275104329E+03  0.75939171378E+02 0.  0.
        -11    1    3    3    0    0 -0.18850596102E+02 -0.23018995954E+02 -0.26439266364E+02  0.39802687773E+02  0.00000000000E+00 0.  1.
         12    1    3    3    0    0 -0.58927678028E+02 -0.19726339256E+02 -0.31934336863E+03  0.32533334718E+03  0.00000000000E+00 0. -1.
         11    1    5    5    0    0 -0.68063202069E+02  0.13587073134E+03  0.26015970212E+03  0.30129142988E+03  0.00000000000E+00 0. -1.
        -12    1    5    5    0    0 -0.11432577834E+02 -0.62687636513E+00 -0.47532061123E+00  0.11459613414E+02  0.00000000000E+00 0.  1.
          5    1    4    4  501    0  0.27143376137E+02  0.28497505344E+02  0.16703079054E+02  0.42957373393E+02  0.41800000000E+01 0.  1.
         -5    1    4    4    0  501  0.13013067790E+03 -0.12099602511E+03 -0.13874407649E+02  0.17828068602E+03  0.41800000000E+01 0.  1.
</event>
<event>
11    1  0.8479398E-009  0.1432443E+03  0.7561462E-02  0.1103989E+00
         22   -1    0    0    0    0  0.00000000000E+00  0.00000000000E+00  0.13474636194E+04  0.13474636194E+04  0.00000000000E+00 0. -1.
         22   -1    0    0    0    0 -0.00000000000E+00 -0.00000000000E+00 -0.36122299569E+03  0.36122299569E+03  0.00000000000E+00 0.  1.
         24    2    1    2    0    0  0.21281962125E+02  0.35492419011E+02 -0.33083783804E+03  0.34239464221E+03  0.77895970451E+02 0.  0.
         25    2    1    2    0    0  0.40509685930E+02 -0.68164642029E+02  0.22807137901E+03  0.27193899693E+03  0.12508721378E+03 0.  0.
        -24    2    1    2    0    0 -0.61791648055E+02  0.32672223018E+02  0.10890070827E+04  0.10943529759E+04  0.82379170722E+02 0.  0.
        -13    1    3    3    0    0  0.32911020855E+02  0.43784838261E+02 -0.31949335510E+03  0.32415467189E+03  0.00000000000E+00 0.  1.
         14    1    3    3    0    0 -0.11629058730E+02 -0.82924192500E+01 -0.11344482945E+02  0.18239970320E+02  0.00000000000E+00 0. -1.
         13    1    5    5    0    0 -0.51434881467E+02 -0.78877641744E+01  0.85850074957E+03  0.86007633433E+03  0.00000000000E+00 0. -1.
        -14    1    5    5    0    0 -0.10356766587E+02  0.40559987192E+02  0.23050633312E+03  0.23427664157E+03  0.00000000000E+00 0.  1.
          5    1    4    4  501    0  0.52189561641E+02 -0.41689134116E+01  0.24068922831E+02  0.57774697139E+02  0.41800000000E+01 0. -1.
         -5    1    4    4    0  501 -0.11679875711E+02 -0.63995728617E+02  0.20400245618E+03  0.21416429979E+03  0.41800000000E+01 0. -1.
</event>
<event>
11    1  0.8479398E-009  0.1629497E+03  0.7561462E-02  0.1084335E+00
         22   -1    0    0    0    0  0.00000000000E+00  0.00000000000E+00  0.91975860941E+02  0.91975860941E+02  0.00000000000E+00 0. -1.
         22   -1    0    0    0    0 -0.00000000000E+00 -0.00000000000E+00 -0.11153342482E+04  0.11153342482E+04  0.00000000000E+00 0.  1.
         24    2    1    2    0    0  0.96582364879E+02 -0.29615599232E+01 -0.65911988280E+03  0.66981105511E+03  0.69791873490E+02 0.  0.
         25    2    1    2    0    0 -0.13468784417E+03 -0.25876461190E+02 -0.39425911081E+03  0.43577304994E+03  0.12508995957E+03 0.  0.
        -24    2    1    2    0    0  0.38105479295E+02  0.28838021113E+02  0.30020606341E+02  0.10172600410E+03  0.84636186651E+02 0.  0.
        -11    1    3    3    0    0  0.87184118779E+02 -0.45045733652E+01 -0.65225346319E+03  0.65806986103E+03  0.00000000000E+00 0.  1.
         12    1    3    3    0    0  0.93982461006E+01  0.15430134420E+01 -0.68664196057E+01  0.11741194081E+02  0.00000000000E+00 0. -1.
         11    1    5    5    0    0  0.22831143424E+02  0.59031477855E+02  0.17777149856E+02  0.65741946615E+02  0.00000000000E+00 0. -1.
        -12    1    5    5    0    0  0.15274335871E+02 -0.30193456742E+02  0.12243456485E+02  0.35984057484E+02  0.00000000000E+00 0.  1.
          5    1    4    4  501    0 -0.26790427671E+02 -0.85340368672E+01 -0.26472476081E+03  0.26624655526E+03  0.41800000000E+01 0.  1.
         -5    1    4    4    0  501 -0.10789741650E+03 -0.17342424323E+02 -0.12953435000E+03  0.16952649468E+03  0.41800000000E+01 0.  1.
</event>
<event>
11    1  0.8479398E-009  0.8580959E+03  0.7561462E-02  0.8827100E-01
         22   -1    0    0    0    0  0.00000000000E+00  0.00000000000E+00  0.99091862011E+03  0.99091862011E+03  0.00000000000E+00 0.  1.
         22   -1    0    0    0    0 -0.00000000000E+00 -0.00000000000E+00 -0.14046236419E+04  0.14046236419E+04  0.00000000000E+00 0. -1.
        -24    2    1    2    0    0 -0.83228032478E+03  0.17696546222E+03 -0.83188554636E+03  0.11927393628E+04  0.81156093539E+02 0.  0.
         25    2    1    2    0    0  0.81891155047E+03 -0.20516504803E+03  0.84012874650E+02  0.85756267623E+03  0.12508699422E+03 0.  0.
         24    2    1    2    0    0  0.13368774308E+02  0.28199585806E+02  0.33416764993E+03  0.34524022296E+03  0.80924980869E+02 0.  0.
        -11    1    5    5    0    0  0.15964324362E+02  0.54518332636E+02  0.26856818058E+03  0.27451042943E+03  0.00000000000E+00 0.  1.
         12    1    5    5    0    0 -0.25955500538E+01 -0.26318746830E+02  0.65599469344E+02  0.70729793531E+02  0.00000000000E+00 0. -1.
         13    1    3    3    0    0 -0.82374398487E+03  0.17791178716E+03 -0.83186907327E+03  0.11841507132E+04  0.00000000000E+00 0. -1.
        -14    1    3    3    0    0 -0.85363399090E+01 -0.94632493882E+00 -0.16473089145E-01  0.85886495618E+01  0.00000000000E+00 0.  1.
          5    1    4    4  501    0  0.22814904194E+03 -0.11593021176E+03  0.23190150145E+02  0.25699621553E+03  0.41800000000E+01 0. -1.
         -5    1    4    4    0  501  0.59076250853E+03 -0.89234836273E+02  0.60822724505E+02  0.60056646069E+03  0.41800000000E+01 0. -1.
</event>
<event>
11    1  0.8479398E-009  0.2563666E+03  0.7561462E-02  0.1020561E+00
         22   -1    0    0    0    0  0.00000000000E+00  0.00000000000E+00  0.11911327100E+04  0.11911327100E+04  0.00000000000E+00 0.  1.
         22   -1    0    0    0    0 -0.00000000000E+00 -0.00000000000E+00 -0.11429825002E+04  0.11429825002E+04  0.00000000000E+00 0. -1.
        -24    2    1    2    0    0 -0.57689113997E+02  0.22640781372E+03 -0.10476329970E+04  0.10764245454E+04  0.81033163029E+02 0.  0.
         25    2    1    2    0    0  0.77523118128E+02 -0.12501536748E+03  0.44151478991E+02  0.19808348410E+03  0.12509611355E+03 0.  0.
         24    2    1    2    0    0 -0.19834004131E+02 -0.10139244624E+03  0.10516317278E+04  0.10596071807E+04  0.78512869300E+02 0.  0.
        -13    1    5    5    0    0 -0.42351083184E+02 -0.97146462978E+02  0.81305594175E+03  0.81993354239E+03  0.00000000000E+00 0.  1.
         14    1    5    5    0    0  0.22517079053E+02 -0.42459832599E+01  0.23857578607E+03  0.23967363835E+03  0.00000000000E+00 0. -1.
         13    1    3    3    0    0 -0.72094934655E+01  0.17509259708E+03 -0.73067559275E+03  0.75139617792E+03  0.00000000000E+00 0. -1.
        -14    1    3    3    0    0 -0.50479620531E+02  0.51315216640E+02 -0.31695740427E+03  0.32502836749E+03  0.00000000000E+00 0.  1.
          5    1    4    4  501    0 -0.31867571464E+02 -0.52288023357E+02  0.19196060183E+02  0.64308169187E+02  0.41800000000E+01 0. -1.
         -5    1    4    4    0  501  0.10939068959E+03 -0.72727344126E+02  0.24955418808E+02  0.13377531492E+03  0.41800000000E+01 0. -1.
</event>
<event>
11    1  0.8479398E-009  0.1404587E+03  0.7561462E-02  0.1107047E+00
         22   -1    0    0    0    0  0.00000000000E+00  0.00000000000E+00  0.28746859003E+03  0.28746859003E+03  0.00000000000E+00 0. -1.
         22   -1    0    0    0    0 -0.00000000000E+00 -0.00000000000E+00 -0.11454911562E+04  0.11454911562E+04  0.00000000000E+00 0.  1.
         24    2    1    2    0    0 -0.45620865132E+02  0.44691641996E+02 -0.10973050508E+04  0.11020740078E+04  0.80063338150E+02 0.  0.
         25    2    1    2    0    0  0.38277647697E+02 -0.56714124422E+02  0.18332945205E+03  0.23224294200E+03  0.12508167691E+03 0.  0.
        -24    2    1    2    0    0  0.73432174353E+01  0.12022482427E+02  0.55953032508E+02  0.98642796439E+02  0.80007477878E+02 0.  0.
        -11    1    3    3    0    0 -0.64193128888E+02  0.19762254136E+02 -0.58856988701E+03  0.59238991921E+03  0.00000000000E+00 0.  1.
         12    1    3    3    0    0  0.18572263757E+02  0.24929387859E+02 -0.50873516375E+03  0.50968408863E+03  0.00000000000E+00 0. -1.
         13    1    5    5    0    0 -0.60569589678E+01  0.85554243145E+01  0.74648619166E+02  0.75381021355E+02  0.00000000000E+00 0. -1.
        -14    1    5    5    0    0  0.13400176403E+02  0.34670581123E+01 -0.18695586658E+02  0.23261775084E+02  0.00000000000E+00 0.  1.
          5    1    4    4  501    0 -0.10603648511E+02 -0.74851939855E+02  0.54762076299E+02  0.93443071773E+02  0.41800000000E+01 0.  1.
         -5    1    4    4    0  501  0.48881296208E+02  0.18137815433E+02  0.12856737575E+03  0.13879987023E+03  0.41800000000E+01 0.  1.
</event>
<event>
11    1  0.8479398E-009  0.2314459E+03  0.7561462E-02  0.1034275E+00
         22   -1    0    0    0    0  0.00000000000E+00  0.00000000000E+00  0.78471068801E+03  0.78471068801E+03  0.00000000000E+00 0. -1.
         22   -1    0    0    0    0 -0.00000000000E+00 -0.00000000000E+00 -0.22085705213E+04  0.22085705213E+04  0.00000000000E+00 0.  1.
        -24    2    1    2    0    0  0.12756344834E+03  0.14692497763E+03 -0.21105557820E+04  0.21210018535E+04  0.79647795622E+02 0.  0.
         25    2    1    2    0    0 -0.14969842199E+03 -0.13411525866E+03  0.65625931167E+02  0.24566091790E+03  0.12508398615E+03 0.  0.
         24    2    1    2    0    0  0.22134973647E+02 -0.12809718971E+02  0.62107001747E+03  0.62661843793E+03  0.79174833091E+02 0.  0.
        -13    1    5    5    0    0 -0.10583153303E+02  0.10614109556E+00  0.10076914421E+02  0.14613644447E+02  0.00000000000E+00 0.  1.
         14    1    5    5    0    0  0.32718126950E+02 -0.12915860067E+02  0.61099310305E+03  0.61200479349E+03  0.00000000000E+00 0. -1.
         13    1    3    3    0    0  0.32955780268E+02  0.26462361322E+02 -0.86994120332E+03  0.87096729976E+03  0.00000000000E+00 0. -1.
        -14    1    3    3    0    0  0.94607668073E+02  0.12046261631E+03 -0.12406145786E+04  0.12500345537E+04  0.00000000000E+00 0.  1.
          5    1    4    4  501    0 -0.49065831144E+02 -0.93076791480E+02 -0.20070640366E+02  0.10719630545E+03  0.41800000000E+01 0. -1.
         -5    1    4    4    0  501 -0.10063259084E+03 -0.41038467183E+02  0.85696571533E+02  0.13846461245E+03  0.41800000000E+01 0. -1.
</event>
<event>
11    1  0.8479398E-009  0.1636855E+03  0.7561462E-02  0.1083661E+00
         22   -1    0    0    0    0  0.00000000000E+00  0.00000000000E+00  0.10852355888E+03  0.10852355888E+03  0.00000000000E+00 0. -1.
         22   -1    0    0    0    0 -0.00000000000E+00 -0.00000000000E+00 -0.22126582990E+04  0.22126582990E+04  0.00000000000E+00 0. -1.
         24    2    1    2    0    0  0.33255411013E+02 -0.34778075823E+02 -0.19431413250E+04  0.19454641452E+04  0.81957881968E+02 0.  0.
         25    2    1    2    0    0 -0.21617227330E+02 -0.78556520445E+02 -0.18101118696E+03  0.23463008026E+03  0.12509114012E+03 0.  0.
        -24    2    1    2    0    0 -0.11638183683E+02  0.11333459627E+03  0.20017771873E+02  0.14108763239E+03  0.80776424728E+02 0.  0.
        -11    1    3    3    0    0  0.35961438283E+02  0.95061633441E+01 -0.41077803782E+03  0.41245871131E+03  0.00000000000E+00 0.  1.
         12    1    3    3    0    0 -0.27060272699E+01 -0.44284239167E+02 -0.15323632872E+04  0.15330054339E+04  0.00000000000E+00 0. -1.
         13    1    5    5    0    0 -0.34362344289E+02  0.10903971379E+03  0.69791083137E+01  0.11453880495E+03  0.00000000000E+00 0. -1.
        -14    1    5    5    0    0  0.22724160606E+02  0.42948824826E+01  0.13038663559E+02  0.26548827435E+02  0.00000000000E+00 0.  1.
          5    1    4    4  501    0  0.18663639127E+02 -0.40912636261E+02 -0.17295635131E+03  0.17875555121E+03  0.41800000000E+01 0. -1.
         -5    1    4    4    0  501 -0.40280866456E+02 -0.37643884184E+02 -0.80548356525E+01  0.55874529048E+02  0.41800000000E+01 0. -1.
</event>
<event>
11    1  0.8479398E-009  0.1390071E+03  0.7561462E-02  0.1108672E+00
         22   -1    0    0    0    0  0.00000000000E+00  0.00000000000E+00  0.10392756783E+04  0.10392756783E+04  0.00000000000E+00 0. -1.
         22   -1    0    0    0    0 -0.00000000000E+00 -0.00000000000E+00 -0.60710133404E+02  0.60710133404E+02  0.00000000000E+00 0. -1.
         24    2    1    2    0    0  0.22542763007E+02 -0.56239046361E+02  0.29214880532E+02  0.10681251212E+03  0.82972266456E+02 0.  0.
         25    2    1    2    0    0  0.16309228916E+02  0.68993283956E+02  0.25239594254E+03  0.29047915073E+03  0.12509340918E+03 0.  0.
        -24    2    1    2    0    0 -0.38851991923E+02 -0.12754237595E+02  0.69695472186E+03  0.70269414889E+03  0.79756095108E+02 0.  0.
        -11    1    3    3    0    0 -0.38857696513E+01 -0.52325930758E+02  0.50370268620E+02  0.72734216132E+02  0.00000000000E+00 0.  1.
         12    1    3    3    0    0  0.26428532658E+02 -0.39131156031E+01 -0.21155388088E+02  0.34078295987E+02  0.00000000000E+00 0. -1.
         11    1    5    5    0    0 -0.18825331261E+02  0.10489577930E+02  0.61182301419E+03  0.61220243795E+03  0.00000000000E+00 0. -1.
        -12    1    5    5    0    0 -0.20026660662E+02 -0.23243815524E+02  0.85131707665E+02  0.90491710932E+02  0.00000000000E+00 0.  1.
          5    1    4    4  501    0  0.36459169461E+02 -0.16543495103E+02  0.15082253065E+03  0.15610210255E+03  0.41800000000E+01 0.  1.
         -5    1    4    4    0  501 -0.20149940545E+02  0.85536779059E+02  0.10157341189E+03  0.13437704819E+03  0.41800000000E+01 0.  1.
</event>
<event>
11    1  0.8479398E-009  0.1754351E+03  0.7561462E-02  0.1073396E+00
         22   -1    0    0    0    0  0.00000000000E+00  0.00000000000E+00  0.16145488323E+03  0.16145488323E+03  0.00000000000E+00 0.  1.
         22   -1    0    0    0    0 -0.00000000000E+00 -0.00000000000E+00 -0.37478313908E+03  0.37478313908E+03  0.00000000000E+00 0.  1.
        -24    2    1    2    0    0 -0.12017585209E+03  0.92986052203E+01 -0.22099108118E+03  0.26350940869E+03  0.77919516316E+02 0.  0.
         25    2    1    2    0    0  0.13184638120E+03 -0.12054328837E+02 -0.20779195651E+02  0.18333285186E+03  0.12510149687E+03 0.  0.
         24    2    1    2    0    0 -0.11670529105E+02  0.27557236167E+01  0.28442020981E+02  0.89395761759E+02  0.83897904627E+02 0.  0.
        -13    1    5    5    0    0  0.26130514538E+02 -0.25087006746E+02  0.20972644401E+02  0.41857060463E+02  0.00000000000E+00 0.  1.
         14    1    5    5    0    0 -0.37801043642E+02  0.27842730362E+02  0.74693765801E+01  0.47538701296E+02  0.00000000000E+00 0. -1.
         13    1    3    3    0    0 -0.30659876112E+02  0.12497859240E+02 -0.10471043386E+02  0.34725599180E+02  0.00000000000E+00 0. -1.
        -14    1    3    3    0    0 -0.89515975980E+02 -0.31992540199E+01 -0.21052003780E+03  0.22878380951E+03  0.00000000000E+00 0.  1.
          5    1    4    4  501    0  0.20824982859E+01  0.39385213918E+02 -0.18253191617E+02  0.43659858895E+02  0.41800000000E+01 0. -1.
         -5    1    4    4    0  501  0.12976388291E+03 -0.51439542755E+02 -0.25260040340E+01  0.13967299296E+03  0.41800000000E+01 0. -1.
</event>
<event>
11    1  0.8479398E-009  0.1473736E+03  0.7561462E-02  0.1099593E+00
         22   -1    0    0    0    0  0.00000000000E+00  0.00000000000E+00  0.10174720130E+03  0.10174720130E+03  0.00000000000E+00 0. -1.
         22   -1    0    0    0    0 -0.00000000000E+00 -0.00000000000E+00 -0.15609340689E+04  0.15609340689E+04  0.00000000000E+00 0.  1.
         24    2    1    2    0    0  0.38977916750E+02  0.44396306467E+02 -0.97240818755E+03  0.97670647035E+03  0.69910914697E+02 0.  0.
         25    2    1    2    0    0  0.40651092448E+02 -0.29398429421E+02 -0.53847216559E+03  0.55508156862E+03  0.12508595337E+03 0.  0.
        -24    2    1    2    0    0 -0.79629009198E+02 -0.14997877046E+02  0.51693485504E+02  0.13089323126E+03  0.88854409712E+02 0.  0.
        -11    1    3    3    0    0  0.51034132334E+02  0.13498273422E+02 -0.74801175411E+03  0.74987216933E+03  0.00000000000E+00 0.  1.
         12    1    3    3    0    0 -0.12056215585E+02  0.30898033045E+02 -0.22439643343E+03  0.22683430102E+03  0.00000000000E+00 0. -1.
         13    1    5    5    0    0 -0.74517234713E+02  0.24794808190E+02  0.44074765538E+02  0.90056569664E+02  0.00000000000E+00 0. -1.
        -14    1    5    5    0    0 -0.51117744853E+01 -0.39792685236E+02  0.76187199657E+01  0.40836661600E+02  0.00000000000E+00 0.  1.
          5    1    4    4  501    0 -0.31240985974E+02  0.21051271205E+02 -0.83625089320E+02  0.91813850740E+02  0.41800000000E+01 0. -1.
         -5    1    4    4    0  501  0.71892078423E+02 -0.50449700625E+02 -0.45484707627E+03  0.46326771788E+03  0.41800000000E+01 0. -1.
</event>
<event>
11    1  0.8479398E-009  0.1958538E+03  0.7561462E-02  0.1057495E+00
         22   -1    0    0    0    0  0.00000000000E+00  0.00000000000E+00  0.46297970152E+03  0.46297970152E+03  0.00000000000E+00 0. -1.
         22   -1    0    0    0    0 -0.00000000000E+00 -0.00000000000E+00 -0.37906079149E+03  0.37906079149E+03  0.00000000000E+00 0.  1.
        -24    2    1    2    0    0  0.55871654173E+02 -0.13647353097E+03 -0.26579650187E+03  0.31346545344E+03  0.76590754638E+02 0.  0.
         25    2    1    2    0    0 -0.13771036717E+03  0.12777781451E+03  0.87325543755E+02  0.24200123838E+03  0.12509010225E+03 0.  0.
         24    2    1    2    0    0  0.81838712996E+02  0.86957164630E+01  0.26238986814E+03  0.28657380119E+03  0.80640623712E+02 0.  0.
        -11    1    5    5    0    0  0.37086721295E+02 -0.32048861272E+02  0.74512141026E+02  0.89188640339E+02  0.00000000000E+00 0.  1.
         12    1    5    5    0    0  0.44751991701E+02  0.40744577735E+02  0.18787772712E+03  0.19738516085E+03  0.00000000000E+00 0. -1.
         13    1    3    3    0    0  0.46725866199E+01  0.79204097252E+01 -0.37713133662E+01  0.99392535153E+01  0.00000000000E+00 0. -1.
        -14    1    3    3    0    0  0.51199067553E+02 -0.14439394069E+03 -0.26202518850E+03  0.30352619992E+03  0.00000000000E+00 0.  1.
          5    1    4    4  501    0 -0.48097521062E+02 -0.46453131302E+01 -0.16589168941E+02  0.51260349126E+02  0.41800000000E+01 0. -1.
         -5    1    4    4    0  501 -0.89612846106E+02  0.13242312764E+03  0.10391471270E+03  0.19074088926E+03  0.41800000000E+01 0. -1.
</event>
<event>
11    1  0.8479398E-009  0.1760398E+03  0.7561462E-02  0.1072892E+00
         22   -1    0    0    0    0  0.00000000000E+00  0.00000000000E+00  0.31962605857E+03  0.31962605857E+03  0.00000000000E+00 0.  1.
         22   -1    0    0    0    0 -0.00000000000E+00 -0.00000000000E+00 -0.24522741861E+04  0.24522741861E+04  0.00000000000E+00 0.  1.
         24    2    1    2    0    0  0.94232641644E+02 -0.94728091049E+02 -0.21188287890E+04  0.21246134425E+04  0.81814672665E+02 0.  0.
         25    2    1    2    0    0 -0.83689828198E+02  0.41728339892E+01 -0.30021102630E+03  0.33585113771E+03  0.12509167240E+03 0.  0.
        -24    2    1    2    0    0 -0.10542813446E+02  0.90555257060E+02  0.28639168779E+03  0.31143566450E+03  0.81612307820E+02 0.  0.
        -13    1    3    3    0    0  0.58047332561E+02 -0.10417895243E+03 -0.16258409994E+04  0.16302090977E+04  0.00000000000E+00 0.  1.
         14    1    3    3    0    0  0.36185309083E+02  0.94508613852E+01 -0.49298778962E+03  0.49440434473E+03  0.00000000000E+00 0. -1.
         11    1    5    5    0    0  0.63627302847E+01 -0.12207537395E+02  0.69325779746E+02  0.70679360802E+02  0.00000000000E+00 0. -1.
        -12    1    5    5    0    0 -0.16905543731E+02  0.10276279446E+03  0.21706590805E+03  0.24075630370E+03  0.00000000000E+00 0.  1.
          5    1    4    4  501    0  0.10947134091E+02 -0.42204724870E+02 -0.69142891112E+02  0.81849192650E+02  0.41800000000E+01 0.  1.
         -5    1    4    4    0  501 -0.94636962288E+02  0.46377558859E+02 -0.23106813519E+03  0.25400194506E+03  0.41800000000E+01 0.  1.
</event>
<event>
11    1  0.8479398E-009  0.1669220E+03  0.7561462E-02  0.1080742E+00
         22   -1    0    0    0    0  0.00000000000E+00  0.00000000000E+00  0.61967696850E+03  0.61967696850E+03  0.00000000000E+00 0. -1.
         22   -1    0    0    0    0 -0.00000000000E+00 -0.00000000000E+00 -0.20775688609E+04  0.20775688609E+04  0.00000000000E+00 0. -1.
         24    2    1    2    0    0  0.10433140781E+02  0.10947435648E+03 -0.18947878813E+04  0.18996678917E+04  0.80146731892E+02 0.  0.
         25    2    1    2    0    0 -0.58374297245E+02 -0.11511458273E+03 -0.13066948769E+03  0.22222473827E+03  0.12510153297E+03 0.  0.
        -24    2    1    2    0    0  0.47941156465E+02  0.56402262576E+01  0.56756547656E+03  0.57535319943E+03  0.81059035763E+02 0.  0.
        -11    1    3    3    0    0 -0.23370063489E+01  0.59147090433E+02 -0.15362462552E+04  0.15373862223E+04  0.00000000000E+00 0.  1.
         12    1    3    3    0    0  0.12770147130E+02  0.50327266043E+02 -0.35854162615E+03  0.36228166949E+03  0.00000000000E+00 0. -1.
         13    1    5    5    0    0  0.16239514441E+01 -0.24130360454E+02  0.35328814092E+03  0.35411498419E+03  0.00000000000E+00 0. -1.
        -14    1    5    5    0    0  0.46317205020E+02  0.29770586712E+02  0.21427733563E+03  0.22123821524E+03  0.00000000000E+00 0.  1.
          5    1    4    4  501    0 -0.74172926905E+02 -0.13021024758E+03 -0.13226581628E+03  0.19992010958E+03  0.41800000000E+01 0.  1.
         -5    1    4    4    0  501  0.15798629660E+02  0.15095664842E+02  0.15963285894E+01  0.22304628693E+02  0.41800000000E+01 0.  1.
</event>
<event>
11    1  0.8479398E-009  0.1736137E+03  0.7561462E-02  0.1074929E+00
         22   -1    0    0    0    0  0.00000000000E+00  0.00000000000E+00  0.56440600804E+03  0.56440600804E+03  0.00000000000E+00 0. -1.
         22   -1    0    0    0    0 -0.00000000000E+00 -0.00000000000E+00 -0.27973189337E+03  0.27973189337E+03  0.00000000000E+00 0. -1.
        -24    2    1    2    0    0  0.96910685942E+02 -0.20149637686E+02 -0.17585195721E+03  0.21718295944E+03  0.80292204271E+02 0.  0.
         25    2    1    2    0    0 -0.19638451648E+03  0.54325463510E+02  0.13284686466E+03  0.27352105026E+03  0.12508933282E+03 0.  0.
         24    2    1    2    0    0  0.99473830542E+02 -0.34175825825E+02  0.32767920722E+03  0.35343389171E+03  0.80491135736E+02 0.  0.
        -11    1    5    5    0    0  0.44937539107E+02  0.23703939844E+02  0.15958133800E+03  0.16747376697E+03  0.00000000000E+00 0.  1.
         12    1    5    5    0    0  0.54536291436E+02 -0.57879765669E+02  0.16809786922E+03  0.18596012474E+03  0.00000000000E+00 0. -1.
         11    1    3    3    0    0  0.32610877856E+02 -0.47467472881E+02 -0.80003100606E+02  0.98575486013E+02  0.00000000000E+00 0. -1.
        -12    1    3    3    0    0  0.64299808086E+02  0.27317835195E+02 -0.95848856604E+02  0.11860747342E+03  0.00000000000E+00 0.  1.
          5    1    4    4  501    0 -0.60611338206E+02  0.48860917234E+02 -0.72555887024E+01  0.78302231894E+02  0.41800000000E+01 0. -1.
         -5    1    4    4    0  501 -0.13577317828E+03  0.54645462762E+01  0.14010245336E+03  0.19521881836E+03  0.41800000000E+01 0. -1.
</event>
<event>
11    1  0.8479398E-009  0.1427680E+03  0.7561462E-02  0.1104506E+00
         22   -1    0    0    0    0  0.00000000000E+00  0.00000000000E+00  0.67817346324E+02  0.67817346324E+02  0.00000000000E+00 0. -1.
         22   -1    0    0    0    0 -0.00000000000E+00 -0.00000000000E+00 -0.81650956326E+03  0.81650956326E+03  0.00000000000E+00 0. -1.
         24    2    1    2    0    0  0.47881926515E+02 -0.22757457047E+02 -0.39001700430E+03  0.40157936691E+03  0.79637576204E+02 0.  0.
         25    2    1    2    0    0 -0.10105786451E+03  0.53751409918E+02 -0.34311037090E+03  0.38272001301E+03  0.12509186902E+03 0.  0.
        -24    2    1    2    0    0  0.53175937995E+02 -0.30993952871E+02 -0.15564841730E+02  0.10002752966E+03  0.77297715976E+02 0.  0.
        -11    1    3    3    0    0  0.44439149695E+02  0.59798685761E+01 -0.93958996132E+02  0.10410998899E+03  0.00000000000E+00 0.  1.
         12    1    3    3    0    0  0.34427768201E+01 -0.28737325623E+02 -0.29605800817E+03  0.29746937792E+03  0.00000000000E+00 0. -1.
         13    1    5    5    0    0  0.11959311427E+02 -0.49661321166E+02  0.28878166343E+01  0.51162598006E+02  0.00000000000E+00 0. -1.
        -14    1    5    5    0    0  0.41216626568E+02  0.18667368295E+02 -0.18452658365E+02  0.48864931652E+02  0.00000000000E+00 0.  1.
          5    1    4    4  501    0 -0.31878046104E+02 -0.24141306474E+02 -0.23581265561E+02  0.46610738968E+02  0.41800000000E+01 0.  1.
         -5    1    4    4    0  501 -0.69179818406E+02  0.77892716392E+02 -0.31952910534E+03  0.33610927405E+03  0.41800000000E+01 0.  1.
</event>
<event>
11    1  0.8479398E-009  0.1889284E+03  0.7561462E-02  0.1062641E+00
         22   -1    0    0    0    0  0.00000000000E+00  0.00000000000E+00  0.20188086583E+03  0.20188086583E+03  0.00000000000E+00 0.  1.
         22   -1    0    0    0    0 -0.00000000000E+00 -0.00000000000E+00 -0.97104700409E+03  0.97104700409E+03  0.00000000000E+00 0. -1.
         24    2    1    2    0    0 -0.51401070265E+02 -0.40430303897E+01 -0.67296402158E+03  0.67975734565E+03  0.80814964634E+02 0.  0.
         25    2    1    2    0    0  0.18556696645E+03 -0.54367307819E+01 -0.20437906622E+03  0.30312113290E+03  0.12508781484E+03 0.  0.
        -24    2    1    2    0    0 -0.13416589619E+03  0.94797611716E+01  0.10817694954E+03  0.19004939137E+03  0.79537193656E+02 0.  0.
        -13    1    3    3    0    0  0.17008781381E+02 -0.14245927965E+02 -0.89544950988E+02  0.92252606224E+02  0.00000000000E+00 0.  1.
         14    1    3    3    0    0 -0.68409851646E+02  0.10202897576E+02 -0.58341907059E+03  0.58750473942E+03  0.00000000000E+00 0. -1.
         11    1    5    5    0    0 -0.33212746674E+02  0.30725261658E+02  0.74283267555E+01  0.45850935476E+02  0.00000000000E+00 0. -1.
        -12    1    5    5    0    0 -0.10095314951E+03 -0.21245500487E+02  0.10074862279E+03  0.14419845589E+03  0.00000000000E+00 0.  1.
          5    1    4    4  501    0  0.17295656828E+03 -0.11772958728E+02 -0.22100568303E+03  0.28091557700E+03  0.41800000000E+01 0.  1.
         -5    1    4    4    0  501  0.12610398174E+02  0.63362279458E+01  0.16626616807E+02  0.22205555907E+02  0.41800000000E+01 0.  1.
</event>
<event>
11    1  0.8479398E-009  0.1385106E+03  0.7561462E-02  0.1109233E+00
         22   -1    0    0    0    0  0.00000000000E+00  0.00000000000E+00  0.27931275451E+03  0.27931275451E+03  0.00000000000E+00 0.  1.
         22   -1    0    0    0    0 -0.00000000000E+00 -0.00000000000E+00 -0.21250926932E+03  0.21250926932E+03  0.00000000000E+00 0.  1.
         24    2    1    2    0    0  0.22453473361E+02  0.79342162507E+02 -0.10080282488E+03  0.15364954693E+03  0.81533039625E+02 0.  0.
         25    2    1    2    0    0  0.33178588461E+02 -0.29795389181E+02  0.12163132952E+01  0.13280751419E+03  0.12509105667E+03 0.  0.
        -24    2    1    2    0    0 -0.55632061822E+02 -0.49546773326E+02  0.16638999677E+03  0.20536496271E+03  0.94548018672E+02 0.  0.
        -13    1    3    3    0    0  0.24850017087E+02  0.31319014597E+01 -0.64516199487E+02  0.69207457345E+02  0.00000000000E+00 0.  1.
         14    1    3    3    0    0 -0.23965437257E+01  0.76210261047E+02 -0.36286625389E+02  0.84442089581E+02  0.00000000000E+00 0. -1.
         13    1    5    5    0    0 -0.28437556520E+02  0.11480006798E+02  0.55032835590E+01  0.31157203129E+02  0.00000000000E+00 0. -1.
        -14    1    5    5    0    0 -0.27194505303E+02 -0.61026780124E+02  0.16088671321E+03  0.17420775958E+03  0.00000000000E+00 0.  1.
          5    1    4    4  501    0 -0.23595144590E+02  0.36905306209E+02  0.84954063252E+01  0.44814917196E+02  0.41800000000E+01 0.  1.
         -5    1    4    4    0  501  0.56773733051E+02 -0.66700695390E+02 -0.72790930300E+01  0.87992596992E+02  0.41800000000E+01 0.  1.
</event>
<event>
11    1  0.8479398E-009  0.2425883E+03  0.7561462E-02  0.1027923E+00
         22   -1    0    0    0    0  0.00000000000E+00  0.00000000000E+00  0.63731859724E+03  0.63731859724E+03  0.00000000000E+00 0. -1.
         22   -1    0    0    0    0 -0.00000000000E+00 -0.00000000000E+00 -0.42012980492E+03  0.42012980492E+03  0.00000000000E+00 0.  1.
         24    2    1    2    0    0 -0.10629524996E+03  0.17159510117E+03 -0.28468912052E+03  0.35836941994E+03  0.81468932109E+02 0.  0.
         25    2    1    2    0    0  0.10339472453E+03 -0.21846308703E+03  0.10668992764E+03  0.29230144548E+03  0.12506320368E+03 0.  0.
        -24    2    1    2    0    0  0.29005254334E+01  0.46867985867E+02  0.39518798518E+03  0.40677753674E+03  0.84198572513E+02 0.  0.
        -13    1    3    3    0    0 -0.10163185389E+03  0.16690981521E+03 -0.29013206750E+03  0.34980642751E+03  0.00000000000E+00 0.  1.
         14    1    3    3    0    0 -0.46633960721E+01  0.46852859581E+01  0.54429469835E+01  0.85629924267E+01  0.00000000000E+00 0. -1.
         11    1    5    5    0    0  0.38856793065E+02  0.21835708949E+01  0.14930357839E+03  0.15429250426E+03  0.00000000000E+00 0. -1.
        -12    1    5    5    0    0 -0.35956267631E+02  0.44684414972E+02  0.24588440679E+03  0.25248503248E+03  0.00000000000E+00 0.  1.
          5    1    4    4  501    0 -0.35534961304E+01 -0.21900091017E+02 -0.24141957162E+02  0.33053711092E+02  0.41800000000E+01 0.  1.
         -5    1    4    4    0  501  0.10694822066E+03 -0.19656299602E+03  0.13083188481E+03  0.25924773439E+03  0.41800000000E+01 0.  1.
</event>
<event>
11    1  0.8479398E-009  0.1458248E+03  0.7561462E-02  0.1101223E+00
         22   -1    0    0    0    0  0.00000000000E+00  0.00000000000E+00  0.16061394199E+03  0.16061394199E+03  0.00000000000E+00 0. -1.
         22   -1    0    0    0    0 -0.00000000000E+00 -0.00000000000E+00 -0.24378273979E+04  0.24378273979E+04  0.00000000000E+00 0. -1.
         24    2    1    2    0    0 -0.44635308598E+02  0.48804194636E+02 -0.14557360302E+04  0.14603176928E+04  0.94795643004E+02 0.  0.
         25    2    1    2    0    0  0.32788673872E+02 -0.10412432884E+03 -0.95670056977E+03  0.97100028869E+03  0.12509439411E+03 0.  0.
        -24    2    1    2    0    0  0.11846634726E+02  0.55320134202E+02  0.13522314408E+03  0.16712335844E+03  0.80276137422E+02 0.  0.
        -13    1    3    3    0    0 -0.41523350274E+02  0.29031753446E+01 -0.23116041693E+03  0.23487817140E+03  0.00000000000E+00 0.  1.
         14    1    3    3    0    0 -0.31119583236E+01  0.45901019291E+02 -0.12245756133E+04  0.12254395214E+04  0.00000000000E+00 0. -1.
         13    1    5    5    0    0 -0.22674404704E+02  0.56436712116E+02  0.10443032373E+03  0.12085083210E+03  0.00000000000E+00 0. -1.
        -14    1    5    5    0    0  0.34521039430E+02 -0.11165779142E+01  0.30792820348E+02  0.46272526347E+02  0.00000000000E+00 0.  1.
          5    1    4    4  501    0  0.56633510740E+02 -0.51684232608E+02 -0.24018408348E+03  0.25215963355E+03  0.41800000000E+01 0.  1.
         -5    1    4    4    0  501 -0.23844836868E+02 -0.52440096230E+02 -0.71651648630E+03  0.71884065513E+03  0.41800000000E+01 0.  1.
</event>
<event>
11    1  0.8479398E-009  0.1465739E+03  0.7561462E-02  0.1100432E+00
         22   -1    0    0    0    0  0.00000000000E+00  0.00000000000E+00  0.19272744958E+03  0.19272744958E+03  0.00000000000E+00 0. -1.
         22   -1    0    0    0    0 -0.00000000000E+00 -0.00000000000E+00 -0.15397780403E+04  0.15397780403E+04  0.00000000000E+00 0. -1.
        -24    2    1    2    0    0 -0.79221608809E+01  0.48845187959E+02 -0.12938095944E+04  0.12972052002E+04  0.79683447420E+02 0.  0.
         25    2    1    2    0    0 -0.58009614441E+02 -0.56653666483E+01 -0.20530613672E+03  0.24737292681E+03  0.12508214660E+03 0.  0.
         24    2    1    2    0    0  0.65931775322E+02 -0.43179821310E+02  0.15206514041E+03  0.18792736287E+03  0.77339451902E+02 0.  0.
        -13    1    5    5    0    0 -0.17479225835E+02 -0.12728744267E+02  0.30331217064E+02  0.37249523419E+02  0.00000000000E+00 0.  1.
         14    1    5    5    0    0  0.83411001157E+02 -0.30451077044E+02  0.12173392335E+03  0.15067783945E+03  0.00000000000E+00 0. -1.
         13    1    3    3    0    0  0.28657717716E+02  0.47235025476E+02 -0.90118686892E+03  0.90287883192E+03  0.00000000000E+00 0. -1.
        -14    1    3    3    0    0 -0.36579878597E+02  0.16101624827E+01 -0.39262272549E+03  0.39432636827E+03  0.00000000000E+00 0.  1.
          5    1    4    4  501    0 -0.79567363031E+02 -0.35340736559E+02 -0.18667404895E+03  0.20602088698E+03  0.41800000000E+01 0. -1.
         -5    1    4    4    0  501  0.21557748590E+02  0.29675369910E+02 -0.18632087762E+02  0.41352039828E+02  0.41800000000E+01 0. -1.
</event>
<event>
11    1  0.8479398E-009  0.1402918E+03  0.7561462E-02  0.1107233E+00
         22   -1    0    0    0    0  0.00000000000E+00  0.00000000000E+00  0.23761235262E+03  0.23761235262E+03  0.00000000000E+00 0.  1.
         22   -1    0    0    0    0 -0.00000000000E+00 -0.00000000000E+00 -0.68306644802E+03  0.68306644802E+03  0.00000000000E+00 0.  1.
         24    2    1    2    0    0 -0.56625133659E+02 -0.16051866525E+02 -0.50709911357E+03  0.51737820512E+03  0.84063237907E+02 0.  0.
         25    2    1    2    0    0  0.90526282039E+02  0.48726196986E+02 -0.11858126208E+03  0.20069175712E+03  0.12508563326E+03 0.  0.
        -24    2    1    2    0    0 -0.33901148380E+02 -0.32674330461E+02  0.18022628026E+03  0.20260883839E+03  0.79698993504E+02 0.  0.
        -13    1    3    3    0    0 -0.51021554307E+01  0.22340265790E+02 -0.29172685992E+03  0.29262549489E+03  0.00000000000E+00 0.  1.
         14    1    3    3    0    0 -0.51522978228E+02 -0.38392132315E+02 -0.21537225366E+03  0.22475271023E+03  0.00000000000E+00 0. -1.
         13    1    5    5    0    0 -0.39563927800E+02 -0.44681351488E+02  0.71763417256E+02  0.93336571664E+02  0.00000000000E+00 0. -1.
        -14    1    5    5    0    0  0.56627794204E+01  0.12007021027E+02  0.10846286300E+03  0.10927226673E+03  0.00000000000E+00 0.  1.
          5    1    4    4  501    0  0.40009641235E+01 -0.29661030229E+02  0.49989419154E+01  0.30630805547E+02  0.41800000000E+01 0.  1.
         -5    1    4    4    0  501  0.86525317916E+02  0.78387227216E+02 -0.12358020400E+03  0.17006095158E+03  0.41800000000E+01 0.  1.
</event>
<event>
11    1  0.8479398E-009  0.1377462E+03  0.7561462E-02  0.1110102E+00
         22   -1    0    0    0    0  0.00000000000E+00  0.00000000000E+00  0.12592226140E+03  0.12592226140E+03  0.00000000000E+00 0.  1.
         22   -1    0    0    0    0 -0.00000000000E+00 -0.00000000000E+00 -0.76914739098E+03  0.76914739098E+03  0.00000000000E+00 0.  1.
        -24    2    1    2    0    0  0.59114816839E+02 -0.16753590622E+02 -0.52792211916E+03  0.53745420645E+03  0.79875000838E+02 0.  0.
         25    2    1    2    0    0 -0.47542553754E+02 -0.42581360315E+02 -0.18658553295E+03  0.23352681934E+03  0.12508855894E+03 0.  0.
         24    2    1    2    0    0 -0.11572263085E+02  0.59334950937E+02  0.71282522532E+02  0.12408862660E+03  0.81622518692E+02 0.  0.
        -11    1    5    5    0    0  0.48477828127E+01 -0.13900470830E+02  0.40276438540E+02  0.42882579085E+02  0.00000000000E+00 0.  1.
         12    1    5    5    0    0 -0.16420045897E+02  0.73235421767E+02  0.31006083992E+02  0.81206047516E+02  0.00000000000E+00 0. -1.
         13    1    3    3    0    0  0.32737131129E+02  0.10702915454E+01 -0.59241052749E+02  0.67693187319E+02  0.00000000000E+00 0. -1.
        -14    1    3    3    0    0  0.26377685710E+02 -0.17823882167E+02 -0.46868106641E+03  0.46976101913E+03  0.00000000000E+00 0.  1.
          5    1    4    4  501    0  0.82010458598E+01 -0.11570821566E+02 -0.16557962807E+03  0.16623846335E+03  0.41800000000E+01 0. -1.
         -5    1    4    4    0  501 -0.55743599614E+02 -0.31010538749E+02 -0.21005904885E+02  0.67288355987E+02  0.41800000000E+01 0. -1.
</event>
<event>
11    1  0.8479398E-009  0.2480070E+03  0.7561462E-02  0.1024966E+00
         22   -1    0    0    0    0  0.00000000000E+00  0.00000000000E+00  0.99883278204E+03  0.99883278204E+03  0.00000000000E+00 0. -1.
         22   -1    0    0    0    0 -0.00000000000E+00 -0.00000000000E+00 -0.24015664322E+03  0.24015664322E+03  0.00000000000E+00 0.  1.
        -24    2    1    2    0    0 -0.34792436755E+02 -0.54879590489E+02 -0.15064819950E+03  0.18405547899E+03  0.83422156681E+02 0.  0.
         25    2    1    2    0    0  0.23951192818E+03  0.49323078637E+02  0.29940217515E+03  0.40630522059E+03  0.12507413788E+03 0.  0.
         24    2    1    2    0    0 -0.20471949142E+03  0.55565118528E+01  0.60992216317E+03  0.64862872569E+03  0.82299657767E+02 0.  0.
        -11    1    5    5    0    0 -0.86986578702E+02  0.42956390627E+02  0.25581725372E+03  0.27359529176E+03  0.00000000000E+00 0.  1.
         12    1    5    5    0    0 -0.11773291272E+03 -0.37399878775E+02  0.35410490945E+03  0.37503343393E+03  0.00000000000E+00 0. -1.
         13    1    3    3    0    0 -0.33600800688E+02 -0.55670305785E+00 -0.12932159995E+02  0.36007839248E+02  0.00000000000E+00 0. -1.
        -14    1    3    3    0    0 -0.11916360664E+01 -0.54322887432E+02 -0.13771603951E+03  0.14804763974E+03  0.00000000000E+00 0.  1.
          5    1    4    4  501    0 -0.47362214024E+01  0.46956090019E+01  0.62856361538E+02  0.63347258211E+02  0.41800000000E+01 0. -1.
         -5    1    4    4    0  501  0.24424814958E+03  0.44627469635E+02  0.23654581362E+03  0.34295796238E+03  0.41800000000E+01 0. -1.
</event>
<event>
11    1  0.8479398E-009  0.2049551E+03  0.7561462E-02  0.1051074E+00
         22   -1    0    0    0    0  0.00000000000E+00  0.00000000000E+00  0.12376044500E+04  0.12376044500E+04  0.00000000000E+00 0. -1.
         22   -1    0    0    0    0 -0.00000000000E+00 -0.00000000000E+00 -0.30138915293E+03  0.30138915293E+03  0.00000000000E+00 0.  1.
        -24    2    1    2    0    0 -0.11314749875E+03 -0.35135627345E+02 -0.20468836605E+03  0.24961270189E+03  0.79826718382E+02 0.  0.
         25    2    1    2    0    0  0.58151643271E+02 -0.12561152727E+03  0.66330340502E+02  0.19801046594E+03  0.12509420911E+03 0.  0.
         24    2    1    2    0    0  0.54995855477E+02  0.16074715462E+03  0.10745733226E+04  0.10913704351E+04  0.86702993667E+02 0.  0.
        -13    1    5    5    0    0 -0.51161246771E+01 -0.90606269759E+01  0.48270367344E+02  0.49379125715E+02  0.00000000000E+00 0.  1.
         14    1    5    5    0    0  0.60111980155E+02  0.16980778159E+03  0.10263029553E+04  0.10419913094E+04  0.00000000000E+00 0. -1.
         11    1    3    3    0    0 -0.18220932644E+02 -0.36966291495E+02 -0.30649460168E+02  0.51360476068E+02  0.00000000000E+00 0. -1.
        -12    1    3    3    0    0 -0.94926566104E+02  0.18306641507E+01 -0.17403890588E+03  0.19825222582E+03  0.00000000000E+00 0.  1.
          5    1    4    4  501    0  0.97497082796E+02 -0.97493691923E+02  0.51708988362E+02  0.14731596314E+03  0.41800000000E+01 0.  1.
         -5    1    4    4    0  501 -0.39345439525E+02 -0.28117835348E+02  0.14621352140E+02  0.50694502803E+02  0.41800000000E+01 0.  1.
</event>
<event>
11    1  0.8479398E-009  0.3411397E+03  0.7561462E-02  0.9841418E-01
         22   -1    0    0    0    0  0.00000000000E+00  0.00000000000E+00  0.66923575935E+03  0.66923575935E+03  0.00000000000E+00 0.  1.
         22   -1    0    0    0    0 -0.00000000000E+00 -0.00000000000E+00 -0.31797039649E+04  0.31797039649E+04  0.00000000000E+00 0.  1.
        -24    2    1    2    0    0  0.31132908604E+03 -0.64469727291E+02 -0.29939551445E+04  0.30118223635E+04  0.78894842380E+02 0.  0.
         25    2    1    2    0    0 -0.30897131829E+03  0.22802330182E+02 -0.11143907833E+02  0.33429799991E+03  0.12509094401E+03 0.  0.
         24    2    1    2    0    0 -0.23577677511E+01  0.41667397109E+02  0.49463084682E+03  0.50281936085E+03  0.80161736324E+02 0.  0.
        -13    1    5    5    0    0 -0.14350084751E+02 -0.15498771795E+02  0.26627896806E+03  0.26711537898E+03  0.00000000000E+00 0.  1.
         14    1    5    5    0    0  0.11992317000E+02  0.57166168904E+02  0.22835187876E+03  0.23570398187E+03  0.00000000000E+00 0. -1.
         13    1    3    3    0    0  0.47671461251E+02  0.78028372151E+01 -0.69339302330E+03  0.69507362002E+03  0.00000000000E+00 0. -1.
        -14    1    3    3    0    0  0.26365762479E+03 -0.72272564506E+02 -0.23005621213E+04  0.23167487435E+04  0.00000000000E+00 0.  1.
          5    1    4    4  501    0 -0.18800611921E+03  0.60648243651E+02  0.32369326970E+02  0.20022426438E+03  0.41800000000E+01 0. -1.
         -5    1    4    4    0  501 -0.12096519908E+03 -0.37845913469E+02 -0.43513234803E+02  0.13407373553E+03  0.41800000000E+01 0. -1.
</event>
<event>
11    1  0.8479398E-009  0.1418481E+03  0.7561462E-02  0.1105512E+00
         22   -1    0    0    0    0  0.00000000000E+00  0.00000000000E+00  0.14176388111E+04  0.14176388111E+04  0.00000000000E+00 0. -1.
         22   -1    0    0    0    0 -0.00000000000E+00 -0.00000000000E+00 -0.16673957211E+03  0.16673957211E+03  0.00000000000E+00 0. -1.
         24    2    1    2    0    0  0.18013181892E+02  0.16362653438E+01 -0.12577589649E+03  0.15052134088E+03  0.80684235372E+02 0.  0.
         25    2    1    2    0    0 -0.35100776771E+02  0.62759330502E+02  0.17151940955E+03  0.22413705876E+03  0.12509082765E+03 0.  0.
        -24    2    1    2    0    0  0.17087594879E+02 -0.64395595846E+02  0.12051557259E+04  0.12097199836E+04  0.81137761032E+02 0.  0.
        -11    1    3    3    0    0 -0.11484259187E+02 -0.22019379133E+02 -0.68971976005E+01  0.25774262380E+02  0.00000000000E+00 0.  1.
         12    1    3    3    0    0  0.29497441079E+02  0.23655644477E+02 -0.11887869889E+03  0.12474707850E+03  0.00000000000E+00 0. -1.
         13    1    5    5    0    0 -0.16376700152E+02 -0.88951877297E+01  0.72159747534E+03  0.72183809617E+03  0.00000000000E+00 0. -1.
        -14    1    5    5    0    0  0.33464295031E+02 -0.55500408116E+02  0.48355825057E+03  0.48788188739E+03  0.00000000000E+00 0.  1.
          5    1    4    4  501    0 -0.35305906023E+02  0.86387518016E+02  0.17643766814E+03  0.19964226358E+03  0.41800000000E+01 0. -1.
         -5    1    4    4    0  501  0.20512925178E+00 -0.23628187514E+02 -0.49182585903E+01  0.24494795177E+02  0.41800000000E+01 0. -1.
</event>
<event>
11    1  0.8479398E-009  0.1307719E+03  0.7561462E-02  0.1118324E+00
         22   -1    0    0    0    0  0.00000000000E+00  0.00000000000E+00  0.11695908651E+04  0.11695908651E+04  0.00000000000E+00 0. -1.
         22   -1    0    0    0    0 -0.00000000000E+00 -0.00000000000E+00 -0.24999016296E+03  0.24999016296E+03  0.00000000000E+00 0. -1.
        -24    2    1    2    0    0 -0.31730159203E+02 -0.23684182882E+02 -0.21852874282E+03  0.23618412804E+03  0.80376534998E+02 0.  0.
         25    2    1    2    0    0 -0.46113535931E+01  0.16486420332E+02  0.17178831666E+03  0.21319306881E+03  0.12508793791E+03 0.  0.
         24    2    1    2    0    0  0.36341512796E+02  0.71977625492E+01  0.96634112828E+03  0.97020383120E+03  0.78152316279E+02 0.  0.
        -11    1    5    5    0    0 -0.21442666175E+02 -0.99051438264E+01  0.39170578842E+03  0.39241728363E+03  0.00000000000E+00 0.  1.
         12    1    5    5    0    0  0.57784178971E+02  0.17102906376E+02  0.57463533986E+03  0.57778654757E+03  0.00000000000E+00 0. -1.
         13    1    3    3    0    0 -0.51385765177E+01 -0.31695782862E+02 -0.20054135688E+03  0.20309570020E+03  0.00000000000E+00 0. -1.
        -14    1    3    3    0    0 -0.26591582685E+02  0.80115999805E+01 -0.17987385933E+02  0.33088427836E+02  0.00000000000E+00 0.  1.
          5    1    4    4  501    0 -0.30582867947E+02  0.21312347199E+02  0.18104633899E+03  0.18489125782E+03  0.41800000000E+01 0. -1.
         -5    1    4    4    0  501  0.25971514354E+02 -0.48259268663E+01 -0.92580223307E+01  0.28301810992E+02  0.41800000000E+01 0. -1.
</event>
<event>
11    1  0.8479398E-009  0.2293001E+03  0.7561462E-02  0.1035543E+00
         22   -1    0    0    0    0  0.00000000000E+00  0.00000000000E+00  0.72529703808E+03  0.72529703808E+03  0.00000000000E+00 0. -1.
         22   -1    0    0    0    0 -0.00000000000E+00 -0.00000000000E+00 -0.18001090382E+04  0.18001090382E+04  0.00000000000E+00 0.  1.
         24    2    1    2    0    0 -0.13545794310E+03 -0.13869561472E+03 -0.16025162595E+04  0.16162023267E+04  0.80413125610E+02 0.  0.
         25    2    1    2    0    0  0.71463662564E+02  0.17357323705E+03 -0.11784061241E+03  0.25449531642E+03  0.12508689963E+03 0.  0.
        -24    2    1    2    0    0  0.63994280535E+02 -0.34877622329E+02  0.64554487181E+03  0.65470843320E+03  0.81260288530E+02 0.  0.
        -11    1    3    3    0    0 -0.12919402637E+03 -0.14527924928E+03 -0.15800798089E+04  0.15919954017E+04  0.00000000000E+00 0.  1.
         12    1    3    3    0    0 -0.62639167314E+01  0.65836345567E+01 -0.22436450660E+02  0.24206924939E+02  0.00000000000E+00 0. -1.
         13    1    5    5    0    0  0.35279569142E+02 -0.13880175563E+02  0.56943548597E+03  0.57069613627E+03  0.00000000000E+00 0. -1.
        -14    1    5    5    0    0  0.28714711393E+02 -0.20997446766E+02  0.76109385842E+02  0.84012296923E+02  0.00000000000E+00 0.  1.
          5    1    4    4  501    0  0.53537162758E+02  0.90456680711E+02  0.46833152856E+01  0.10529978501E+03  0.41800000000E+01 0.  1.
         -5    1    4    4    0  501  0.17926499806E+02  0.83116556341E+02 -0.12252392770E+03  0.14919553141E+03  0.41800000000E+01 0.  1.
</event>
<event>
11    1  0.8479398E-009  0.1297760E+03  0.7561462E-02  0.1119545E+00
         22   -1    0    0    0    0  0.00000000000E+00  0.00000000000E+00  0.28279832505E+03  0.28279832505E+03  0.00000000000E+00 0. -1.
         22   -1    0    0    0    0 -0.00000000000E+00 -0.00000000000E+00 -0.21463879739E+04  0.21463879739E+04  0.00000000000E+00 0.  1.
         24    2    1    2    0    0  0.34548895346E+02  0.23400380396E+01 -0.20666147478E+04  0.20684792456E+04  0.80689353186E+02 0.  0.
         25    2    1    2    0    0 -0.29662443769E+02 -0.97618079612E+01 -0.13002746699E+02  0.12958271040E+03  0.12508978355E+03 0.  0.
        -24    2    1    2    0    0 -0.48864515774E+01  0.74217699216E+01  0.21602784566E+03  0.23112434294E+03  0.81679077646E+02 0.  0.
        -11    1    3    3    0    0  0.46573360676E+01 -0.28736860692E+02 -0.31718071887E+03  0.31851390294E+03  0.00000000000E+00 0.  1.
         12    1    3    3    0    0  0.29891559278E+02  0.31076898732E+02 -0.17494340290E+04  0.17499653427E+04  0.00000000000E+00 0. -1.
         11    1    5    5    0    0  0.49331499140E+01 -0.34345096520E+02  0.13558655773E+03  0.13995583682E+03  0.00000000000E+00 0. -1.
        -12    1    5    5    0    0 -0.98196014914E+01  0.41766866441E+02  0.80441287929E+02  0.91168506127E+02  0.00000000000E+00 0.  1.
          5    1    4    4  501    0  0.58471434216E+01 -0.63720673964E+02 -0.42759451023E+01  0.64267172671E+02  0.41800000000E+01 0.  1.
         -5    1    4    4    0  501 -0.35509587190E+02  0.53958866003E+02 -0.87268015968E+01  0.65315537729E+02  0.41800000000E+01 0.  1.
</event>
<event>
11    1  0.8479398E-009  0.1995055E+03  0.7561462E-02  0.1054874E+00
         22   -1    0    0    0    0  0.00000000000E+00  0.00000000000E+00  0.67027327423E+02  0.67027327423E+02  0.00000000000E+00 0. -1.
         22   -1    0    0    0    0 -0.00000000000E+00 -0.00000000000E+00 -0.14875598298E+04  0.14875598298E+04  0.00000000000E+00 0. -1.
        -24    2    1    2    0    0  0.78572362377E+02 -0.13877592303E+03 -0.61092533614E+03  0.63685829229E+03  0.83224666862E+02 0.  0.
         25    2    1    2    0    0 -0.96535444175E+02  0.11840700212E+03 -0.80928197148E+03  0.83302070018E+03  0.12508743913E+03 0.  0.
         24    2    1    2    0    0  0.17963081798E+02  0.20368920912E+02 -0.32519474133E+00  0.84708164743E+02  0.80235915746E+02 0.  0.
        -13    1    5    5    0    0 -0.26191178037E+02 -0.12901830713E+02  0.28226990694E+01  0.29332621307E+02  0.00000000000E+00 0.  1.
         14    1    5    5    0    0  0.44154259835E+02  0.33270751625E+02 -0.31478938108E+01  0.55375543435E+02  0.00000000000E+00 0. -1.
         13    1    3    3    0    0  0.80000636163E+02 -0.64544298433E+02 -0.40889743751E+03  0.42161971331E+03  0.00000000000E+00 0. -1.
        -14    1    3    3    0    0 -0.14282737857E+01 -0.74231624599E+02 -0.20202789863E+03  0.21523857898E+03  0.00000000000E+00 0.  1.
          5    1    4    4  501    0 -0.22651086156E+02  0.27739101921E+01 -0.16572644744E+02  0.28511247528E+02  0.41800000000E+01 0. -1.
         -5    1    4    4    0  501 -0.73884358019E+02  0.11563309193E+03 -0.79270932674E+03  0.80450945265E+03  0.41800000000E+01 0. -1.
</event>
<event>
11    1  0.8479398E-009  0.1265436E+03  0.7561462E-02  0.1123590E+00
         22   -1    0    0    0    0  0.00000000000E+00  0.00000000000E+00  0.38843008650E+03  0.38843008650E+03  0.00000000000E+00 0. -1.
         22   -1    0    0    0    0 -0.00000000000E+00 -0.00000000000E+00 -0.39043023396E+03  0.39043023396E+03  0.00000000000E+00 0. -1.
         24    2    1    2    0    0  0.13952500290E+02  0.13032587759E+02 -0.32515705177E+03  0.33541026375E+03  0.80052583369E+02 0.  0.
         25    2    1    2    0    0 -0.14394655260E+02 -0.13532711897E+02  0.18206525035E+02  0.12794110409E+03  0.12508840142E+03 0.  0.
        -24    2    1    2    0    0  0.44215497006E+00  0.50012413747E+00  0.30495037928E+03  0.31550895262E+03  0.80936516729E+02 0.  0.
        -11    1    3    3    0    0  0.36062716906E+02  0.23348729999E+02 -0.98725845648E+02  0.10766835813E+03  0.00000000000E+00 0.  1.
         12    1    3    3    0    0 -0.22110216616E+02 -0.10316142239E+02 -0.22643120612E+03  0.22774190562E+03  0.00000000000E+00 0. -1.
         13    1    5    5    0    0 -0.14580268918E+02 -0.12909594307E+02  0.28943158758E+03  0.29008599717E+03  0.00000000000E+00 0. -1.
        -14    1    5    5    0    0  0.15022423888E+02  0.13409718444E+02  0.15518791699E+02  0.25422955454E+02  0.00000000000E+00 0.  1.
          5    1    4    4  501    0 -0.53123148948E+02  0.10131477041E+02  0.48868600730E+02  0.73009097505E+02  0.41800000000E+01 0. -1.
         -5    1    4    4    0  501  0.38728493688E+02 -0.23664188938E+02 -0.30662075695E+02  0.54932006584E+02  0.41800000000E+01 0. -1.
</event>
<event>
11    1  0.8479398E-009  0.1360884E+03  0.7561462E-02  0.1112007E+00
         22   -1    0    0    0    0  0.00000000000E+00  0.00000000000E+00  0.39703485631E+03  0.39703485631E+03  0.00000000000E+00 0.  1.
         22   -1    0    0    0    0 -0.00000000000E+00 -0.00000000000E+00 -0.86896653091E+02  0.86896653091E+02  0.00000000000E+00 0.  1.
         24    2    1    2    0    0  0.14734682511E+02 -0.10354640219E+02 -0.53600340399E+01  0.75920085036E+02  0.73558139619E+02 0.  0.
         25    2    1    2    0    0  0.30630125610E+02  0.41222866128E+02  0.90665662272E+02  0.16280342932E+03  0.12508862856E+03 0.  0.
        -24    2    1    2    0    0 -0.45364808121E+02 -0.30868225909E+02  0.22483257499E+03  0.24520799505E+03  0.81033702086E+02 0.  0.
        -13    1    3    3    0    0  0.14373574575E+02 -0.12140011158E+01 -0.38724731083E+02  0.41324063719E+02  0.00000000000E+00 0.  1.
         14    1    3    3    0    0  0.36110793544E+00 -0.91406391033E+01  0.33364697043E+02  0.34596021317E+02  0.00000000000E+00 0. -1.
         13    1    5    5    0    0  0.98311679072E+00  0.24881716365E+02  0.47591839722E+02  0.53712657130E+02  0.00000000000E+00 0. -1.
        -14    1    5    5    0    0 -0.46347924912E+02 -0.55749942273E+02  0.17724073527E+03  0.19149533792E+03  0.00000000000E+00 0.  1.
          5    1    4    4  501    0  0.62886225293E+02  0.68272998496E+02  0.62585091251E+02  0.11202787913E+03  0.41800000000E+01 0.  1.
         -5    1    4    4    0  501 -0.32256099683E+02 -0.27050132368E+02  0.28080571021E+02  0.50775550187E+02  0.41800000000E+01 0.  1.
</event>
<event>
11    1  0.8479398E-009  0.1588308E+03  0.7561462E-02  0.1088182E+00
         22   -1    0    0    0    0  0.00000000000E+00  0.00000000000E+00  0.80601486307E+02  0.80601486307E+02  0.00000000000E+00 0.  1.
         22   -1    0    0    0    0 -0.00000000000E+00 -0.00000000000E+00 -0.11025272332E+04  0.11025272332E+04  0.00000000000E+00 0. -1.
         24    2    1    2    0    0  0.52964606315E+01  0.53875413371E+02 -0.82533212157E+03  0.83074455837E+03  0.77671086692E+02 0.  0.
         25    2    1    2    0    0 -0.56797713512E+02 -0.11105885083E+03 -0.97333511877E+02  0.20168627081E+03  0.12507394089E+03 0.  0.
        -24    2    1    2    0    0  0.51501252880E+02  0.57183437455E+02 -0.99260113463E+02  0.15069789034E+03  0.83276403993E+02 0.  0.
        -11    1    3    3    0    0 -0.21724597903E+02  0.56350782826E+02 -0.39845280920E+03  0.40300373452E+03  0.00000000000E+00 0.  1.
         12    1    3    3    0    0  0.27021058534E+02 -0.24753694553E+01 -0.42687931237E+03  0.42774082385E+03  0.00000000000E+00 0. -1.
         11    1    5    5    0    0 -0.22586587901E+02  0.88911002286E+01 -0.28503218129E+02  0.37438470322E+02  0.00000000000E+00 0. -1.
        -12    1    5    5    0    0  0.74087840781E+02  0.48292337227E+02 -0.70756895333E+02  0.11325942002E+03  0.00000000000E+00 0.  1.
          5    1    4    4  501    0 -0.38847695227E+02 -0.12976917096E+03 -0.44427065771E+02  0.14261983638E+03  0.41800000000E+01 0. -1.
         -5    1    4    4    0  501 -0.17950018285E+02  0.18710320137E+02 -0.52906446106E+02  0.59066434424E+02  0.41800000000E+01 0. -1.
</event>
<event>
11    1  0.8479398E-009  0.1977149E+03  0.7561462E-02  0.1056151E+00
         22   -1    0    0    0    0  0.00000000000E+00  0.00000000000E+00  0.17751206462E+04  0.17751206462E+04  0.00000000000E+00 0. -1.
         22   -1    0    0    0    0 -0.00000000000E+00 -0.00000000000E+00 -0.73079028917E+03  0.73079028917E+03  0.00000000000E+00 0.  1.
        -24    2    1    2    0    0  0.10908243871E+03 -0.10610748978E+03 -0.65286522604E+03  0.67540247051E+03  0.82326884897E+02 0.  0.
         25    2    1    2    0    0 -0.35744712886E+02  0.20804250083E+03  0.17582712492E+03  0.30186450605E+03  0.12509050924E+03 0.  0.
         24    2    1    2    0    0 -0.73337725822E+02 -0.10193501105E+03  0.15213684581E+04  0.15286439588E+04  0.80132383240E+02 0.  0.
        -11    1    5    5    0    0 -0.24673624494E+02 -0.58166448208E+02  0.36527713323E+03  0.37070137240E+03  0.00000000000E+00 0.  1.
         12    1    5    5    0    0 -0.48664101328E+02 -0.43768562841E+02  0.11560913249E+04  0.11579425864E+04  0.00000000000E+00 0. -1.
         13    1    3    3    0    0  0.74699929348E+02 -0.21850484115E+02 -0.22855815592E+03  0.24144637860E+03  0.00000000000E+00 0. -1.
        -14    1    3    3    0    0  0.34382509360E+02 -0.84257005664E+02 -0.42430707012E+03  0.43395609191E+03  0.00000000000E+00 0.  1.
          5    1    4    4  501    0  0.46340506104E+02  0.64634572955E+02  0.65742668245E+02  0.10326975044E+03  0.41800000000E+01 0.  1.
         -5    1    4    4    0  501 -0.82085218991E+02  0.14340792787E+03  0.11008445668E+03  0.19859475561E+03  0.41800000000E+01 0.  1.
</event>
<event>
11    1  0.8479398E-009  0.2405749E+03  0.7561462E-02  0.1029043E+00
         22   -1    0    0    0    0  0.00000000000E+00  0.00000000000E+00  0.33427599251E+03  0.33427599251E+03  0.00000000000E+00 0.  1.
         22   -1    0    0    0    0 -0.00000000000E+00 -0.00000000000E+00 -0.46737208860E+03  0.46737208860E+03  0.00000000000E+00 0. -1.
        -24    2    1    2    0    0 -0.76343805580E+02 -0.16375831893E+02 -0.22627647579E+03  0.25360715951E+03  0.83779492345E+02 0.  0.
         25    2    1    2    0    0 -0.13886250428E+03  0.69441746591E+02 -0.11767017278E+03  0.23151458731E+03  0.12509110004E+03 0.  0.
         24    2    1    2    0    0  0.21520630986E+03 -0.53065914698E+02  0.21085055248E+03  0.31652633429E+03  0.81247878199E+02 0.  0.
        -13    1    5    5    0    0  0.17412917623E+03 -0.46027196875E+02  0.11958207555E+03  0.21619284368E+03  0.00000000000E+00 0.  1.
         14    1    5    5    0    0  0.41077133629E+02 -0.70387178232E+01  0.91268476938E+02  0.10033349061E+03  0.00000000000E+00 0. -1.
         13    1    3    3    0    0  0.98856278265E+01 -0.19313616872E+02 -0.87882857212E+02  0.90521478258E+02  0.00000000000E+00 0. -1.
        -14    1    3    3    0    0 -0.86229433406E+02  0.29377849786E+01 -0.13839361858E+03  0.16308568125E+03  0.00000000000E+00 0.  1.
          5    1    4    4  501    0 -0.72253299360E+02  0.30449691061E+02  0.13104279171E+02  0.79604757940E+02  0.41800000000E+01 0. -1.
         -5    1    4    4    0  501 -0.66609204920E+02  0.38992055531E+02 -0.13077445195E+03  0.15190982937E+03  0.41800000000E+01 0. -1.
</event>
<event>
11    1  0.8479398E-009  0.1641480E+03  0.7561462E-02  0.1083240E+00
         22   -1    0    0    0    0  0.00000000000E+00  0.00000000000E+00  0.24468550023E+03  0.24468550023E+03  0.00000000000E+00 0. -1.
         22   -1    0    0    0    0 -0.00000000000E+00 -0.00000000000E+00 -0.13536502574E+04  0.13536502574E+04  0.00000000000E+00 0. -1.
         24    2    1    2    0    0  0.32163720721E+02  0.10637415007E+03 -0.10181294029E+04  0.10269257408E+04  0.75093484475E+02 0.  0.
         25    2    1    2    0    0 -0.42740578692E+02 -0.76946639636E+02 -0.30425345131E+03  0.34053487922E+03  0.12508516663E+03 0.  0.
        -24    2    1    2    0    0  0.10576857970E+02 -0.29427510431E+02  0.21341809701E+03  0.23087513760E+03  0.82329804666E+02 0.  0.
        -13    1    3    3    0    0 -0.10153703292E+02 -0.60812429890E+01 -0.15827623445E+03  0.15871813255E+03  0.00000000000E+00 0.  1.
         14    1    3    3    0    0  0.42317424014E+02  0.11245539306E+03 -0.85985316841E+03  0.86820760825E+03  0.00000000000E+00 0. -1.
         11    1    5    5    0    0  0.93505214591E+00 -0.14957791312E+02  0.21295439490E+03  0.21348110959E+03  0.00000000000E+00 0. -1.
        -12    1    5    5    0    0  0.96418058243E+01 -0.14469719119E+02  0.46370211117E+00  0.17394028015E+02  0.00000000000E+00 0.  1.
          5    1    4    4  501    0  0.34528094155E+02  0.86566723958E+01 -0.52174004354E+02  0.63298707674E+02  0.41800000000E+01 0.  1.
         -5    1    4    4    0  501 -0.77268672846E+02 -0.85603312032E+02 -0.25207944696E+03  0.27723617154E+03  0.41800000000E+01 0.  1.
</event>
<event>
11    1  0.8479398E-009  0.1465686E+03  0.7561462E-02  0.1100437E+00
         22   -1    0    0    0    0  0.00000000000E+00  0.00000000000E+00  0.34601923261E+03  0.34601923261E+03  0.00000000000E+00 0.  1.
         22   -1    0    0    0    0 -0.00000000000E+00 -0.00000000000E+00 -0.18106628229E+04  0.18106628229E+04  0.00000000000E+00 0.  1.
        -24    2    1    2    0    0 -0.33765519250E+02  0.51709903291E+02 -0.16794030308E+04  0.16823974924E+04  0.79074383183E+02 0.  0.
         25    2    1    2    0    0  0.33842084376E+02 -0.12382684896E+03 -0.51794883084E+02  0.18657100204E+03  0.12509058193E+03 0.  0.
         24    2    1    2    0    0 -0.76565125276E-01  0.72116945669E+02  0.26655432363E+03  0.28771356106E+03  0.80790012121E+02 0.  0.
        -11    1    5    5    0    0 -0.23189837286E+02  0.40722017736E+02  0.22842294957E+03  0.23318039191E+03  0.00000000000E+00 0.  1.
         12    1    5    5    0    0  0.23113272161E+02  0.31394927933E+02  0.38131374060E+02  0.54533169151E+02  0.00000000000E+00 0. -1.
         11    1    3    3    0    0 -0.24604356482E+01 -0.20420274412E+02 -0.46215245061E+03  0.46260991013E+03  0.00000000000E+00 0. -1.
        -12    1    3    3    0    0 -0.31305083602E+02  0.72130177703E+02 -0.12172505802E+04  0.12197875822E+04  0.00000000000E+00 0.  1.
          5    1    4    4  501    0 -0.17078590797E+02 -0.60755977932E+02 -0.78785475937E+02  0.10103262214E+03  0.41800000000E+01 0.  1.
         -5    1    4    4    0  501  0.50920675173E+02 -0.63070871028E+02  0.26990592853E+02  0.85538379894E+02  0.41800000000E+01 0.  1.
</event>
<event>
11    1  0.8479398E-009  0.1323981E+03  0.7561462E-02  0.1116357E+00
         22   -1    0    0    0    0  0.00000000000E+00  0.00000000000E+00  0.26017291404E+03  0.26017291404E+03  0.00000000000E+00 0. -1.
         22   -1    0    0    0    0 -0.00000000000E+00 -0.00000000000E+00 -0.45021674700E+03  0.45021674700E+03  0.00000000000E+00 0. -1.
         24    2    1    2    0    0  0.16813140305E+02 -0.78537115803E+01 -0.32464566011E+03  0.33494172162E+03  0.80291903579E+02 0.  0.
         25    2    1    2    0    0 -0.48991837774E+02  0.34918775200E+02 -0.68232048062E+02  0.15466802855E+03  0.12508823143E+03 0.  0.
        -24    2    1    2    0    0  0.32178697468E+02 -0.27065063620E+02  0.20283387521E+03  0.22077991087E+03  0.76381947289E+02 0.  0.
        -13    1    3    3    0    0  0.41991080939E+02 -0.24979162655E+02 -0.15287344330E+03  0.16049143002E+03  0.00000000000E+00 0.  1.
         14    1    3    3    0    0 -0.25177940634E+02  0.17125451074E+02 -0.17177221681E+03  0.17445029160E+03  0.00000000000E+00 0. -1.
         11    1    5    5    0    0  0.29049607722E+02 -0.31912376483E+02  0.20836528790E+03  0.21278715347E+03  0.00000000000E+00 0. -1.
        -12    1    5    5    0    0  0.31290897461E+01  0.48473128632E+01 -0.55314126833E+01  0.79927574032E+01  0.00000000000E+00 0.  1.
          5    1    4    4  501    0 -0.72200690305E+02  0.25287085110E+02 -0.92071814424E+02  0.11977924597E+03  0.41800000000E+01 0.  1.
         -5    1    4    4    0  501  0.23208852531E+02  0.96316900906E+01  0.23839766362E+02  0.34888782581E+02  0.41800000000E+01 0.  1.
</event>
<event>
11    1  0.8479398E-009  0.1407617E+03  0.7561462E-02  0.1106711E+00
         22   -1    0    0    0    0  0.00000000000E+00  0.00000000000E+00  0.30029222915E+03  0.30029222915E+03  0.00000000000E+00 0.  1.
         22   -1    0    0    0    0 -0.00000000000E+00 -0.00000000000E+00 -0.41393031730E+03  0.41393031730E+03  0.00000000000E+00 0. -1.
        -24    2    1    2    0    0 -0.16832748193E+02 -0.10036713156E+02 -0.34669737464E+03  0.35633645508E+03  0.79953252682E+02 0.  0.
         25    2    1    2    0    0 -0.51072161255E+02  0.15072177424E+02  0.46900467209E+02  0.14381252059E+03  0.12508737373E+03 0.  0.
         24    2    1    2    0    0  0.67904909447E+02 -0.50354642682E+01  0.18615881928E+03  0.21407357079E+03  0.80845253950E+02 0.  0.
        -11    1    5    5    0    0  0.49653721154E+02 -0.31440984605E+02  0.60366922975E+02  0.84250774043E+02  0.00000000000E+00 0.  1.
         12    1    5    5    0    0  0.18251188293E+02  0.26405520337E+02  0.12579189630E+03  0.12982279674E+03  0.00000000000E+00 0. -1.
         13    1    3    3    0    0  0.25875212488E+02 -0.23577571541E+02 -0.19670489972E+03  0.19979551065E+03  0.00000000000E+00 0. -1.
        -14    1    3    3    0    0 -0.42707960681E+02  0.13540858385E+02 -0.14999247492E+03  0.15654094443E+03  0.00000000000E+00 0.  1.
          5    1    4    4  501    0 -0.43101623695E+02  0.63926133710E+02  0.26060547664E+01  0.77256484891E+02  0.41800000000E+01 0.  1.
         -5    1    4    4    0  501 -0.79705375597E+01 -0.48853956287E+02  0.44294412443E+02  0.66556035695E+02  0.41800000000E+01 0.  1.
</event>
<event>
11    1  0.8479398E-009  0.2184678E+03  0.7561462E-02  0.1042182E+00
         22   -1    0    0    0    0  0.00000000000E+00  0.00000000000E+00  0.41443940689E+03  0.41443940689E+03  0.00000000000E+00 0. -1.
         22   -1    0    0    0    0 -0.00000000000E+00 -0.00000000000E+00 -0.28140993892E+04  0.28140993892E+04  0.00000000000E+00 0. -1.
         24    2    1    2    0    0  0.17331816987E+03  0.47590210145E+02 -0.23796380588E+04  0.23877034194E+04  0.78398420617E+02 0.  0.
         25    2    1    2    0    0 -0.15877846244E+03 -0.80243366990E+02 -0.39757073187E+03  0.45316720824E+03  0.12509369970E+03 0.  0.
        -24    2    1    2    0    0 -0.14539707428E+02  0.32653156845E+02  0.37754880830E+03  0.38766816844E+03  0.80410661142E+02 0.  0.
        -13    1    3    3    0    0  0.18585671929E+02  0.36097492937E+02 -0.55185802419E+03  0.55334955955E+03  0.00000000000E+00 0.  1.
         14    1    3    3    0    0  0.15473249794E+03  0.11492717207E+02 -0.18277800346E+04  0.18343538599E+04  0.00000000000E+00 0. -1.
         11    1    5    5    0    0 -0.24874555678E+02  0.38974164183E+01  0.33118480590E+03  0.33214049592E+03  0.00000000000E+00 0. -1.
        -12    1    5    5    0    0  0.10334848250E+02  0.28755740427E+02  0.46364002403E+02  0.55527672513E+02  0.00000000000E+00 0.  1.
          5    1    4    4  501    0 -0.81838579153E+02 -0.39282428893E+02 -0.33145086938E+03  0.34368272210E+03  0.41800000000E+01 0. -1.
         -5    1    4    4    0  501 -0.76939883286E+02 -0.40960938096E+02 -0.66119862494E+02  0.10948448614E+03  0.41800000000E+01 0. -1.
</event>
<event>
11    1  0.8479398E-009  0.1814796E+03  0.7561462E-02  0.1068452E+00
         22   -1    0    0    0    0  0.00000000000E+00  0.00000000000E+00  0.10409184497E+04  0.10409184497E+04  0.00000000000E+00 0.  1.
         22   -1    0    0    0    0 -0.00000000000E+00 -0.00000000000E+00 -0.18431386574E+03  0.18431386574E+03  0.00000000000E+00 0.  1.
         24    2    1    2    0    0 -0.15941560560E+02 -0.13318096021E+03 -0.11435879498E+03  0.19417140628E+03  0.81445070507E+02 0.  0.
         25    2    1    2    0    0  0.14761111971E+02  0.11330951252E+03  0.23117221102E+03  0.28661115191E+03  0.12509366569E+03 0.  0.
        -24    2    1    2    0    0  0.11804485884E+01  0.19871447694E+02  0.73979116787E+03  0.74444975721E+03  0.80735376755E+02 0.  0.
        -13    1    3    3    0    0 -0.26956240969E+02 -0.82508945148E+02 -0.24111967562E+02  0.90087468254E+02  0.00000000000E+00 0.  1.
         14    1    3    3    0    0  0.11014680409E+02 -0.50672015064E+02 -0.90246827419E+02  0.10408393802E+03  0.00000000000E+00 0. -1.
         13    1    5    5    0    0 -0.25331254707E+02 -0.18126864021E+02  0.17411872071E+03  0.17688296855E+03  0.00000000000E+00 0. -1.
        -14    1    5    5    0    0  0.26511703296E+02  0.37998311716E+02  0.56567244717E+03  0.56756678866E+03  0.00000000000E+00 0.  1.
          5    1    4    4  501    0 -0.34319531175E+02 -0.95171398567E+01  0.36067991604E+02  0.50860383300E+02  0.41800000000E+01 0.  1.
         -5    1    4    4    0  501  0.49080643146E+02  0.12282665237E+03  0.19510421942E+03  0.23575076861E+03  0.41800000000E+01 0.  1.
</event>
<event>
11    1  0.8479398E-009  0.1453363E+03  0.7561462E-02  0.1101742E+00
         22   -1    0    0    0    0  0.00000000000E+00  0.00000000000E+00  0.63734956742E+02  0.63734956742E+02  0.00000000000E+00 0. -1.
         22   -1    0    0    0    0 -0.00000000000E+00 -0.00000000000E+00 -0.17929143390E+04  0.17929143390E+04  0.00000000000E+00 0.  1.
        -24    2    1    2    0    0 -0.79170381481E+02 -0.69257564244E+01 -0.12329970387E+04  0.12382908365E+04  0.82259242958E+02 0.  0.
         25    2    1    2    0    0  0.52519801430E+02  0.24630689179E+02 -0.51151635389E+03  0.52977571997E+03  0.12509329629E+03 0.  0.
         24    2    1    2    0    0  0.26650580051E+02 -0.17704932755E+02  0.15334010285E+02  0.88582739265E+02  0.81166814421E+02 0.  0.
        -11    1    5    5    0    0 -0.23306500661E+02 -0.11908440570E+01 -0.15102884285E+02  0.27797629329E+02  0.00000000000E+00 0.  1.
         12    1    5    5    0    0  0.49957080712E+02 -0.16514088698E+02  0.30436894570E+02  0.60785109935E+02  0.00000000000E+00 0. -1.
         11    1    3    3    0    0 -0.79517964528E+02  0.19136938584E+02 -0.71969155258E+03  0.72432400206E+03  0.00000000000E+00 0. -1.
        -12    1    3    3    0    0  0.34758304633E+00 -0.26062695008E+02 -0.51330548609E+03  0.51396683447E+03  0.00000000000E+00 0.  1.
          5    1    4    4  501    0  0.47544257407E+02 -0.70570322451E+01 -0.48649274804E+03  0.48887925340E+03  0.41800000000E+01 0. -1.
         -5    1    4    4    0  501  0.49755440224E+01  0.31687721424E+02 -0.25023605854E+02  0.40896466563E+02  0.41800000000E+01 0. -1.
</event>
<event>
11    1  0.8479398E-009  0.1841874E+03  0.7561462E-02  0.1066305E+00
         22   -1    0    0    0    0  0.00000000000E+00  0.00000000000E+00  0.43841530599E+03  0.43841530599E+03  0.00000000000E+00 0.  1.
         22   -1    0    0    0    0 -0.00000000000E+00 -0.00000000000E+00 -0.10460179765E+04  0.10460179765E+04  0.00000000000E+00 0. -1.
        -24    2    1    2    0    0  0.11859813257E+01 -0.12793388087E+03 -0.81298354949E+03  0.82676341454E+03  0.78911389965E+02 0.  0.
         25    2    1    2    0    0  0.15958414709E+02  0.20584565301E+03 -0.15021264697E+03  0.28432112076E+03  0.12509019361E+03 0.  0.
         24    2    1    2    0    0 -0.17144396035E+02 -0.77911772144E+02  0.35559352591E+03  0.37334874722E+03  0.81107070169E+02 0.  0.
        -13    1    5    5    0    0 -0.39331747618E+02 -0.13577688333E+02  0.18628333120E+03  0.19087383130E+03  0.00000000000E+00 0.  1.
         14    1    5    5    0    0  0.22187351583E+02 -0.64334083811E+02  0.16931019470E+03  0.18247491592E+03  0.00000000000E+00 0. -1.
         13    1    3    3    0    0  0.32499984036E+02 -0.72517217075E+02 -0.57290571352E+03  0.57839083008E+03  0.00000000000E+00 0. -1.
        -14    1    3    3    0    0 -0.31314002710E+02 -0.55416663791E+02 -0.24007783597E+03  0.24837258447E+03  0.00000000000E+00 0.  1.
          5    1    4    4  501    0 -0.30121888154E+02  0.20341106249E+02  0.64432363669E+01  0.37149380133E+02  0.41800000000E+01 0. -1.
         -5    1    4    4    0  501  0.46080302863E+02  0.18550454676E+03 -0.15665588334E+03  0.24717174063E+03  0.41800000000E+01 0. -1.
</event>
<event>
11    1  0.8479398E-009  0.3344948E+03  0.7561462E-02  0.9865643E-01
         22   -1    0    0    0    0  0.00000000000E+00  0.00000000000E+00  0.22192142332E+04  0.22192142332E+04  0.00000000000E+00 0.  1.
         22   -1    0    0    0    0 -0.00000000000E+00 -0.00000000000E+00 -0.92808108195E+02  0.92808108195E+02  0.00000000000E+00 0. -1.
        -24    2    1    2    0    0  0.89776462523E+01 -0.38973635761E+02  0.26263079784E+02  0.92954416616E+02  0.79694615828E+02 0.  0.
         25    2    1    2    0    0  0.21608907015E+03  0.24390530629E+03  0.67865780343E+03  0.76315599735E+03  0.12508548061E+03 0.  0.
         24    2    1    2    0    0 -0.22506671640E+03 -0.20493167053E+03  0.14214852418E+04  0.14559119275E+04  0.80045183389E+02 0.  0.
        -11    1    5    5    0    0 -0.12204733454E+03 -0.10120877718E+03  0.91962847898E+03  0.93319628578E+03  0.00000000000E+00 0.  1.
         12    1    5    5    0    0 -0.10301938187E+03 -0.10372289335E+03  0.50185676283E+03  0.52271564167E+03  0.00000000000E+00 0. -1.
         11    1    3    3    0    0 -0.36576655968E+01 -0.62054643432E+02  0.13080193877E+02  0.63523607903E+02  0.00000000000E+00 0. -1.
        -12    1    3    3    0    0  0.12635311849E+02  0.23081007672E+02  0.13182885907E+02  0.29430808713E+02  0.00000000000E+00 0.  1.
          5    1    4    4  501    0  0.20551146302E+03  0.21187437991E+03  0.66296619833E+03  0.72571851763E+03  0.41800000000E+01 0. -1.
         -5    1    4    4    0  501  0.10577607128E+02  0.32030926384E+02  0.15691605099E+02  0.37437479725E+02  0.41800000000E+01 0. -1.
</event>
<event>
11    1  0.8479398E-009  0.1480185E+03  0.7561462E-02  0.1098921E+00
         22   -1    0    0    0    0  0.00000000000E+00  0.00000000000E+00  0.16212535494E+04  0.16212535494E+04  0.00000000000E+00 0. -1.
         22   -1    0    0    0    0 -0.00000000000E+00 -0.00000000000E+00 -0.30758151389E+03  0.30758151389E+03  0.00000000000E+00 0. -1.
        -24    2    1    2    0    0  0.20573466158E+02 -0.58087848016E+02 -0.24334760612E+03  0.26285179097E+03  0.77945756852E+02 0.  0.
         25    2    1    2    0    0  0.43256244337E+02  0.79975957886E+01  0.31553720978E+02  0.13630120777E+03  0.12508923902E+03 0.  0.
         24    2    1    2    0    0 -0.63829710495E+02  0.50090252227E+02  0.15254659207E+04  0.15296820646E+04  0.79357912040E+02 0.  0.
        -13    1    5    5    0    0 -0.72935633942E+02  0.19918177828E+02  0.80958829161E+03  0.81311102712E+03  0.00000000000E+00 0.  1.
         14    1    5    5    0    0  0.91059234466E+01  0.30172074399E+02  0.71587762906E+03  0.71657103745E+03  0.00000000000E+00 0. -1.
         13    1    3    3    0    0  0.18962923000E+02 -0.77549755942E+02 -0.19547390317E+03  0.21114829840E+03  0.00000000000E+00 0. -1.
        -14    1    3    3    0    0  0.16105431586E+01  0.19461907926E+02 -0.47873702955E+02  0.51703492571E+02  0.00000000000E+00 0.  1.
          5    1    4    4  501    0  0.27308618569E+02  0.54405780822E+02 -0.20759397849E+02  0.64452886933E+02  0.41800000000E+01 0.  1.
         -5    1    4    4    0  501  0.15947625768E+02 -0.46408185033E+02  0.52313118827E+02  0.71848320837E+02  0.41800000000E+01 0.  1.
</event>
<event>
11    1  0.8479398E-009  0.1430745E+03  0.7561462E-02  0.1104173E+00
         22   -1    0    0    0    0  0.00000000000E+00  0.00000000000E+00  0.55683332903E+02  0.55683332903E+02  0.00000000000E+00 0.  1.
         22   -1    0    0    0    0 -0.00000000000E+00 -0.00000000000E+00 -0.11755170864E+04  0.11755170864E+04  0.00000000000E+00 0.  1.
        -24    2    1    2    0    0 -0.18039409473E+02  0.66749157680E+02 -0.79643859011E+03  0.80267918481E+03  0.72101148195E+02 0.  0.
         25    2    1    2    0    0 -0.37321784647E+02 -0.98378232035E+02 -0.26641180700E+03  0.31254876780E+03  0.12506114184E+03 0.  0.
         24    2    1    2    0    0  0.55361194119E+02  0.31629074355E+02 -0.56983356374E+02  0.11597246667E+03  0.78340602266E+02 0.  0.
        -11    1    5    5    0    0  0.69562562851E+02  0.67387687923E+01 -0.28220975927E+02  0.75370980076E+02  0.00000000000E+00 0.  1.
         12    1    5    5    0    0 -0.14201368732E+02  0.24890305563E+02 -0.28762380446E+02  0.40601486596E+02  0.00000000000E+00 0. -1.
         11    1    3    3    0    0 -0.19497413176E+02  0.15144080223E+01 -0.54970575453E+02  0.58345580105E+02  0.00000000000E+00 0. -1.
        -12    1    3    3    0    0  0.14580037038E+01  0.65234749658E+02 -0.74146801466E+03  0.74433360471E+03  0.00000000000E+00 0.  1.
          5    1    4    4  501    0 -0.54517159663E+02 -0.14314702024E+02 -0.18773671851E+03  0.19606014197E+03  0.41800000000E+01 0. -1.
         -5    1    4    4    0  501  0.17195375016E+02 -0.84063530011E+02 -0.78675088485E+02  0.11648862583E+03  0.41800000000E+01 0. -1.
</event>
<event>
11    1  0.8479398E-009  0.1552239E+03  0.7561462E-02  0.1091657E+00
         22   -1    0    0    0    0  0.00000000000E+00  0.00000000000E+00  0.18408170820E+03  0.18408170820E+03  0.00000000000E+00 0.  1.
         22   -1    0    0    0    0 -0.00000000000E+00 -0.00000000000E+00 -0.51978474578E+03  0.51978474578E+03  0.00000000000E+00 0. -1.
        -24    2    1    2    0    0 -0.10306044226E+02  0.35842894553E+02 -0.38486628912E+03  0.39505117312E+03  0.80947150944E+02 0.  0.
         25    2    1    2    0    0  0.40854703240E+02  0.58823189454E+02 -0.44199712356E+02  0.15076451641E+03  0.12508817067E+03 0.  0.
         24    2    1    2    0    0 -0.30548659014E+02 -0.94666084007E+02  0.93362963898E+02  0.15805076445E+03  0.79802964149E+02 0.  0.
        -11    1    5    5    0    0 -0.19196693611E+02 -0.55525624645E+02  0.10075470187E+03  0.11663240538E+03  0.00000000000E+00 0.  1.
         12    1    5    5    0    0 -0.11351965403E+02 -0.39140459362E+02 -0.73917379672E+01  0.41418359067E+02  0.00000000000E+00 0. -1.
         11    1    3    3    0    0 -0.27213142975E+02  0.42914104339E+01 -0.31813206070E+03  0.31932268851E+03  0.00000000000E+00 0. -1.
        -12    1    3    3    0    0  0.16907098749E+02  0.31551484119E+02 -0.66734228420E+02  0.75728484609E+02  0.00000000000E+00 0.  1.
          5    1    4    4  501    0  0.44715036563E+01  0.30620276742E+02 -0.84094910300E+02  0.89705195118E+02  0.41800000000E+01 0. -1.
         -5    1    4    4    0  501  0.36383199584E+02  0.28202912713E+02  0.39895197944E+02  0.61059321291E+02  0.41800000000E+01 0. -1.
</event>
<event>
11    1  0.8479398E-009  0.1796740E+03  0.7561462E-02  0.1069907E+00
         22   -1    0    0    0    0  0.00000000000E+00  0.00000000000E+00  0.12045766946E+03  0.12045766946E+03  0.00000000000E+00 0. -1.
         22   -1    0    0    0    0 -0.00000000000E+00 -0.00000000000E+00 -0.20000591185E+04  0.20000591185E+04  0.00000000000E+00 0. -1.
         24    2    1    2    0    0  0.37492962635E+02  0.11559305495E+03 -0.13574079080E+04  0.13649988740E+04  0.76799874680E+02 0.  0.
         25    2    1    2    0    0  0.86938443016E+02 -0.14964645858E+03 -0.55957850756E+03  0.59893898592E+03  0.12508975693E+03 0.  0.
        -24    2    1    2    0    0 -0.12443140565E+03  0.34053403632E+02  0.37384966547E+02  0.15657892800E+03  0.80476803854E+02 0.  0.
        -13    1    3    3    0    0  0.46623700932E+02  0.11012363837E+03 -0.95609220134E+03  0.96354205029E+03  0.00000000000E+00 0.  1.
         14    1    3    3    0    0 -0.91307382973E+01  0.54694165850E+01 -0.40131570666E+03  0.40145682372E+03  0.00000000000E+00 0. -1.
         11    1    5    5    0    0 -0.69308680419E+02  0.75660747546E-01  0.56108150658E+02  0.89172997461E+02  0.00000000000E+00 0. -1.
        -12    1    5    5    0    0 -0.55122725231E+02  0.33977742884E+02 -0.18723184110E+02  0.67405930538E+02  0.00000000000E+00 0.  1.
          5    1    4    4  501    0 -0.55137415363E+01  0.76171634320E+01  0.73149894908E-01  0.10290785946E+02  0.41800000000E+01 0. -1.
         -5    1    4    4    0  501  0.92452184552E+02 -0.15726362201E+03 -0.55965165745E+03  0.58864819997E+03  0.41800000000E+01 0. -1.
</event>
<event>
11    1  0.8479398E-009  0.1622628E+03  0.7561462E-02  0.1084968E+00
         22   -1    0    0    0    0  0.00000000000E+00  0.00000000000E+00  0.30879208746E+03  0.30879208746E+03  0.00000000000E+00 0.  1.
         22   -1    0    0    0    0 -0.00000000000E+00 -0.00000000000E+00 -0.75007389259E+03  0.75007389259E+03  0.00000000000E+00 0.  1.
         24    2    1    2    0    0 -0.62044571500E+02  0.33307922520E+02 -0.64712522463E+03  0.65576265458E+03  0.79338869616E+02 0.  0.
         25    2    1    2    0    0  0.93307203377E+02 -0.11973002561E+03  0.46079127376E+02  0.20201921703E+03  0.12508782848E+03 0.  0.
        -24    2    1    2    0    0 -0.31262631877E+02  0.86422103093E+02  0.15976429213E+03  0.20108410845E+03  0.80399363045E+02 0.  0.
        -11    1    3    3    0    0 -0.39503284180E+02 -0.75824703755E+01 -0.49503519681E+03  0.49666673876E+03  0.00000000000E+00 0.  1.
         12    1    3    3    0    0 -0.22541287321E+02  0.40890392895E+02 -0.15209002782E+03  0.15909591581E+03  0.00000000000E+00 0. -1.
         11    1    5    5    0    0  0.25171744950E+02  0.43541406788E+02  0.78767804305E+02  0.93455004381E+02  0.00000000000E+00 0. -1.
        -12    1    5    5    0    0 -0.56434376827E+02  0.42880696306E+02  0.80996487821E+02  0.10762910407E+03  0.00000000000E+00 0.  1.
          5    1    4    4  501    0  0.59446715170E+02 -0.14235361843E+03  0.26280094356E+02  0.15654577728E+03  0.41800000000E+01 0. -1.
         -5    1    4    4    0  501  0.33860488208E+02  0.22623592819E+02  0.19799033020E+02  0.45473439745E+02  0.41800000000E+01 0. -1.
</event>
<event>
11    1  0.8479398E-009  0.1574344E+03  0.7561462E-02  0.1089515E+00
         22   -1    0    0    0    0  0.00000000000E+00  0.00000000000E+00  0.46658510265E+03  0.46658510265E+03  0.00000000000E+00 0.  1.
         22   -1    0    0    0    0 -0.00000000000E+00 -0.00000000000E+00 -0.11684796851E+04  0.11684796851E+04  0.00000000000E+00 0.  1.
        -24    2    1    2    0    0 -0.37277033085E+01 -0.10472967131E+03 -0.92547454870E+03  0.93494120552E+03  0.81423078226E+02 0.  0.
         25    2    1    2    0    0 -0.14969733808E+02  0.56186364651E+02 -0.21262973035E+03  0.25345622348E+03  0.12509058514E+03 0.  0.
         24    2    1    2    0    0  0.18697437116E+02  0.48543306656E+02  0.43620969662E+03  0.44666735872E+03  0.80788508732E+02 0.  0.
        -11    1    5    5    0    0  0.33001184593E+02  0.64143092102E+02  0.37571761503E+03  0.38257958740E+03  0.00000000000E+00 0.  1.
         12    1    5    5    0    0 -0.14303747477E+02 -0.15599785445E+02  0.60492081584E+02  0.64087771316E+02  0.00000000000E+00 0. -1.
         11    1    3    3    0    0 -0.24553208175E+02 -0.49781370201E+01 -0.95382007382E+02  0.98617286579E+02  0.00000000000E+00 0. -1.
        -12    1    3    3    0    0  0.20825504867E+02 -0.99751534287E+02 -0.83009254132E+03  0.83632391895E+03  0.00000000000E+00 0.  1.
          5    1    4    4  501    0  0.21477998342E+01 -0.22808563832E+02  0.26755830154E+01  0.23440878240E+02  0.41800000000E+01 0. -1.
         -5    1    4    4    0  501 -0.17117533642E+02  0.78994928482E+02 -0.21530531337E+03  0.23001534524E+03  0.41800000000E+01 0. -1.
</event>
<event>
11    1  0.8479398E-009  0.1331246E+03  0.7561462E-02  0.1115488E+00
         22   -1    0    0    0    0  0.00000000000E+00  0.00000000000E+00  0.15390103720E+04  0.15390103720E+04  0.00000000000E+00 0. -1.
         22   -1    0    0    0    0 -0.00000000000E+00 -0.00000000000E+00 -0.57926635702E+02  0.57926635702E+02  0.00000000000E+00 0. -1.
         24    2    1    2    0    0  0.28495260636E+02  0.77636089452E+01 -0.10453838283E+02  0.86561996597E+02  0.80693512858E+02 0.  0.
         25    2    1    2    0    0  0.24452010412E+02 -0.10258110125E+02  0.58602932748E+03  0.59981806748E+03  0.12509281260E+03 0.  0.
        -24    2    1    2    0    0 -0.52947271049E+02  0.24945011802E+01  0.90550824711E+03  0.91055694364E+03  0.79744128190E+02 0.  0.
        -13    1    3    3    0    0 -0.25137751273E+02  0.12424399486E+02 -0.16261269427E+02  0.32414520280E+02  0.00000000000E+00 0.  1.
         14    1    3    3    0    0  0.53633011909E+02 -0.46607905406E+01  0.58074311437E+01  0.54147476316E+02  0.00000000000E+00 0. -1.
         11    1    5    5    0    0 -0.57967172162E+02 -0.20847791997E+02  0.80057958250E+03  0.80294613231E+03  0.00000000000E+00 0. -1.
        -12    1    5    5    0    0  0.50199011130E+01  0.23342293177E+02  0.10492866461E+03  0.10761081133E+03  0.00000000000E+00 0.  1.
          5    1    4    4  501    0  0.43528548070E+02 -0.70528725017E+01  0.57587257396E+03  0.57757352029E+03  0.41800000000E+01 0.  1.
         -5    1    4    4    0  501 -0.19076537657E+02 -0.32052376237E+01  0.10156753527E+02  0.22244547184E+02  0.41800000000E+01 0.  1.
</event>
<event>
11    1  0.8479398E-009  0.1581196E+03  0.7561462E-02  0.1088859E+00
         22   -1    0    0    0    0  0.00000000000E+00  0.00000000000E+00  0.17459219306E+04  0.17459219306E+04  0.00000000000E+00 0. -1.
         22   -1    0    0    0    0 -0.00000000000E+00 -0.00000000000E+00 -0.29883393387E+03  0.29883393387E+03  0.00000000000E+00 0.  1.
         24    2    1    2    0    0 -0.71761843855E+02 -0.59192948171E+02 -0.22897371345E+03  0.26034583594E+03  0.81837799925E+02 0.  0.
         25    2    1    2    0    0  0.10264572631E+03  0.87134863236E+02  0.10750090574E+03  0.21290655721E+03  0.12507648799E+03 0.  0.
        -24    2    1    2    0    0 -0.30883882452E+02 -0.27941915065E+02  0.15685608045E+04  0.15715034713E+04  0.86634856212E+02 0.  0.
        -11    1    3    3    0    0 -0.62134366070E+01 -0.50687130424E+02 -0.14337213068E+03  0.15219513738E+03  0.00000000000E+00 0.  1.
         12    1    3    3    0    0 -0.65548407248E+02 -0.85058177473E+01 -0.85601582764E+02  0.10815069856E+03  0.00000000000E+00 0. -1.
         13    1    5    5    0    0  0.15687164734E+02 -0.40752655198E+02  0.51980160208E+03  0.52163260210E+03  0.00000000000E+00 0. -1.
        -14    1    5    5    0    0 -0.46571047186E+02  0.12810740133E+02  0.10487592024E+04  0.10498708692E+04  0.00000000000E+00 0.  1.
          5    1    4    4  501    0  0.39340149671E+02  0.81199426021E+02  0.11771200619E+03  0.14837312076E+03  0.41800000000E+01 0. -1.
         -5    1    4    4    0  501  0.63305576636E+02  0.59354372149E+01 -0.10211100445E+02  0.64533436453E+02  0.41800000000E+01 0. -1.
</event>
<event>
11    1  0.8479398E-009  0.1578784E+03  0.7561462E-02  0.1089090E+00
         22   -1    0    0    0    0  0.00000000000E+00  0.00000000000E+00  0.12792974332E+04  0.12792974332E+04  0.00000000000E+00 0. -1.
         22   -1    0    0    0    0 -0.00000000000E+00 -0.00000000000E+00 -0.93134532950E+02  0.93134532950E+02  0.00000000000E+00 0.  1.
         24    2    1    2    0    0 -0.38617323043E+02 -0.51855405452E+01 -0.50609233801E+02  0.10279965920E+03  0.80549909477E+02 0.  0.
         25    2    1    2    0    0  0.93880270695E+02 -0.62711560855E+02  0.69660384087E+03  0.71669409739E+03  0.12508906039E+03 0.  0.
        -24    2    1    2    0    0 -0.55262947653E+02  0.67897101400E+02  0.54016829319E+03  0.55293820956E+03  0.79340209640E+02 0.  0.
        -11    1    3    3    0    0 -0.30915594274E+02 -0.41710692437E+02 -0.33068356624E+02  0.61555438774E+02  0.00000000000E+00 0.  1.
         12    1    3    3    0    0 -0.77017287684E+01  0.36525151891E+02 -0.17540877177E+02  0.41244220430E+02  0.00000000000E+00 0. -1.
         13    1    5    5    0    0 -0.20861644569E+02  0.36932263288E+02  0.44597405203E+03  0.44798666875E+03  0.00000000000E+00 0. -1.
        -14    1    5    5    0    0 -0.34401303083E+02  0.30964838112E+02  0.94194241153E+02  0.10495154082E+03  0.00000000000E+00 0.  1.
          5    1    4    4  501    0  0.34553208512E+02 -0.66002504706E+02  0.15718727166E+03  0.17399875177E+03  0.41800000000E+01 0.  1.
         -5    1    4    4    0  501  0.59327062183E+02  0.32909438517E+01  0.53941656921E+03  0.54269534562E+03  0.41800000000E+01 0.  1.
</event>
<event>
11    1  0.8479398E-009  0.2013052E+03  0.7561462E-02  0.1053605E+00
         22   -1    0    0    0    0  0.00000000000E+00  0.00000000000E+00  0.16663103723E+04  0.16663103723E+04  0.00000000000E+00 0. -1.
         22   -1    0    0    0    0 -0.00000000000E+00 -0.00000000000E+00 -0.40087313872E+03  0.40087313872E+03  0.00000000000E+00 0.  1.
         24    2    1    2    0    0  0.13779952150E+03  0.97586386927E+02 -0.24543923593E+03  0.30880314596E+03  0.81284398138E+02 0.  0.
         25    2    1    2    0    0 -0.97015420819E+02 -0.93326621260E+02 -0.53627874603E+02  0.19142945523E+03  0.12508971694E+03 0.  0.
        -24    2    1    2    0    0 -0.40784100678E+02 -0.42597656667E+01  0.15645043441E+04  0.15669509098E+04  0.77329312529E+02 0.  0.
        -13    1    3    3    0    0  0.14388218633E+03  0.71843516832E+02 -0.21461778142E+03  0.26818718567E+03  0.00000000000E+00 0.  1.
         14    1    3    3    0    0 -0.60826648334E+01  0.25742870095E+02 -0.30821454513E+02  0.40615960293E+02  0.00000000000E+00 0. -1.
         13    1    5    5    0    0 -0.47027850318E+02  0.23707080208E+02  0.12603006002E+04  0.12614005102E+04  0.00000000000E+00 0. -1.
        -14    1    5    5    0    0  0.62437496400E+01 -0.27966845875E+02  0.30420374394E+03  0.30555039961E+03  0.00000000000E+00 0.  1.
          5    1    4    4  501    0 -0.54716970785E+02 -0.12093866878E+03 -0.34123470979E+02  0.13712035651E+03  0.41800000000E+01 0.  1.
         -5    1    4    4    0  501 -0.42298450034E+02  0.27612047517E+02 -0.19504403624E+02  0.54309098723E+02  0.41800000000E+01 0.  1.
</event>
<event>
11    1  0.8479398E-009  0.1342497E+03  0.7561462E-02  0.1114155E+00
         22   -1    0    0    0    0  0.00000000000E+00  0.00000000000E+00  0.24538978678E+04  0.24538978678E+04  0.00000000000E+00 0. -1.
         22   -1    0    0    0    0 -0.00000000000E+00 -0.00000000000E+00 -0.11638646501E+03  0.11638646501E+03  0.00000000000E+00 0. -1.
         24    2    1    2    0    0  0.32232224197E+01 -0.47965251355E+02 -0.84665625248E+02  0.12663428608E+03  0.80974809732E+02 0.  0.
         25    2    1    2    0    0  0.10351733203E+02  0.65547360206E+02  0.50006218668E+03  0.51972468944E+03  0.12509175617E+03 0.  0.
        -24    2    1    2    0    0 -0.13574955623E+02 -0.17582108851E+02  0.19221148414E+04  0.19239253573E+04  0.80435732481E+02 0.  0.
        -13    1    3    3    0    0 -0.61026454333E+01  0.36145340248E+01  0.13557316887E+02  0.15300587527E+02  0.00000000000E+00 0.  1.
         14    1    3    3    0    0  0.93258678530E+01 -0.51579785380E+02 -0.98222942135E+02  0.11133369855E+03  0.00000000000E+00 0. -1.
         11    1    5    5    0    0 -0.15361380622E+02  0.77187977031E+01  0.17365513651E+04  0.17366364604E+04  0.00000000000E+00 0. -1.
        -12    1    5    5    0    0  0.17864249992E+01 -0.25300906554E+02  0.18556347629E+03  0.18728889695E+03  0.00000000000E+00 0.  1.
          5    1    4    4  501    0 -0.42083133018E+02  0.65347181864E+02  0.19156179980E+03  0.20677195121E+03  0.41800000000E+01 0.  1.
         -5    1    4    4    0  501  0.52434866222E+02  0.20017834207E+00  0.30850038688E+03  0.31295273824E+03  0.41800000000E+01 0.  1.
</event>
<event>
11    1  0.8479398E-009  0.1819355E+03  0.7561462E-02  0.1068088E+00
         22   -1    0    0    0    0  0.00000000000E+00  0.00000000000E+00  0.65822591292E+03  0.65822591292E+03  0.00000000000E+00 0. -1.
         22   -1    0    0    0    0 -0.00000000000E+00 -0.00000000000E+00 -0.22229631514E+03  0.22229631514E+03  0.00000000000E+00 0. -1.
         24    2    1    2    0    0 -0.11611456643E+03 -0.81193371635E+02 -0.13101819219E+03  0.20785884502E+03  0.77230671576E+02 0.  0.
         25    2    1    2    0    0  0.10054913057E+03  0.24625017533E+02  0.90549844073E+02  0.18591023527E+03  0.12508725822E+03 0.  0.
        -24    2    1    2    0    0  0.15565435856E+02  0.56568354102E+02  0.47639794589E+03  0.48675314777E+03  0.80816845623E+02 0.  0.
        -13    1    3    3    0    0 -0.42910562328E+01 -0.97266730975E+01  0.97296246907E+01  0.14411347257E+02  0.00000000000E+00 0.  1.
         14    1    3    3    0    0 -0.11182351020E+03 -0.71466698538E+02 -0.14074781688E+03  0.19344749776E+03  0.00000000000E+00 0. -1.
         13    1    5    5    0    0  0.21653594004E+02  0.68314327473E+02  0.46062441371E+03  0.46616582454E+03  0.00000000000E+00 0. -1.
        -14    1    5    5    0    0 -0.60881581474E+01 -0.11745973371E+02  0.15773532187E+02  0.20587323229E+02  0.00000000000E+00 0.  1.
          5    1    4    4  501    0  0.10907391768E+03 -0.19345344811E+02  0.39052920869E+02  0.11753282483E+03  0.41800000000E+01 0. -1.
         -5    1    4    4    0  501 -0.85247871029E+01  0.43970362344E+02  0.51496923205E+02  0.68377410447E+02  0.41800000000E+01 0. -1.
</event>
<event>
11    1  0.8479398E-009  0.1409625E+03  0.7561462E-02  0.1106488E+00
         22   -1    0    0    0    0  0.00000000000E+00  0.00000000000E+00  0.45543665846E+03  0.45543665846E+03  0.00000000000E+00 0. -1.
         22   -1    0    0    0    0 -0.00000000000E+00 -0.00000000000E+00 -0.82596741630E+03  0.82596741630E+03  0.00000000000E+00 0.  1.
         24    2    1    2    0    0 -0.58724249432E+02  0.66873869104E+01 -0.55680463451E+03  0.56525458163E+03  0.77382701049E+02 0.  0.
         25    2    1    2    0    0  0.95755023897E+02 -0.36726662480E+02 -0.23470571069E+03  0.28504735486E+03  0.12508937421E+03 0.  0.
        -24    2    1    2    0    0 -0.37030774465E+02  0.30039275570E+02  0.42097958736E+03  0.43110213829E+03  0.79696953034E+02 0.  0.
        -13    1    3    3    0    0 -0.12151398938E+02  0.19947538583E+02 -0.41010247352E+03  0.41076708678E+03  0.00000000000E+00 0.  1.
         14    1    3    3    0    0 -0.46572850494E+02 -0.13260151673E+02 -0.14670216099E+03  0.15448749485E+03  0.00000000000E+00 0. -1.
         13    1    5    5    0    0 -0.24285299314E+02 -0.23733422212E+02  0.22236361610E+03  0.22494138982E+03  0.00000000000E+00 0. -1.
        -14    1    5    5    0    0 -0.12745475151E+02  0.53772697781E+02  0.19861597127E+03  0.20616074846E+03  0.00000000000E+00 0.  1.
          5    1    4    4  501    0 -0.10183938625E+02 -0.49896923973E+02 -0.10678871065E+03  0.11838376895E+03  0.41800000000E+01 0. -1.
         -5    1    4    4    0  501  0.10593896252E+03  0.13170261493E+02 -0.12791700004E+03  0.16666358590E+03  0.41800000000E+01 0. -1.
</event>
<event>
11    1  0.8479398E-009  0.1961652E+03  0.7561462E-02  0.1057269E+00
         22   -1    0    0    0    0  0.00000000000E+00  0.00000000000E+00  0.95283185963E+03  0.95283185963E+03  0.00000000000E+00 0. -1.
         22   -1    0    0    0    0 -0.00000000000E+00 -0.00000000000E+00 -0.65878984222E+03  0.65878984222E+03  0.00000000000E+00 0. -1.
         24    2    1    2    0    0 -0.17924283447E+01 -0.85567635616E+02 -0.59208259155E+03  0.60362107061E+03  0.80446060212E+02 0.  0.
         25    2    1    2    0    0 -0.14599046747E+03  0.38617553983E+02  0.13797929247E+03  0.23977443936E+03  0.12509582149E+03 0.  0.
        -24    2    1    2    0    0  0.14778289581E+03  0.46950081633E+02  0.74814531649E+03  0.76822619187E+03  0.80037321538E+02 0.  0.
        -11    1    3    3    0    0 -0.36214356911E+01 -0.55700186365E+01 -0.51234009319E+00  0.66635123206E+01  0.00000000000E+00 0.  1.
         12    1    3    3    0    0  0.18290073464E+01 -0.79997616980E+02 -0.59157025146E+03  0.59695755829E+03  0.00000000000E+00 0. -1.
         13    1    5    5    0    0  0.13822535832E+03  0.61080259647E+02  0.71662787538E+03  0.73238825740E+03  0.00000000000E+00 0. -1.
        -14    1    5    5    0    0  0.95575374912E+01 -0.14130178014E+02  0.31517441108E+02  0.35837934477E+02  0.00000000000E+00 0.  1.
          5    1    4    4  501    0 -0.15899088131E+03  0.12113098974E+02  0.89610537898E+02  0.18295449819E+03  0.41800000000E+01 0. -1.
         -5    1    4    4    0  501  0.13000413844E+02  0.26504455009E+02  0.48368754573E+02  0.56819941168E+02  0.41800000000E+01 0. -1.
</event>
<event>
11    1  0.8479398E-009  0.1431284E+03  0.7561462E-02  0.1104114E+00
         22   -1    0    0    0    0  0.00000000000E+00  0.00000000000E+00  0.15387642234E+03  0.15387642234E+03  0.00000000000E+00 0.  1.
         22   -1    0    0    0    0 -0.00000000000E+00 -0.00000000000E+00 -0.59883914080E+03  0.59883914080E+03  0.00000000000E+00 0.  1.
        -24    2    1    2    0    0 -0.20549929120E+02 -0.11969024957E+02 -0.48600202775E+03  0.49302186360E+03  0.79416810994E+02 0.  0.
         25    2    1    2    0    0  0.59042111140E+02 -0.44892943418E+02 -0.49960371071E+01  0.14551063780E+03  0.12508812122E+03 0.  0.
         24    2    1    2    0    0 -0.38492182020E+02  0.56861968376E+02  0.46035346392E+02  0.11418306174E+03  0.78762852581E+02 0.  0.
        -11    1    5    5    0    0  0.35219538439E+01  0.60933063938E+02  0.18468128581E+02  0.63767658049E+02  0.00000000000E+00 0.  1.
         12    1    5    5    0    0 -0.42014135864E+02 -0.40710955624E+01  0.27567217811E+02  0.50415403691E+02  0.00000000000E+00 0. -1.
         11    1    3    3    0    0 -0.40156264577E+01 -0.23957986647E+02 -0.41767137256E+02  0.48317741406E+02  0.00000000000E+00 0. -1.
        -12    1    3    3    0    0 -0.16534302662E+02  0.11988961690E+02 -0.44423489049E+03  0.44470412219E+03  0.00000000000E+00 0.  1.
          5    1    4    4  501    0  0.98175804354E+02 -0.34841980617E+02 -0.92529796963E+01  0.10466872602E+03  0.41800000000E+01 0.  1.
         -5    1    4    4    0  501 -0.39133693213E+02 -0.10050962802E+02  0.42569425892E+01  0.40841911781E+02  0.41800000000E+01 0.  1.
</event>
<event>
11    1  0.8479398E-009  0.1408835E+03  0.7561462E-02  0.1106576E+00
         22   -1    0    0    0    0  0.00000000000E+00  0.00000000000E+00  0.62460526159E+03  0.62460526159E+03  0.00000000000E+00 0.  1.
         22   -1    0    0    0    0 -0.00000000000E+00 -0.00000000000E+00 -0.55633540489E+03  0.55633540489E+03  0.00000000000E+00 0.  1.
        -24    2    1    2    0    0 -0.55189647506E+02 -0.32648663601E+02 -0.51586894163E+03  0.52615553015E+03  0.81283728685E+02 0.  0.
         25    2    1    2    0    0  0.74434178631E+02  0.50339985041E+02  0.15257518925E+03  0.21679649878E+03  0.12508785899E+03 0.  0.
         24    2    1    2    0    0 -0.19244531125E+02 -0.17691321440E+02  0.43156360908E+03  0.43798863755E+03  0.70025446139E+02 0.  0.
        -13    1    5    5    0    0 -0.15347151561E+02  0.13860456813E+02  0.34749259718E+03  0.34810738633E+03  0.00000000000E+00 0.  1.
         14    1    5    5    0    0 -0.38973795639E+01 -0.31551778253E+02  0.84071011905E+02  0.89881251221E+02  0.00000000000E+00 0. -1.
         11    1    3    3    0    0 -0.47591972526E+02  0.60630194706E+01 -0.13543443250E+03  0.14368104106E+03  0.00000000000E+00 0. -1.
        -12    1    3    3    0    0 -0.75976749800E+01 -0.38711683072E+02 -0.38043450912E+03  0.38247448909E+03  0.00000000000E+00 0.  1.
          5    1    4    4  501    0  0.57163369599E+01 -0.37845647407E+02  0.61398478681E+02  0.72472167901E+02  0.41800000000E+01 0. -1.
         -5    1    4    4    0  501  0.68717841671E+02  0.88185632448E+02  0.91176710566E+02  0.14432433088E+03  0.41800000000E+01 0. -1.
</event>
<event>
11    1  0.8479398E-009  0.2477559E+03  0.7561462E-02  0.1025101E+00
         22   -1    0    0    0    0  0.00000000000E+00  0.00000000000E+00  0.57546740794E+03  0.57546740794E+03  0.00000000000E+00 0.  1.
         22   -1    0    0    0    0 -0.00000000000E+00 -0.00000000000E+00 -0.47168601091E+03  0.47168601091E+03  0.00000000000E+00 0.  1.
        -24    2    1    2    0    0  0.19348835215E+02  0.31723535075E+02 -0.30402372790E+03  0.31653862423E+03  0.79909407450E+02 0.  0.
         25    2    1    2    0    0 -0.35769810304E+02 -0.23900480434E+03  0.69241290646E+01  0.27220928565E+03  0.12508867177E+03 0.  0.
         24    2    1    2    0    0  0.16420975089E+02  0.20728126926E+03  0.40088099586E+03  0.45840550897E+03  0.78707463441E+02 0.  0.
        -13    1    5    5    0    0  0.85677487641E+01  0.21230066018E+03  0.38960834128E+03  0.44377881453E+03  0.00000000000E+00 0.  1.
         14    1    5    5    0    0  0.78532263247E+01 -0.50193909175E+01  0.11272654579E+02  0.14626694437E+02  0.00000000000E+00 0. -1.
         13    1    3    3    0    0  0.37916125428E+02  0.39770558120E+02 -0.12720444450E+03  0.13856514915E+03  0.00000000000E+00 0. -1.
        -14    1    3    3    0    0 -0.18567290212E+02 -0.80470230450E+01 -0.17681928340E+03  0.17797347507E+03  0.00000000000E+00 0.  1.
          5    1    4    4  501    0 -0.14654989715E+02 -0.24090247873E+03 -0.14449577432E+02  0.24181611954E+03  0.41800000000E+01 0.  1.
         -5    1    4    4    0  501 -0.21114820590E+02  0.18976743956E+01  0.21373706497E+02  0.30393166108E+02  0.41800000000E+01 0.  1.
</event>
<event>
11    1  0.8479398E-009  0.2983772E+03  0.7561462E-02  0.1000880E+00
         22   -1    0    0    0    0  0.00000000000E+00  0.00000000000E+00  0.40455275812E+03  0.40455275812E+03  0.00000000000E+00 0. -1.
         22   -1    0    0    0    0 -0.00000000000E+00 -0.00000000000E+00 -0.84057781163E+03  0.84057781163E+03  0.00000000000E+00 0. -1.
        -24    2    1    2    0    0  0.23319601407E+03 -0.13496195666E+03 -0.64787889818E+03  0.70633434375E+03  0.81031029415E+02 0.  0.
         25    2    1    2    0    0 -0.25769281114E+03  0.10996691577E+03 -0.26995154417E+01  0.30684429402E+03  0.12509127034E+03 0.  0.
         24    2    1    2    0    0  0.24496797066E+02  0.24995040889E+02  0.21455336011E+03  0.23195193198E+03  0.80893196751E+02 0.  0.
        -11    1    5    5    0    0  0.35856540495E+01 -0.22182925852E+02  0.18159207897E+02  0.28891104959E+02  0.00000000000E+00 0.  1.
         12    1    5    5    0    0  0.20911143017E+02  0.47177966741E+02  0.19639415221E+03  0.20306082702E+03  0.00000000000E+00 0. -1.
         11    1    3    3    0    0  0.21482820574E+03 -0.96681588984E+02 -0.58298436454E+03  0.62878395091E+03  0.00000000000E+00 0. -1.
        -12    1    3    3    0    0  0.18367808329E+02 -0.38280367677E+02 -0.64894533640E+02  0.77550392833E+02  0.00000000000E+00 0.  1.
          5    1    4    4  501    0 -0.20679586855E+03  0.36063617705E+02  0.28207239511E+02  0.21184484070E+03  0.41800000000E+01 0.  1.
         -5    1    4    4    0  501 -0.50896942593E+02  0.73903298066E+02 -0.30906754953E+02  0.94999453325E+02  0.41800000000E+01 0.  1.
</event>
<event>
11    1  0.8479398E-009  0.2419549E+03  0.7561462E-02  0.1028274E+00
         22   -1    0    0    0    0  0.00000000000E+00  0.00000000000E+00  0.16376471218E+04  0.16376471218E+04  0.00000000000E+00 0.  1.
         22   -1    0    0    0    0 -0.00000000000E+00 -0.00000000000E+00 -0.10603898507E+04  0.10603898507E+04  0.00000000000E+00 0. -1.
        -24    2    1    2    0    0 -0.46450837370E+02 -0.20126123454E+03 -0.10211314373E+04  0.10449221513E+04  0.80555106506E+02 0.  0.
         25    2    1    2    0    0  0.76647527569E+02  0.23063272012E+03  0.72078805240E+03  0.77087615860E+03  0.12509332656E+03 0.  0.
         24    2    1    2    0    0 -0.30196690200E+02 -0.29371485577E+02  0.87760065609E+03  0.88223866254E+03  0.79922599069E+02 0.  0.
        -11    1    5    5    0    0 -0.14005020711E+02  0.16090533308E+01  0.74421483603E+03  0.74434834038E+03  0.00000000000E+00 0.  1.
         12    1    5    5    0    0 -0.16191669489E+02 -0.30980538908E+02  0.13338582006E+03  0.13789032216E+03  0.00000000000E+00 0. -1.
         11    1    3    3    0    0 -0.21584282566E+02 -0.16096478735E+03 -0.90587640943E+03  0.92031929959E+03  0.00000000000E+00 0. -1.
        -12    1    3    3    0    0 -0.24866554803E+02 -0.40296447188E+02 -0.11525502790E+03  0.12460285173E+03  0.00000000000E+00 0.  1.
          5    1    4    4  501    0  0.71686582602E+02  0.93638053774E+02  0.47474515484E+03  0.48919064350E+03  0.41800000000E+01 0.  1.
         -5    1    4    4    0  501  0.49609449677E+01  0.13699466635E+03  0.24604289755E+03  0.28168551510E+03  0.41800000000E+01 0.  1.
</event>
<event>
11    1  0.8479398E-009  0.2659521E+03  0.7561462E-02  0.1015729E+00
         22   -1    0    0    0    0  0.00000000000E+00  0.00000000000E+00  0.43896782585E+04  0.43896782585E+04  0.00000000000E+00 0. -1.
         22   -1    0    0    0    0 -0.00000000000E+00 -0.00000000000E+00 -0.34980321190E+03  0.34980321190E+03  0.00000000000E+00 0.  1.
        -24    2    1    2    0    0 -0.20862234383E+02  0.72188381035E+02 -0.25953272356E+03  0.28262729612E+03  0.82912958807E+02 0.  0.
         25    2    1    2    0    0 -0.21481297041E+03 -0.66447331366E+02  0.14573085408E+03  0.29571100602E+03  0.12509059575E+03 0.  0.
         24    2    1    2    0    0  0.23567520479E+03 -0.57410496691E+01  0.41536769161E+04  0.41611431683E+04  0.80652227974E+02 0.  0.
        -11    1    5    5    0    0  0.13274864670E+03 -0.79241777599E+00  0.16437398298E+04  0.16490917074E+04  0.00000000000E+00 0.  1.
         12    1    5    5    0    0  0.10292655809E+03 -0.49486318931E+01  0.25099370863E+04  0.25120514609E+04  0.00000000000E+00 0. -1.
         11    1    3    3    0    0 -0.25346107108E+02  0.78081019676E+02 -0.13587797516E+03  0.15875104697E+03  0.00000000000E+00 0. -1.
        -12    1    3    3    0    0  0.44838727249E+01 -0.58926386409E+01 -0.12365474839E+03  0.12387624916E+03  0.00000000000E+00 0.  1.
          5    1    4    4  501    0  0.13796271846E+02 -0.48535280419E+01 -0.37664591678E+01  0.15670113782E+02  0.41800000000E+01 0.  1.
         -5    1    4    4    0  501 -0.22860924226E+03 -0.61593803324E+02  0.14949731325E+03  0.28004089223E+03  0.41800000000E+01 0.  1.
</event>
<event>
11    1  0.8479398E-009  0.1310128E+03  0.7561462E-02  0.1118031E+00
         22   -1    0    0    0    0  0.00000000000E+00  0.00000000000E+00  0.66632162554E+03  0.66632162554E+03  0.00000000000E+00 0. -1.
         22   -1    0    0    0    0 -0.00000000000E+00 -0.00000000000E+00 -0.27399807618E+03  0.27399807618E+03  0.00000000000E+00 0.  1.
        -24    2    1    2    0    0  0.12862937723E+02  0.10729589420E+02 -0.16019384030E+03  0.17792046464E+03  0.75584694293E+02 0.  0.
         25    2    1    2    0    0 -0.42186751922E+02  0.14743346459E+02 -0.58472502240E+02  0.14513875829E+03  0.12509651209E+03 0.  0.
         24    2    1    2    0    0  0.29323814198E+02 -0.25472935880E+02  0.61098989189E+03  0.61726047880E+03  0.78696214333E+02 0.  0.
        -13    1    5    5    0    0 -0.19214456065E+02 -0.91935245917E+00  0.35667500941E+03  0.35719336902E+03  0.00000000000E+00 0.  1.
         14    1    5    5    0    0  0.48538270263E+02 -0.24553583421E+02  0.25431488248E+03  0.26006710978E+03  0.00000000000E+00 0. -1.
         11    1    3    3    0    0 -0.12989330539E+01 -0.25409992710E+02 -0.11748497890E+03  0.12020846569E+03  0.00000000000E+00 0. -1.
        -12    1    3    3    0    0  0.14161870777E+02  0.36139582130E+02 -0.42708861396E+02  0.57711998945E+02  0.00000000000E+00 0.  1.
          5    1    4    4  501    0 -0.37829653214E+02 -0.41165034119E+02 -0.67970847089E+02  0.88108746163E+02  0.41800000000E+01 0.  1.
         -5    1    4    4    0  501 -0.43570987077E+01  0.55908380578E+02  0.94983448493E+01  0.57030012124E+02  0.41800000000E+01 0.  1.
</event>
<event>
11    1  0.8479398E-009  0.1348449E+03  0.7561462E-02  0.1113455E+00
         22   -1    0    0    0    0  0.00000000000E+00  0.00000000000E+00  0.73149967779E+03  0.73149967779E+03  0.00000000000E+00 0. -1.
         22   -1    0    0    0    0 -0.00000000000E+00 -0.00000000000E+00 -0.13610254288E+03  0.13610254288E+03  0.00000000000E+00 0.  1.
        -24    2    1    2    0    0 -0.50810914602E+02  0.53360625416E+01 -0.10014936198E+03  0.13838464262E+03  0.80685760840E+02 0.  0.
         25    2    1    2    0    0  0.37461845481E+02  0.19460389626E+02  0.37532190154E+03  0.39786453751E+03  0.12509022263E+03 0.  0.
         24    2    1    2    0    0  0.13349069120E+02 -0.24796452167E+02  0.32022459534E+03  0.33135304054E+03  0.80361584903E+02 0.  0.
        -13    1    5    5    0    0 -0.67660056929E+01  0.25586802085E+02  0.60701028608E+02  0.66219922592E+02  0.00000000000E+00 0.  1.
         14    1    5    5    0    0  0.20115074813E+02 -0.50383254252E+02  0.25952356674E+03  0.26513311795E+03  0.00000000000E+00 0. -1.
         13    1    3    3    0    0  0.22162219023E+02 -0.14251052067E+01 -0.22577573007E+02  0.31669254487E+02  0.00000000000E+00 0. -1.
        -14    1    3    3    0    0 -0.72973133625E+02  0.67611677483E+01 -0.77571788972E+02  0.10671538813E+03  0.00000000000E+00 0.  1.
          5    1    4    4  501    0  0.67315215730E+02  0.37928518775E+02  0.14051691310E+03  0.16041317301E+03  0.41800000000E+01 0. -1.
         -5    1    4    4    0  501 -0.29853370248E+02 -0.18468129149E+02  0.23480498844E+03  0.23745136450E+03  0.41800000000E+01 0. -1.
</event>
<event>
11    1  0.8479398E-009  0.1667619E+03  0.7561462E-02  0.1080884E+00
         22   -1    0    0    0    0  0.00000000000E+00  0.00000000000E+00  0.11932565877E+04  0.11932565877E+04  0.00000000000E+00 0. -1.
         22   -1    0    0    0    0 -0.00000000000E+00 -0.00000000000E+00 -0.42847288400E+03  0.42847288400E+03  0.00000000000E+00 0. -1.
        -24    2    1    2    0    0 -0.98065341875E+02 -0.87834038745E+02 -0.28193298686E+03  0.32133840118E+03  0.80252908699E+02 0.  0.
         25    2    1    2    0    0  0.41146984124E+02  0.53126224928E+02 -0.83867303272E+02  0.16491808976E+03  0.12509509061E+03 0.  0.
         24    2    1    2    0    0  0.56918357750E+02  0.34707813817E+02  0.11305839938E+04  0.11354729808E+04  0.81451772012E+02 0.  0.
        -13    1    5    5    0    0  0.71784332149E+02  0.14096022053E+02  0.62793864455E+03  0.63218559736E+03  0.00000000000E+00 0.  1.
         14    1    5    5    0    0 -0.14865974399E+02  0.20611791764E+02  0.50264534927E+03  0.50328738340E+03  0.00000000000E+00 0. -1.
         11    1    3    3    0    0 -0.50019626212E+02 -0.87093425344E+02 -0.14639811086E+03  0.17753769912E+03  0.00000000000E+00 0. -1.
        -12    1    3    3    0    0 -0.48045715663E+02 -0.74061340072E+00 -0.13553487600E+03  0.14380070206E+03  0.00000000000E+00 0.  1.
          5    1    4    4  501    0  0.53967638092E+02  0.38994698405E+02  0.11390720139E+02  0.67678012457E+02  0.41800000000E+01 0.  1.
         -5    1    4    4    0  501 -0.12820653967E+02  0.14131526523E+02 -0.95258023411E+02  0.97240077305E+02  0.41800000000E+01 0.  1.
</event>
<event>
11    1  0.8479398E-009  0.1509220E+03  0.7561462E-02  0.1095940E+00
         22   -1    0    0    0    0  0.00000000000E+00  0.00000000000E+00  0.10697067400E+04  0.10697067400E+04  0.00000000000E+00 0.  1.
         22   -1    0    0    0    0 -0.00000000000E+00 -0.00000000000E+00 -0.10100901124E+03  0.10100901124E+03  0.00000000000E+00 0.  1.
         24    2    1    2    0    0 -0.33796612782E+02 -0.28746548258E+02 -0.16472480397E+02  0.93641858066E+02  0.80801484511E+02 0.  0.
         25    2    1    2    0    0  0.65952830399E+02  0.10309055625E+03  0.14029927489E+03  0.22429527100E+03  0.12508814267E+03 0.  0.
        -24    2    1    2    0    0 -0.32156217617E+02 -0.74344007994E+02  0.84487093425E+03  0.85277862213E+03  0.82845814508E+02 0.  0.
        -11    1    3    3    0    0 -0.23828612235E+02  0.25628381453E+02 -0.15701028487E+02  0.38355429766E+02  0.00000000000E+00 0.  1.
         12    1    3    3    0    0 -0.99680005470E+01 -0.54374929712E+02 -0.77145190912E+00  0.55286428300E+02  0.00000000000E+00 0. -1.
         11    1    5    5    0    0 -0.12841148932E+01  0.11413804417E+01  0.42809125319E+03  0.42809470069E+03  0.00000000000E+00 0. -1.
        -12    1    5    5    0    0 -0.30872102723E+02 -0.75485388436E+02  0.41677968106E+03  0.42468392145E+03  0.00000000000E+00 0.  1.
          5    1    4    4  501    0 -0.30786777265E+02  0.68318030573E+00  0.10808829542E+02  0.32902820331E+02  0.41800000000E+01 0.  1.
         -5    1    4    4    0  501  0.96739607664E+02  0.10240737595E+03  0.12949044534E+03  0.19139245067E+03  0.41800000000E+01 0.  1.
</event>
<event>
11    1  0.8479398E-009  0.1839491E+03  0.7561462E-02  0.1066492E+00
         22   -1    0    0    0    0  0.00000000000E+00  0.00000000000E+00  0.23616106568E+03  0.23616106568E+03  0.00000000000E+00 0.  1.
         22   -1    0    0    0    0 -0.00000000000E+00 -0.00000000000E+00 -0.12903842023E+04  0.12903842023E+04  0.00000000000E+00 0.  1.
         24    2    1    2    0    0 -0.15792451647E+02  0.62445431868E+02 -0.91266367747E+03  0.91802204730E+03  0.75237342191E+02 0.  0.
         25    2    1    2    0    0 -0.75474667721E+02 -0.15789877319E+03 -0.31180481317E+03  0.37881972777E+03  0.12511473369E+03 0.  0.
        -24    2    1    2    0    0  0.91267119368E+02  0.95453341324E+02  0.17024535404E+03  0.22970349289E+03  0.79619009202E+02 0.  0.
        -11    1    3    3    0    0 -0.39024699291E+02  0.61460343007E+02 -0.58088141647E+03  0.58542593119E+03  0.00000000000E+00 0.  1.
         12    1    3    3    0    0  0.23232247644E+02  0.98508886048E+00 -0.33178226100E+03  0.33259611610E+03  0.00000000000E+00 0. -1.
         11    1    5    5    0    0  0.43740431176E+02 -0.27968025015E+01  0.62511880846E+02  0.76346464690E+02  0.00000000000E+00 0. -1.
        -12    1    5    5    0    0  0.47526688192E+02  0.98250143825E+02  0.10773347319E+03  0.15335702820E+03  0.00000000000E+00 0.  1.
          5    1    4    4  501    0 -0.22156696762E+02 -0.78114958672E+02 -0.40136039227E+02  0.90671053951E+02  0.41800000000E+01 0.  1.
         -5    1    4    4    0  501 -0.53317970960E+02 -0.79783814520E+02 -0.27166877394E+03  0.28814867382E+03  0.41800000000E+01 0.  1.
</event>
<event>
11    1  0.8479398E-009  0.1347008E+03  0.7561462E-02  0.1113624E+00
         22   -1    0    0    0    0  0.00000000000E+00  0.00000000000E+00  0.87676434019E+03  0.87676434019E+03  0.00000000000E+00 0.  1.
         22   -1    0    0    0    0 -0.00000000000E+00 -0.00000000000E+00 -0.16692560162E+04  0.16692560162E+04  0.00000000000E+00 0.  1.
        -24    2    1    2    0    0  0.38075544004E+02  0.23855174531E+02 -0.59772539468E+03  0.60478662937E+03  0.80451247470E+02 0.  0.
         25    2    1    2    0    0  0.11698729300E+02 -0.29138801311E+02 -0.10614238710E+04  0.10692307113E+04  0.12509096761E+03 0.  0.
         24    2    1    2    0    0 -0.49774273305E+02  0.52836267802E+01  0.86665758962E+03  0.87200301572E+03  0.82392273819E+02 0.  0.
        -13    1    5    5    0    0 -0.42218264501E+02  0.41559037808E+02  0.51273255209E+03  0.51614358996E+03  0.00000000000E+00 0.  1.
         14    1    5    5    0    0 -0.75560088041E+01 -0.36275411028E+02  0.35392503753E+03  0.35585942576E+03  0.00000000000E+00 0. -1.
         11    1    3    3    0    0  0.47011954355E+02 -0.62363181657E+01 -0.18905009921E+03  0.19490755636E+03  0.00000000000E+00 0. -1.
        -12    1    3    3    0    0 -0.89364103509E+01  0.30091492697E+02 -0.40867529547E+03  0.40987907301E+03  0.00000000000E+00 0.  1.
          5    1    4    4  501    0 -0.12280773108E+02 -0.66570618015E+02 -0.35650001523E+03  0.36289419646E+03  0.41800000000E+01 0.  1.
         -5    1    4    4    0  501  0.23979502408E+02  0.37431816703E+02 -0.70492385573E+03  0.70633651485E+03  0.41800000000E+01 0.  1.
</event>
<event>
11    1  0.8479398E-009  0.1358608E+03  0.7561462E-02  0.1112271E+00
         22   -1    0    0    0    0  0.00000000000E+00  0.00000000000E+00  0.95671359223E+03  0.95671359223E+03  0.00000000000E+00 0. -1.
         22   -1    0    0    0    0 -0.00000000000E+00 -0.00000000000E+00 -0.29465796467E+03  0.29465796467E+03  0.00000000000E+00 0.  1.
         24    2    1    2    0    0 -0.43990202798E+02 -0.22160004036E+02 -0.18347214977E+03  0.20792402177E+03  0.84523164688E+02 0.  0.
         25    2    1    2    0    0  0.72369180507E+02  0.93623883904E+01 -0.42793545954E+02  0.15099528761E+03  0.12507332530E+03 0.  0.
        -24    2    1    2    0    0 -0.28378977708E+02  0.12797615646E+02  0.88832132327E+03  0.89245224752E+03  0.79919305420E+02 0.  0.
        -11    1    3    3    0    0 -0.57143402741E+02 -0.48148355533E+01 -0.17568068502E+03  0.18480328516E+03  0.00000000000E+00 0.  1.
         12    1    3    3    0    0  0.13153199943E+02 -0.17345168483E+02 -0.77914647474E+01  0.23120736609E+02  0.00000000000E+00 0. -1.
         13    1    5    5    0    0 -0.35474414660E+02  0.21930987453E+02  0.21369489919E+03  0.21772669163E+03  0.00000000000E+00 0. -1.
        -14    1    5    5    0    0  0.70954369515E+01 -0.91333718064E+01  0.67462642408E+03  0.67472555589E+03  0.00000000000E+00 0.  1.
          5    1    4    4  501    0  0.91976449818E+02 -0.32175499380E+02 -0.20055485515E+02  0.99572209882E+02  0.41800000000E+01 0. -1.
         -5    1    4    4    0  501 -0.19607269311E+02  0.41537887771E+02 -0.22738060439E+02  0.51423077726E+02  0.41800000000E+01 0. -1.
</event>
<event>
11    1  0.8479398E-009  0.1389085E+03  0.7561462E-02  0.1108783E+00
         22   -1    0    0    0    0  0.00000000000E+00  0.00000000000E+00  0.94139513996E+03  0.94139513996E+03  0.00000000000E+00 0.  1.
         22   -1    0    0    0    0 -0.00000000000E+00 -0.00000000000E+00 -0.66861532426E+03  0.66861532426E+03  0.00000000000E+00 0. -1.
         24    2    1    2    0    0  0.13182041096E+02  0.44228461631E+02 -0.49793597572E+03  0.50652588186E+03  0.80612096168E+02 0.  0.
         25    2    1    2    0    0 -0.70123227857E+02 -0.23782909874E+02 -0.13137234503E+03  0.19591150633E+03  0.12505891166E+03 0.  0.
        -24    2    1    2    0    0  0.56941186760E+02 -0.20445551757E+02  0.90208813645E+03  0.90757307604E+03  0.79155309869E+02 0.  0.
        -11    1    3    3    0    0 -0.17055827207E+02  0.43705442766E+02 -0.14736482856E+03  0.15465270662E+03  0.00000000000E+00 0.  1.
         12    1    3    3    0    0  0.30237868303E+02  0.52301886461E+00 -0.35057114717E+03  0.35187317524E+03  0.00000000000E+00 0. -1.
         13    1    5    5    0    0  0.70834295687E+01 -0.14062513600E+02  0.28666012190E+02  0.32705802514E+02  0.00000000000E+00 0. -1.
        -14    1    5    5    0    0  0.49857757192E+02 -0.63830381566E+01  0.87342212426E+03  0.87486727352E+03  0.00000000000E+00 0.  1.
          5    1    4    4  501    0 -0.98098289308E+02 -0.38925140520E+02 -0.12419519348E+03  0.16303484110E+03  0.41800000000E+01 0. -1.
         -5    1    4    4    0  501  0.27975061451E+02  0.15142230646E+02 -0.71771515514E+01  0.32876665228E+02  0.41800000000E+01 0. -1.
</event>
<event>
11    1  0.8479398E-009  0.1336605E+03  0.7561462E-02  0.1114851E+00
         22   -1    0    0    0    0  0.00000000000E+00  0.00000000000E+00  0.38106202318E+03  0.38106202318E+03  0.00000000000E+00 0. -1.
         22   -1    0    0    0    0 -0.00000000000E+00 -0.00000000000E+00 -0.90380991692E+03  0.90380991692E+03  0.00000000000E+00 0. -1.
         24    2    1    2    0    0 -0.20968796878E+02  0.44854709299E+02 -0.57146799941E+03  0.57935101099E+03  0.81365128843E+02 0.  0.
         25    2    1    2    0    0 -0.20358090225E+02 -0.48033738030E+02 -0.31122207407E+03  0.33945334730E+03  0.12509078215E+03 0.  0.
        -24    2    1    2    0    0  0.41326887103E+02  0.31790287312E+01  0.35994217974E+03  0.36606758181E+03  0.52240634310E+02 0.  0.
        -11    1    3    3    0    0 -0.62812748104E+01  0.39361059295E+02 -0.10040913613E+03  0.10803120855E+03  0.00000000000E+00 0.  1.
         12    1    3    3    0    0 -0.14687522068E+02  0.54936500034E+01 -0.47105886328E+03  0.47131980244E+03  0.00000000000E+00 0. -1.
         13    1    5    5    0    0  0.40792674869E+02 -0.45131082057E+01  0.35389923606E+03  0.35627107622E+03  0.00000000000E+00 0. -1.
        -14    1    5    5    0    0  0.53421223407E+00  0.76921369369E+01  0.60429436806E+01  0.97965055859E+01  0.00000000000E+00 0.  1.
          5    1    4    4  501    0 -0.60221647947E+02  0.22086331919E+01 -0.21805693056E+03  0.22626935786E+03  0.41800000000E+01 0. -1.
         -5    1    4    4    0  501  0.39863557721E+02 -0.50242371222E+02 -0.93165143516E+02  0.11318398944E+03  0.41800000000E+01 0. -1.
</event>
<event>
11    1  0.8479398E-009  0.1503411E+03  0.7561462E-02  0.1096531E+00
         22   -1    0    0    0    0  0.00000000000E+00  0.00000000000E+00  0.31421622091E+03  0.31421622091E+03  0.00000000000E+00 0. -1.
         22   -1    0    0    0    0 -0.00000000000E+00 -0.00000000000E+00 -0.19830302908E+04  0.19830302908E+04  0.00000000000E+00 0.  1.
         24    2    1    2    0    0 -0.36006516690E+02 -0.18376665783E+01 -0.13249488653E+04  0.13278683011E+04  0.80280028034E+02 0.  0.
         25    2    1    2    0    0  0.11870049232E+03  0.56552440147E+01 -0.63393335048E+03  0.65699395781E+03  0.12509108321E+03 0.  0.
        -24    2    1    2    0    0 -0.82693975629E+02 -0.38175774364E+01  0.29006814590E+03  0.31238425287E+03  0.81188205240E+02 0.  0.
        -13    1    3    3    0    0 -0.18375372020E+02 -0.16474702553E+02 -0.12280053264E+04  0.12282532930E+04  0.00000000000E+00 0.  1.
         14    1    3    3    0    0 -0.17631144670E+02  0.14637035975E+02 -0.96943538946E+02  0.99615008045E+02  0.00000000000E+00 0. -1.
         11    1    5    5    0    0 -0.74981470924E+02  0.15124592179E+02  0.27865541474E+03  0.28896334445E+03  0.00000000000E+00 0. -1.
        -12    1    5    5    0    0 -0.77125047045E+01 -0.18942169616E+02  0.11412731159E+02  0.23420908417E+02  0.00000000000E+00 0.  1.
          5    1    4    4  501    0  0.20519707952E+02 -0.51113166365E+02 -0.27697131431E+03  0.28242555752E+03  0.41800000000E+01 0. -1.
         -5    1    4    4    0  501  0.98180784367E+02  0.56768410380E+02 -0.35696203617E+03  0.37456840030E+03  0.41800000000E+01 0. -1.
</event>
<event>
11    1  0.8479398E-009  0.1863832E+03  0.7561462E-02  0.1064593E+00
         22   -1    0    0    0    0  0.00000000000E+00  0.00000000000E+00  0.45344477255E+03  0.45344477255E+03  0.00000000000E+00 0.  1.
         22   -1    0    0    0    0 -0.00000000000E+00 -0.00000000000E+00 -0.10585213232E+04  0.10585213232E+04  0.00000000000E+00 0.  1.
        -24    2    1    2    0    0  0.49177066397E+02 -0.28089521590E+02 -0.97517570967E+03  0.98004115439E+03  0.79407773445E+02 0.  0.
         25    2    1    2    0    0  0.82492669869E+02  0.91768647418E+02  0.71797453861E+02  0.18981662859E+03  0.12509577481E+03 0.  0.
         24    2    1    2    0    0 -0.13166973627E+03 -0.63679125828E+02  0.29830170511E+03  0.34210831282E+03  0.81622545406E+02 0.  0.
        -11    1    5    5    0    0 -0.13001035392E+03 -0.70217560683E+02  0.22934786830E+03  0.27282529693E+03  0.00000000000E+00 0.  1.
         12    1    5    5    0    0 -0.16593823503E+01  0.65384348554E+01  0.68953836813E+02  0.69283015894E+02  0.00000000000E+00 0. -1.
         11    1    3    3    0    0  0.25860343510E+02  0.39195746014E+01 -0.83818451676E+02  0.87804631272E+02  0.00000000000E+00 0. -1.
        -12    1    3    3    0    0  0.23316722887E+02 -0.32009096191E+02 -0.89135725799E+03  0.89223652312E+03  0.00000000000E+00 0.  1.
          5    1    4    4  501    0  0.93740995701E+02  0.41013270322E+02  0.88190660086E+02  0.13514631902E+03  0.41800000000E+01 0.  1.
         -5    1    4    4    0  501 -0.11248325832E+02  0.50755377096E+02 -0.16393206225E+02  0.54670309570E+02  0.41800000000E+01 0.  1.
</event>
<event>
11    1  0.8479398E-009  0.1859560E+03  0.7561462E-02  0.1064924E+00
         22   -1    0    0    0    0  0.00000000000E+00  0.00000000000E+00  0.10683499782E+04  0.10683499782E+04  0.00000000000E+00 0.  1.
         22   -1    0    0    0    0 -0.00000000000E+00 -0.00000000000E+00 -0.17794523568E+03  0.17794523568E+03  0.00000000000E+00 0.  1.
        -24    2    1    2    0    0 -0.16253693085E+02 -0.45783335789E+02 -0.13412095024E+03  0.16429523961E+03  0.81511962868E+02 0.  0.
         25    2    1    2    0    0 -0.11524626689E+03  0.84522353276E+02  0.54417790305E+03  0.57637258272E+03  0.12510009475E+03 0.  0.
         24    2    1    2    0    0  0.13149995998E+03 -0.38739017486E+02  0.48034778974E+03  0.50562739158E+03  0.78307784139E+02 0.  0.
        -11    1    5    5    0    0  0.22651619989E+02 -0.39259294877E+02  0.19562723517E+03  0.20080937045E+03  0.00000000000E+00 0.  1.
         12    1    5    5    0    0  0.10884833999E+03  0.52027739136E+00  0.28472055457E+03  0.30481802112E+03  0.00000000000E+00 0. -1.
         11    1    3    3    0    0 -0.26284982510E+02 -0.31955601159E+02 -0.15087125866E+02  0.44041822372E+02  0.00000000000E+00 0. -1.
        -12    1    3    3    0    0  0.10031289424E+02 -0.13827734631E+02 -0.11903382438E+03  0.12025341724E+03  0.00000000000E+00 0.  1.
          5    1    4    4  501    0 -0.38595314901E+02 -0.80909341155E+00  0.28737199728E+02  0.48306852647E+02  0.41800000000E+01 0.  1.
         -5    1    4    4    0  501 -0.76650951993E+02  0.85331446687E+02  0.51544070333E+03  0.52806573008E+03  0.41800000000E+01 0.  1.
</event>
<event>
11    1  0.8479398E-009  0.1416864E+03  0.7561462E-02  0.1105690E+00
         22   -1    0    0    0    0  0.00000000000E+00  0.00000000000E+00  0.26988860603E+03  0.26988860603E+03  0.00000000000E+00 0. -1.
         22   -1    0    0    0    0 -0.00000000000E+00 -0.00000000000E+00 -0.35824737119E+03  0.35824737119E+03  0.00000000000E+00 0. -1.
        -24    2    1    2    0    0 -0.38819772078E+02 -0.61424035535E+02 -0.29185016342E+03  0.31139008296E+03  0.80668327314E+02 0.  0.
         25    2    1    2    0    0  0.69778165293E+01 -0.20876404308E+01  0.64857726169E+02  0.14109272976E+03  0.12509030970E+03 0.  0.
         24    2    1    2    0    0  0.31841955549E+02  0.63511675966E+02  0.13863367209E+03  0.17565316450E+03  0.81160926835E+02 0.  0.
        -13    1    5    5    0    0  0.51620117207E+02  0.12509286511E+02  0.65697745004E+02  0.84482616248E+02  0.00000000000E+00 0.  1.
         14    1    5    5    0    0 -0.19778161659E+02  0.51002389455E+02  0.72935927085E+02  0.91170548251E+02  0.00000000000E+00 0. -1.
         13    1    3    3    0    0 -0.25643214724E+02 -0.49581483028E+02 -0.28787017214E+03  0.29323221843E+03  0.00000000000E+00 0. -1.
        -14    1    3    3    0    0 -0.13176557354E+02 -0.11842552507E+02 -0.39799912832E+01  0.18157864527E+02  0.00000000000E+00 0.  1.
          5    1    4    4  501    0  0.37486167457E+02  0.47109474547E+02  0.98878935753E+01  0.61153562301E+02  0.41800000000E+01 0. -1.
         -5    1    4    4    0  501 -0.30508350928E+02 -0.49197114977E+02  0.54969832594E+02  0.79939167458E+02  0.41800000000E+01 0. -1.
</event>
<event>
11    1  0.8479398E-009  0.1477158E+03  0.7561462E-02  0.1099236E+00
         22   -1    0    0    0    0  0.00000000000E+00  0.00000000000E+00  0.78933843696E+03  0.78933843696E+03  0.00000000000E+00 0.  1.
         22   -1    0    0    0    0 -0.00000000000E+00 -0.00000000000E+00 -0.66669604460E+03  0.66669604460E+03  0.00000000000E+00 0. -1.
         24    2    1    2    0    0  0.11927478226E+02  0.70417903718E+02 -0.46012308333E+03  0.47258037897E+03  0.80734236016E+02 0.  0.
         25    2    1    2    0    0 -0.58683375170E+02 -0.11698363992E+03 -0.15502797009E+03  0.23834821789E+03  0.12508913194E+03 0.  0.
        -24    2    1    2    0    0  0.46755896944E+02  0.46565736198E+02  0.73779344579E+03  0.74510588471E+03  0.80555130815E+02 0.  0.
        -11    1    3    3    0    0 -0.31058974019E+02  0.12787440808E+02 -0.10460429643E+03  0.10986463190E+03  0.00000000000E+00 0.  1.
         12    1    3    3    0    0  0.42986452245E+02  0.57630462910E+02 -0.35551878690E+03  0.36271574707E+03  0.00000000000E+00 0. -1.
         11    1    5    5    0    0  0.11422619051E+02 -0.17196371093E+02  0.34420870964E+03  0.34482724254E+03  0.00000000000E+00 0. -1.
        -12    1    5    5    0    0  0.35333277893E+02  0.63762107291E+02  0.39358473615E+03  0.40027864217E+03  0.00000000000E+00 0.  1.
          5    1    4    4  501    0 -0.56597302988E+02 -0.19518128027E+02 -0.61305694534E+01  0.60326348381E+02  0.41800000000E+01 0.  1.
         -5    1    4    4    0  501 -0.20860721823E+01 -0.97465511889E+02 -0.14889740064E+03  0.17802186950E+03  0.41800000000E+01 0.  1.
</event>
<event>
11    1  0.8479398E-009  0.1274586E+03  0.7561462E-02  0.1122432E+00
         22   -1    0    0    0    0  0.00000000000E+00  0.00000000000E+00  0.30563753202E+03  0.30563753202E+03  0.00000000000E+00 0. -1.
         22   -1    0    0    0    0 -0.00000000000E+00 -0.00000000000E+00 -0.10960689453E+04  0.10960689453E+04  0.00000000000E+00 0. -1.
         24    2    1    2    0    0 -0.16545706729E+02  0.17749208000E+02 -0.10381512364E+04  0.10430224553E+04  0.97719281737E+02 0.  0.
         25    2    1    2    0    0 -0.49936269445E+01 -0.42109171784E+02  0.47731965722E+02  0.14045942558E+03  0.12510951612E+03 0.  0.
        -24    2    1    2    0    0  0.21539333674E+02  0.24359963784E+02  0.19998785735E+03  0.21822459639E+03  0.81052332793E+02 0.  0.
        -11    1    3    3    0    0 -0.47060500502E+02 -0.17409462237E+02 -0.39237983942E+03  0.39557517423E+03  0.00000000000E+00 0.  1.
         12    1    3    3    0    0  0.30514793773E+02  0.35158670237E+02 -0.64577139694E+03  0.64744728112E+03  0.00000000000E+00 0. -1.
         13    1    5    5    0    0 -0.19155865144E+02  0.21654488933E+02  0.15428152715E+03  0.15696704648E+03  0.00000000000E+00 0. -1.
        -14    1    5    5    0    0  0.40695198817E+02  0.27054748511E+01  0.45706330207E+02  0.61257549918E+02  0.00000000000E+00 0.  1.
          5    1    4    4  501    0 -0.48557565050E+02 -0.13659625809E+02  0.67737070974E+02  0.84558888858E+02  0.41800000000E+01 0. -1.
         -5    1    4    4    0  501  0.43563938105E+02 -0.28449545975E+02 -0.20005105252E+02  0.55900536720E+02  0.41800000000E+01 0. -1.
</event>
<event>
11    1  0.8479398E-009  0.1654767E+03  0.7561462E-02  0.1082036E+00
         22   -1    0    0    0    0  0.00000000000E+00  0.00000000000E+00  0.13544729091E+04  0.13544729091E+04  0.00000000000E+00 0. -1.
         22   -1    0    0    0    0 -0.00000000000E+00 -0.00000000000E+00 -0.49118490780E+02  0.49118490780E+02  0.00000000000E+00 0.  1.
         24    2    1    2    0    0  0.68850331219E+02  0.10013310651E+03  0.12492222477E+03  0.19083426099E+03  0.77750535662E+02 0.  0.
         25    2    1    2    0    0  0.27282506498E+02 -0.79455374382E+02  0.63981382244E+03  0.65731757641E+03  0.12508867733E+03 0.  0.
        -24    2    1    2    0    0 -0.96132837717E+02 -0.20677732130E+02  0.54061837112E+03  0.55543956249E+03  0.81091265233E+02 0.  0.
        -11    1    3    3    0    0  0.51267250692E+02  0.10138447830E+02  0.39430635391E+02  0.65466740604E+02  0.00000000000E+00 0.  1.
         12    1    3    3    0    0  0.17583080526E+02  0.89994658682E+02  0.85491589382E+02  0.12536752038E+03  0.00000000000E+00 0. -1.
         11    1    5    5    0    0 -0.46016431425E+02 -0.97902857403E+01  0.43996926502E+03  0.44247747493E+03  0.00000000000E+00 0. -1.
        -12    1    5    5    0    0 -0.50116406292E+02 -0.10887446389E+02  0.10064910610E+03  0.11296208756E+03  0.00000000000E+00 0.  1.
          5    1    4    4  501    0 -0.21887020469E+02  0.16639814268E+02  0.45962502774E+02  0.53721030753E+02  0.41800000000E+01 0. -1.
         -5    1    4    4    0  501  0.49169526966E+02 -0.96095188651E+02  0.59385131966E+03  0.60359654566E+03  0.41800000000E+01 0. -1.
</event>
<event>
11    1  0.8479398E-009  0.1462992E+03  0.7561462E-02  0.1100721E+00
         22   -1    0    0    0    0  0.00000000000E+00  0.00000000000E+00  0.37635052352E+03  0.37635052352E+03  0.00000000000E+00 0. -1.
         22   -1    0    0    0    0 -0.00000000000E+00 -0.00000000000E+00 -0.27618751213E+03  0.27618751213E+03  0.00000000000E+00 0.  1.
         24    2    1    2    0    0  0.13414642732E+02  0.37183987687E+02 -0.21524586701E+03  0.23317010559E+03  0.80466845941E+02 0.  0.
         25    2    1    2    0    0 -0.15219468870E+02 -0.10266923298E+03  0.13727364628E+03  0.21275306885E+03  0.12508881129E+03 0.  0.
        -24    2    1    2    0    0  0.18048261380E+01  0.65485245290E+02  0.17813523212E+03  0.20661486122E+03  0.81645362426E+02 0.  0.
        -13    1    3    3    0    0  0.23360721004E+02  0.33277120817E+02 -0.21830185721E+03  0.22205582838E+03  0.00000000000E+00 0.  1.
         14    1    3    3    0    0 -0.99460782724E+01  0.39068668709E+01  0.30559902023E+01  0.11114277208E+02  0.00000000000E+00 0. -1.
         11    1    5    5    0    0  0.58924182673E+01  0.69489986216E+02  0.18498207371E+03  0.19769154350E+03  0.00000000000E+00 0. -1.
        -12    1    5    5    0    0 -0.40875921293E+01 -0.40047409261E+01 -0.68468415912E+01  0.89233177169E+01  0.00000000000E+00 0.  1.
          5    1    4    4  501    0  0.40560829307E+02 -0.98314329296E+02  0.90243046940E+02  0.13954271081E+03  0.41800000000E+01 0. -1.
         -5    1    4    4    0  501 -0.55780298176E+02 -0.43549036809E+01  0.47030599335E+02  0.73210358041E+02  0.41800000000E+01 0. -1.
</event>
<event>
11    1  0.8479398E-009  0.1480032E+03  0.7561462E-02  0.1098937E+00
         22   -1    0    0    0    0  0.00000000000E+00  0.00000000000E+00  0.12863450752E+04  0.12863450752E+04  0.00000000000E+00 0. -1.
         22   -1    0    0    0    0 -0.00000000000E+00 -0.00000000000E+00 -0.43798337912E+03  0.43798337912E+03  0.00000000000E+00 0. -1.
         24    2    1    2    0    0  0.16714994147E+02  0.78131780847E+02 -0.38881407520E+03  0.40504625743E+03  0.80635720232E+02 0.  0.
         25    2    1    2    0    0 -0.37412062413E+02 -0.59383604996E+02  0.91021713461E+02  0.16988347949E+03  0.12509743932E+03 0.  0.
        -24    2    1    2    0    0  0.20697068266E+02 -0.18748175851E+02  0.11461540579E+04  0.11493987175E+04  0.81660422475E+02 0.  0.
        -11    1    3    3    0    0  0.34923269066E+02  0.58859024738E+01 -0.82105714128E+02  0.89418269177E+02  0.00000000000E+00 0.  1.
         12    1    3    3    0    0 -0.18208274919E+02  0.72245878374E+02 -0.30670836107E+03  0.31562798825E+03  0.00000000000E+00 0. -1.
         13    1    5    5    0    0 -0.18195802893E+02  0.19666838507E+02  0.57804600223E+03  0.57866661600E+03  0.00000000000E+00 0. -1.
        -14    1    5    5    0    0  0.38892871159E+02 -0.38415014359E+02  0.56810805563E+03  0.57073210145E+03  0.00000000000E+00 0.  1.
          5    1    4    4  501    0  0.87811884710E+00 -0.75590749016E+02  0.69883908110E+01  0.76033166682E+02  0.41800000000E+01 0.  1.
         -5    1    4    4    0  501 -0.38290181260E+02  0.16207144020E+02  0.84033322649E+02  0.93850312806E+02  0.41800000000E+01 0.  1.
</event>
<event>
11    1  0.8479398E-009  0.1537378E+03  0.7561462E-02  0.1093120E+00
         22   -1    0    0    0    0  0.00000000000E+00  0.00000000000E+00  0.38299545537E+02  0.38299545537E+02  0.00000000000E+00 0.  1.
         22   -1    0    0    0    0 -0.00000000000E+00 -0.00000000000E+00 -0.35736312871E+04  0.35736312871E+04  0.00000000000E+00 0. -1.
         24    2    1    2    0    0 -0.48002721348E+02  0.36507387626E+02 -0.24917603796E+04  0.24937691715E+04  0.79861384445E+02 0.  0.
         25    2    1    2    0    0  0.12096288878E+03  0.10963107841E+02 -0.95969139305E+03  0.97540118831E+03  0.12509075937E+03 0.  0.
        -24    2    1    2    0    0 -0.72960167433E+02 -0.47470495466E+02 -0.83879968907E+02  0.14276047282E+03  0.75947807377E+02 0.  0.
        -11    1    3    3    0    0 -0.19907215728E+02  0.31271491459E+02 -0.37752709366E+03  0.37934273403E+03  0.00000000000E+00 0.  1.
         12    1    3    3    0    0 -0.28095505620E+02  0.52358961666E+01 -0.21142332859E+04  0.21144264374E+04  0.00000000000E+00 0. -1.
         13    1    5    5    0    0  0.71252206274E+01  0.12693899652E+02 -0.16686953419E+02  0.22144034677E+02  0.00000000000E+00 0. -1.
        -14    1    5    5    0    0 -0.80085388060E+02 -0.60164395119E+02 -0.67193015489E+02  0.12061643815E+03  0.00000000000E+00 0.  1.
          5    1    4    4  501    0  0.81471214088E+02 -0.47683868333E+02 -0.38806629486E+03  0.39940484678E+03  0.41800000000E+01 0. -1.
         -5    1    4    4    0  501  0.39491674692E+02  0.58646976174E+02 -0.57162509818E+03  0.57599634153E+03  0.41800000000E+01 0. -1.
</event>
<event>
11    1  0.8479398E-009  0.1345272E+03  0.7561462E-02  0.1113828E+00
         22   -1    0    0    0    0  0.00000000000E+00  0.00000000000E+00  0.46435283688E+03  0.46435283688E+03  0.00000000000E+00 0. -1.
         22   -1    0    0    0    0 -0.00000000000E+00 -0.00000000000E+00 -0.81983456078E+02  0.81983456078E+02  0.00000000000E+00 0. -1.
         24    2    1    2    0    0 -0.27310951534E+02  0.37610922569E+02  0.64993591141E+01  0.95013371285E+02  0.82612526192E+02 0.  0.
         25    2    1    2    0    0  0.68368745460E+02 -0.19766069606E+02  0.15491992414E+03  0.21145350501E+03  0.12508964394E+03 0.  0.
        -24    2    1    2    0    0 -0.41057793925E+02 -0.17844852964E+02  0.22095009754E+03  0.23986941666E+03  0.81940284518E+02 0.  0.
        -13    1    3    3    0    0 -0.13153112578E+02  0.30919538738E+01  0.41629652557E+02  0.43767482464E+02  0.00000000000E+00 0.  1.
         14    1    3    3    0    0 -0.14157838956E+02  0.34518968695E+02 -0.35130293443E+02  0.51245888821E+02  0.00000000000E+00 0. -1.
         11    1    5    5    0    0 -0.19978933182E+02  0.32829188513E+02  0.95195597354E+02  0.10266019260E+03  0.00000000000E+00 0. -1.
        -12    1    5    5    0    0 -0.21078860743E+02 -0.50674041476E+02  0.12575450019E+03  0.13720922406E+03  0.00000000000E+00 0.  1.
          5    1    4    4  501    0  0.28959850803E+02 -0.32419251556E+01 -0.17175247752E+02  0.34082907338E+02  0.41800000000E+01 0. -1.
         -5    1    4    4    0  501  0.39408894657E+02 -0.16524144450E+02  0.17209517190E+03  0.17737059767E+03  0.41800000000E+01 0. -1.
</event>
<event>
11    1  0.8479398E-009  0.1397203E+03  0.7561462E-02  0.1107871E+00
         22   -1    0    0    0    0  0.00000000000E+00  0.00000000000E+00  0.25404588097E+03  0.25404588097E+03  0.00000000000E+00 0. -1.
         22   -1    0    0    0    0 -0.00000000000E+00 -0.00000000000E+00 -0.10239577284E+04  0.10239577284E+04  0.00000000000E+00 0.  1.
        -24    2    1    2    0    0 -0.33663948197E+02  0.29541891118E+01 -0.32950395856E+03  0.34086294044E+03  0.80453072163E+02 0.  0.
         25    2    1    2    0    0 -0.25081706260E+02 -0.24928835968E+02 -0.67167695931E+03  0.68414060532E+03  0.12509153180E+03 0.  0.
         24    2    1    2    0    0  0.58745654456E+02  0.21974646856E+02  0.23126907044E+03  0.25300006360E+03  0.81177042434E+02 0.  0.
        -13    1    5    5    0    0 -0.18471219109E+02  0.16451688610E+02  0.46518420359E+02  0.52685931957E+02  0.00000000000E+00 0.  1.
         14    1    5    5    0    0  0.77216873566E+02  0.55229582456E+01  0.18475065008E+03  0.20031413165E+03  0.00000000000E+00 0. -1.
         11    1    3    3    0    0 -0.58849275375E+02  0.12288538558E+02 -0.21463676343E+03  0.22289725347E+03  0.00000000000E+00 0. -1.
        -12    1    3    3    0    0  0.25185327178E+02 -0.93343494466E+01 -0.11486719513E+03  0.11796568697E+03  0.00000000000E+00 0.  1.
          5    1    4    4  501    0 -0.81737051477E+01 -0.57918867164E+02 -0.60418925476E+03  0.60702844463E+03  0.41800000000E+01 0. -1.
         -5    1    4    4    0  501 -0.16908001112E+02  0.32990031196E+02 -0.67487704550E+02  0.77112160684E+02  0.41800000000E+01 0. -1.
</event>
<event>
11    1  0.8479398E-009  0.1498052E+03  0.7561462E-02  0.1097078E+00
         22   -1    0    0    0    0  0.00000000000E+00  0.00000000000E+00  0.40876035815E+03  0.40876035815E+03  0.00000000000E+00 0.  1.
         22   -1    0    0    0    0 -0.00000000000E+00 -0.00000000000E+00 -0.33991153123E+03  0.33991153123E+03  0.00000000000E+00 0. -1.
        -24    2    1    2    0    0  0.82321828737E+02  0.31654930961E+00 -0.26240176587E+03  0.28628962113E+03  0.79561779437E+02 0.  0.
         25    2    1    2    0    0 -0.83223981878E+02  0.93165491381E+01  0.34112931908E+02  0.15435067351E+03  0.12508960405E+03 0.  0.
         24    2    1    2    0    0  0.90215314112E+00 -0.96330984477E+01  0.29713766088E+03  0.30803159474E+03  0.80616768607E+02 0.  0.
        -13    1    5    5    0    0 -0.27625607564E+02 -0.33687868933E+02  0.17343167969E+03  0.17882000511E+03  0.00000000000E+00 0.  1.
         14    1    5    5    0    0  0.28527760705E+02  0.24054770485E+02  0.12370598118E+03  0.12921158963E+03  0.00000000000E+00 0. -1.
         13    1    3    3    0    0  0.84503546768E+02  0.24374386646E+02 -0.17867109168E+03  0.19914396587E+03  0.00000000000E+00 0. -1.
        -14    1    3    3    0    0 -0.21817180307E+01 -0.24057837337E+02 -0.83730674189E+02  0.87145655262E+02  0.00000000000E+00 0.  1.
          5    1    4    4  501    0 -0.12950936344E+01 -0.36623394499E+02  0.46678326093E+02  0.59491922300E+02  0.41800000000E+01 0.  1.
         -5    1    4    4    0  501 -0.81928888244E+02  0.45939943637E+02 -0.12565394185E+02  0.94858751211E+02  0.41800000000E+01 0.  1.
</event>
<event>
11    1  0.8479398E-009  0.1647983E+03  0.7561462E-02  0.1082649E+00
         22   -1    0    0    0    0  0.00000000000E+00  0.00000000000E+00  0.25268119647E+04  0.25268119647E+04  0.00000000000E+00 0. -1.
         22   -1    0    0    0    0 -0.00000000000E+00 -0.00000000000E+00 -0.88745114275E+02  0.88745114275E+02  0.00000000000E+00 0.  1.
        -24    2    1    2    0    0  0.42891269528E+02 -0.26928543063E+02 -0.50223368119E+02  0.10773065708E+03  0.80738468748E+02 0.  0.
         25    2    1    2    0    0 -0.13519572708E+03  0.31461765230E+02  0.13266016537E+04  0.13396968378E+04  0.12509173556E+03 0.  0.
         24    2    1    2    0    0  0.92304457553E+02 -0.45332221674E+01  0.11616885648E+04  0.11681295840E+04  0.80409828894E+02 0.  0.
        -11    1    5    5    0    0  0.51913329416E+02 -0.12277866769E+02  0.25556582733E+03  0.26107399694E+03  0.00000000000E+00 0.  1.
         12    1    5    5    0    0  0.40391128137E+02  0.77446446019E+01  0.90612273744E+03  0.90705558708E+03  0.00000000000E+00 0. -1.
         13    1    3    3    0    0  0.27026707404E+02 -0.27673478740E+02  0.14331251563E+02  0.41251049806E+02  0.00000000000E+00 0. -1.
        -14    1    3    3    0    0  0.15864562123E+02  0.74493567749E+00 -0.64554619682E+02  0.66479607271E+02  0.00000000000E+00 0.  1.
          5    1    4    4  501    0  0.11603987209E+02  0.13171434357E+02  0.32609599777E+02  0.37269258106E+02  0.41800000000E+01 0. -1.
         -5    1    4    4    0  501 -0.14679971429E+03  0.18290330874E+02  0.12939920540E+04  0.13024275797E+04  0.41800000000E+01 0. -1.
</event>
<event>
11    1  0.8479398E-009  0.1683759E+03  0.7561462E-02  0.1079454E+00
         22   -1    0    0    0    0  0.00000000000E+00  0.00000000000E+00  0.88607679343E+03  0.88607679343E+03  0.00000000000E+00 0. -1.
         22   -1    0    0    0    0 -0.00000000000E+00 -0.00000000000E+00 -0.48265500231E+03  0.48265500231E+03  0.00000000000E+00 0.  1.
        -24    2    1    2    0    0 -0.10243022565E+03  0.20615069395E+02 -0.33322455435E+03  0.35921631466E+03  0.84147637439E+02 0.  0.
         25    2    1    2    0    0  0.16086237864E+03 -0.25335935276E+02 -0.54306913073E+02  0.21240353632E+03  0.12508959571E+03 0.  0.
         24    2    1    2    0    0 -0.58432152993E+02  0.47208658804E+01  0.79095325854E+03  0.79711194475E+03  0.79647926519E+02 0.  0.
        -11    1    5    5    0    0 -0.12640596358E+02  0.34144349208E+02  0.17435330352E+03  0.17811427710E+03  0.00000000000E+00 0.  1.
         12    1    5    5    0    0 -0.45791556635E+02 -0.29423483328E+02  0.61659995502E+03  0.61899766765E+03  0.00000000000E+00 0. -1.
         13    1    3    3    0    0  0.10781760430E+02  0.34570913212E+01 -0.66077224911E+01  0.13109532215E+02  0.00000000000E+00 0. -1.
        -14    1    3    3    0    0 -0.11321198608E+03  0.17157978074E+02 -0.32661683185E+03  0.34610678245E+03  0.00000000000E+00 0.  1.
          5    1    4    4  501    0  0.98096712222E+02 -0.76055032486E+02 -0.26891947303E+02  0.12707471088E+03  0.41800000000E+01 0. -1.
         -5    1    4    4    0  501  0.62765666423E+02  0.50719097210E+02 -0.27414965770E+02  0.85328825443E+02  0.41800000000E+01 0. -1.
</event>
<event>
11    1  0.8479398E-009  0.1498596E+03  0.7561462E-02  0.1097022E+00
         22   -1    0    0    0    0  0.00000000000E+00  0.00000000000E+00  0.25064891046E+03  0.25064891046E+03  0.00000000000E+00 0. -1.
         22   -1    0    0    0    0 -0.00000000000E+00 -0.00000000000E+00 -0.30278593432E+04  0.30278593432E+04  0.00000000000E+00 0. -1.
        -24    2    1    2    0    0  0.58815204855E+02 -0.48340264671E+01 -0.25649602273E+04  0.25668865992E+04  0.80020306956E+02 0.  0.
         25    2    1    2    0    0 -0.33972482369E+02 -0.74525438353E+02 -0.43532634903E+03  0.46029294747E+03  0.12510953926E+03 0.  0.
         24    2    1    2    0    0 -0.24842722486E+02  0.79359464821E+02  0.22307614362E+03  0.25132870694E+03  0.80548541653E+02 0.  0.
        -11    1    5    5    0    0  0.17031187870E+02 -0.73581150769E+01  0.25510110097E+02  0.31543128173E+02  0.00000000000E+00 0.  1.
         12    1    5    5    0    0 -0.41873910356E+02  0.86717579897E+02  0.19756603352E+03  0.21978557877E+03  0.00000000000E+00 0. -1.
         13    1    3    3    0    0  0.35277212977E+02  0.58149238860E+01 -0.23642736480E+04  0.23645439682E+04  0.00000000000E+00 0. -1.
        -14    1    3    3    0    0  0.23537991877E+02 -0.10648950353E+02 -0.20068657936E+03  0.20234263105E+03  0.00000000000E+00 0.  1.
          5    1    4    4  501    0  0.33102288122E+02 -0.23720857398E+02 -0.44403974006E+02  0.60395578167E+02  0.41800000000E+01 0. -1.
         -5    1    4    4    0  501 -0.67074770491E+02 -0.50804580955E+02 -0.39092237502E+03  0.39989736930E+03  0.41800000000E+01 0. -1.
</event>
<event>
11    1  0.8479398E-009  0.1479097E+03  0.7561462E-02  0.1099034E+00
         22   -1    0    0    0    0  0.00000000000E+00  0.00000000000E+00  0.45159179453E+03  0.45159179453E+03  0.00000000000E+00 0. -1.
         22   -1    0    0    0    0 -0.00000000000E+00 -0.00000000000E+00 -0.14350680501E+04  0.14350680501E+04  0.00000000000E+00 0.  1.
        -24    2    1    2    0    0  0.73427448064E+02 -0.28398242274E+02 -0.13163367636E+04  0.13210821106E+04  0.79482183702E+02 0.  0.
         25    2    1    2    0    0 -0.78444786144E+02  0.24578033788E+02 -0.62036318218E+02  0.16205484762E+03  0.12512235868E+03 0.  0.
         24    2    1    2    0    0  0.50173380800E+01  0.38202084867E+01  0.39489682627E+03  0.40352288636E+03  0.82749312640E+02 0.  0.
        -11    1    5    5    0    0 -0.36440980160E+02  0.12057362061E+02  0.14097804009E+03  0.14611000240E+03  0.00000000000E+00 0.  1.
         12    1    5    5    0    0  0.41458318240E+02 -0.82371535746E+01  0.25391878619E+03  0.25741288396E+03  0.00000000000E+00 0. -1.
         11    1    3    3    0    0 -0.11684160484E+02 -0.22310509035E+02 -0.39516325866E+03  0.39596499772E+03  0.00000000000E+00 0. -1.
        -12    1    3    3    0    0  0.85111608548E+02 -0.60877332393E+01 -0.92117350491E+03  0.92511711289E+03  0.00000000000E+00 0.  1.
          5    1    4    4  501    0  0.29280791948E+02 -0.15686352489E+02 -0.22646951023E+02  0.40420084391E+02  0.41800000000E+01 0. -1.
         -5    1    4    4    0  501 -0.10772557809E+03  0.40264386277E+02 -0.39389367196E+02  0.12163476323E+03  0.41800000000E+01 0. -1.
</event>
<event>
11    1  0.8479398E-009  0.2734008E+03  0.7561462E-02  0.1012123E+00
         22   -1    0    0    0    0  0.00000000000E+00  0.00000000000E+00  0.57591469503E+03  0.57591469503E+03  0.00000000000E+00 0.  1.
         22   -1    0    0    0    0 -0.00000000000E+00 -0.00000000000E+00 -0.98548264346E+03  0.98548264346E+03  0.00000000000E+00 0.  1.
        -24    2    1    2    0    0 -0.19698368822E+03 -0.15594669192E+03 -0.83042095452E+03  0.87129355834E+03  0.80197000828E+02 0.  0.
         25    2    1    2    0    0  0.15766764130E+03  0.12352526234E+03 -0.21974403137E+02  0.23716406640E+03  0.12508534866E+03 0.  0.
         24    2    1    2    0    0  0.39316046927E+02  0.32421429573E+02  0.44282740924E+03  0.45293971375E+03  0.80382642894E+02 0.  0.
        -13    1    5    5    0    0 -0.14526343623E+02 -0.16387387708E+02  0.82506625350E+02  0.85363366626E+02  0.00000000000E+00 0.  1.
         14    1    5    5    0    0  0.53842390550E+02  0.48808817281E+02  0.36032078388E+03  0.36757634712E+03  0.00000000000E+00 0. -1.
         13    1    3    3    0    0 -0.75788486550E+01 -0.12030677461E+02 -0.10812980243E+02  0.17863277662E+02  0.00000000000E+00 0. -1.
        -14    1    3    3    0    0 -0.18940483957E+03 -0.14391601446E+03 -0.81960797428E+03  0.85343028068E+03  0.00000000000E+00 0.  1.
          5    1    4    4  501    0  0.87282373655E+02 -0.47406605313E+01  0.75910010445E+01  0.87839525898E+02  0.41800000000E+01 0.  1.
         -5    1    4    4    0  501  0.70385267641E+02  0.12826592288E+03 -0.29565404181E+02  0.14932454050E+03  0.41800000000E+01 0.  1.
</event>
<event>
11    1  0.8479398E-009  0.1359986E+03  0.7561462E-02  0.1112111E+00
         22   -1    0    0    0    0  0.00000000000E+00  0.00000000000E+00  0.56795825510E+03  0.56795825510E+03  0.00000000000E+00 0.  1.
         22   -1    0    0    0    0 -0.00000000000E+00 -0.00000000000E+00 -0.14696118630E+04  0.14696118630E+04  0.00000000000E+00 0.  1.
        -24    2    1    2    0    0 -0.27749319985E+02 -0.75781028310E+01 -0.13423398336E+04  0.13450604927E+04  0.80523585876E+02 0.  0.
         25    2    1    2    0    0 -0.87758631236E+00  0.52960285139E+02 -0.83474807539E+02  0.15943973169E+03  0.12508965820E+03 0.  0.
         24    2    1    2    0    0  0.28626906298E+02 -0.45382182308E+02  0.52416103319E+03  0.53306989371E+03  0.80868291839E+02 0.  0.
        -11    1    5    5    0    0 -0.22238299140E+01 -0.59201228602E+02  0.40105224670E+03  0.40540428645E+03  0.00000000000E+00 0.  1.
         12    1    5    5    0    0  0.30850736212E+02  0.13819046294E+02  0.12310878649E+03  0.12766560726E+03  0.00000000000E+00 0. -1.
         11    1    3    3    0    0  0.18348725160E+02  0.14494240484E+02 -0.79390849215E+03  0.79425276369E+03  0.00000000000E+00 0. -1.
        -12    1    3    3    0    0 -0.46098045145E+02 -0.22072343315E+02 -0.54843134142E+03  0.55080772903E+03  0.00000000000E+00 0.  1.
          5    1    4    4  501    0  0.44787747143E+02  0.84324077620E+01 -0.83843032892E+02  0.95520544175E+02  0.41800000000E+01 0. -1.
         -5    1    4    4    0  501 -0.45665333455E+02  0.44527877377E+02  0.36822535390E+00  0.63919187520E+02  0.41800000000E+01 0. -1.
</event>
<event>
11    1  0.8479398E-009  0.1470946E+03  0.7561462E-02  0.1099885E+00
         22   -1    0    0    0    0  0.00000000000E+00  0.00000000000E+00  0.61325870370E+03  0.61325870370E+03  0.00000000000E+00 0. -1.
         22   -1    0    0    0    0 -0.00000000000E+00 -0.00000000000E+00 -0.12678313703E+04  0.12678313703E+04  0.00000000000E+00 0.  1.
        -24    2    1    2    0    0  0.17210461249E+01  0.72003432866E+02 -0.92892227821E+03  0.93517465559E+03  0.80421273002E+02 0.  0.
         25    2    1    2    0    0 -0.26569390226E+02 -0.11439819545E+03 -0.30948932548E+03  0.35387092390E+03  0.12509240014E+03 0.  0.
         24    2    1    2    0    0  0.24848344101E+02  0.42394762583E+02  0.58383893705E+03  0.59204449455E+03  0.85053059967E+02 0.  0.
        -11    1    5    5    0    0  0.21264181442E+02  0.27649705587E+02  0.72236869517E+02  0.80217435443E+02  0.00000000000E+00 0.  1.
         12    1    5    5    0    0  0.35841626587E+01  0.14745056997E+02  0.51160206754E+03  0.51182705911E+03  0.00000000000E+00 0. -1.
         13    1    3    3    0    0 -0.39117448429E+02  0.30266261775E+02 -0.40542449324E+03  0.40843021570E+03  0.00000000000E+00 0. -1.
        -14    1    3    3    0    0  0.40838494554E+02  0.41737171091E+02 -0.52349778497E+03  0.52674443989E+03  0.00000000000E+00 0.  1.
          5    1    4    4  501    0 -0.14691598438E+02 -0.54676107911E+02 -0.23500384095E+02  0.61441519297E+02  0.41800000000E+01 0. -1.
         -5    1    4    4    0  501 -0.11877791788E+02 -0.59722087538E+02 -0.28598894139E+03  0.29242940460E+03  0.41800000000E+01 0. -1.
</event>
<event>
11    1  0.8479398E-009  0.1509197E+03  0.7561462E-02  0.1095943E+00
         22   -1    0    0    0    0  0.00000000000E+00  0.00000000000E+00  0.29822461374E+03  0.29822461374E+03  0.00000000000E+00 0.  1.
         22   -1    0    0    0    0 -0.00000000000E+00 -0.00000000000E+00 -0.13429435522E+04  0.13429435522E+04  0.00000000000E+00 0.  1.
         24    2    1    2    0    0 -0.69559835603E+02 -0.44834189318E+02 -0.11409035693E+04  0.11467386919E+04  0.80622564352E+02 0.  0.
         25    2    1    2    0    0  0.63255450022E+02  0.96351189400E+02 -0.15272414573E+03  0.22859692632E+03  0.12508831430E+03 0.  0.
        -24    2    1    2    0    0  0.63043855816E+01 -0.51517000082E+02  0.24890877658E+03  0.26583254768E+03  0.77573305800E+02 0.  0.
        -11    1    3    3    0    0 -0.82662377542E+02 -0.20316401360E+02 -0.95238634184E+03  0.95618281147E+03  0.00000000000E+00 0.  1.
         12    1    3    3    0    0  0.13102541939E+02 -0.24517787958E+02 -0.18851722742E+03  0.19055588043E+03  0.00000000000E+00 0. -1.
         11    1    5    5    0    0  0.19472314157E+02  0.15151572518E+02  0.52723878345E+02  0.58211240463E+02  0.00000000000E+00 0. -1.
        -12    1    5    5    0    0 -0.13167928576E+02 -0.66668572600E+02  0.19618489823E+03  0.20762130721E+03  0.00000000000E+00 0.  1.
          5    1    4    4  501    0  0.29241016012E+02  0.62689658423E+02 -0.84829264296E+00  0.69305283283E+02  0.41800000000E+01 0. -1.
         -5    1    4    4    0  501  0.34014434010E+02  0.33661530977E+02 -0.15187585309E+03  0.15929164303E+03  0.41800000000E+01 0. -1.
</event>
<event>
11    1  0.8479398E-009  0.1511062E+03  0.7561462E-02  0.1095754E+00
         22   -1    0    0    0    0  0.00000000000E+00  0.00000000000E+00  0.62614322046E+03  0.62614322046E+03  0.00000000000E+00 0.  1.
         22   -1    0    0    0    0 -0.00000000000E+00 -0.00000000000E+00 -0.90757148872E+02  0.90757148872E+02  0.00000000000E+00 0.  1.
        -24    2    1    2    0    0  0.80765986239E+02  0.83259619103E+01  0.27609784857E+02  0.12232910431E+03  0.87233269843E+02 0.  0.
         25    2    1    2    0    0 -0.92354802743E+02 -0.74319563618E+00  0.11423443192E+03  0.19294256222E+03  0.12508942780E+03 0.  0.
         24    2    1    2    0    0  0.11588816504E+02 -0.75827662741E+01  0.39354185480E+03  0.40162870280E+03  0.78984963235E+02 0.  0.
        -13    1    5    5    0    0  0.23917268698E+02  0.44991116408E+01  0.34764839543E+02  0.42436680078E+02  0.00000000000E+00 0.  1.
         14    1    5    5    0    0 -0.12328452195E+02 -0.12081877915E+02  0.35877701526E+03  0.35919202272E+03  0.00000000000E+00 0. -1.
         13    1    3    3    0    0  0.66582361587E+02 -0.15551188350E+02  0.51576231949E+02  0.85645537161E+02  0.00000000000E+00 0. -1.
        -14    1    3    3    0    0  0.14183624653E+02  0.23877150260E+02 -0.23966447092E+02  0.36683567153E+02  0.00000000000E+00 0.  1.
          5    1    4    4  501    0 -0.94442488430E+02  0.47431703299E+02  0.89681643362E+02  0.13867018301E+03  0.41800000000E+01 0.  1.
         -5    1    4    4    0  501  0.20876856868E+01 -0.48174898935E+02  0.24552788563E+02  0.54272379210E+02  0.41800000000E+01 0.  1.
</event>
<event>
11    1  0.8479398E-009  0.1450767E+03  0.7561462E-02  0.1102018E+00
         22   -1    0    0    0    0  0.00000000000E+00  0.00000000000E+00  0.35450916059E+03  0.35450916059E+03  0.00000000000E+00 0.  1.
         22   -1    0    0    0    0 -0.00000000000E+00 -0.00000000000E+00 -0.52990211337E+03  0.52990211337E+03  0.00000000000E+00 0.  1.
         24    2    1    2    0    0  0.22961463138E+02 -0.17927343520E+02 -0.45731505764E+03  0.46390871737E+03  0.72288433844E+02 0.  0.
         25    2    1    2    0    0  0.47225188731E+02 -0.16775880771E+02  0.21238179451E+02  0.13641728113E+03  0.12508783193E+03 0.  0.
        -24    2    1    2    0    0 -0.70186651869E+02  0.34703224291E+02  0.26068392542E+03  0.28408527546E+03  0.81350199062E+02 0.  0.
        -11    1    3    3    0    0 -0.17967659889E+02  0.10589792430E+02 -0.61007501590E+02  0.64473992864E+02  0.00000000000E+00 0.  1.
         12    1    3    3    0    0  0.40929123027E+02 -0.28517135950E+02 -0.39630755605E+03  0.39943472450E+03  0.00000000000E+00 0. -1.
         13    1    5    5    0    0 -0.27154433916E+02  0.43267653233E+02  0.60651115253E+02  0.79296979003E+02  0.00000000000E+00 0. -1.
        -14    1    5    5    0    0 -0.43032217953E+02 -0.85644289412E+01  0.20003281016E+03  0.20478829646E+03  0.00000000000E+00 0.  1.
          5    1    4    4  501    0  0.86093343272E+02 -0.29380013688E+02  0.20627433739E+01  0.91087739407E+02  0.41800000000E+01 0. -1.
         -5    1    4    4    0  501 -0.38868154541E+02  0.12604132917E+02  0.19175436077E+02  0.45329541722E+02  0.41800000000E+01 0. -1.
</event>
<event>
11    1  0.8479398E-009  0.1363149E+03  0.7561462E-02  0.1111745E+00
         22   -1    0    0    0    0  0.00000000000E+00  0.00000000000E+00  0.27596316421E+03  0.27596316421E+03  0.00000000000E+00 0.  1.
         22   -1    0    0    0    0 -0.00000000000E+00 -0.00000000000E+00 -0.38413443356E+03  0.38413443356E+03  0.00000000000E+00 0. -1.
        -24    2    1    2    0    0  0.87483457029E+00 -0.54229377322E+02 -0.30433486873E+03  0.31994405356E+03  0.82479660415E+02 0.  0.
         25    2    1    2    0    0  0.78264709148E+01  0.53549958482E+02  0.94005829350E+01  0.13662089915E+03  0.12509215572E+03 0.  0.
         24    2    1    2    0    0 -0.87013054851E+01  0.67941884027E+00  0.18676301646E+03  0.20353264506E+03  0.80429714434E+02 0.  0.
        -13    1    5    5    0    0 -0.10592753309E+01 -0.22581822165E+02  0.17484730357E+03  0.17630269516E+03  0.00000000000E+00 0.  1.
         14    1    5    5    0    0 -0.76420301542E+01  0.23261241006E+02  0.11915712888E+02  0.27229949901E+02  0.00000000000E+00 0. -1.
         13    1    3    3    0    0 -0.58033053240E+01 -0.74616205608E+02 -0.20283795765E+03  0.21620474915E+03  0.00000000000E+00 0. -1.
        -14    1    3    3    0    0  0.66781398943E+01  0.20386828286E+02 -0.10149691109E+03  0.10373930441E+03  0.00000000000E+00 0.  1.
          5    1    4    4  501    0  0.27607724696E+02  0.31277548356E+02 -0.52863071748E+02  0.67471833002E+02  0.41800000000E+01 0.  1.
         -5    1    4    4    0  501 -0.19781253781E+02  0.22272410126E+02  0.62263654683E+02  0.69149066143E+02  0.41800000000E+01 0.  1.
</event>
<event>
11    1  0.8479398E-009  0.1521017E+03  0.7561462E-02  0.1094750E+00
         22   -1    0    0    0    0  0.00000000000E+00  0.00000000000E+00  0.55274968186E+03  0.55274968186E+03  0.00000000000E+00 0.  1.
         22   -1    0    0    0    0 -0.00000000000E+00 -0.00000000000E+00 -0.46547307087E+03  0.46547307087E+03  0.00000000000E+00 0.  1.
        -24    2    1    2    0    0 -0.44300380717E+02  0.72876751653E+01 -0.35009335195E+03  0.36034137704E+03  0.72559761491E+02 0.  0.
         25    2    1    2    0    0  0.99130576936E+02  0.57627252336E+02 -0.33071500002E+02  0.17288471080E+03  0.12509047774E+03 0.  0.
         24    2    1    2    0    0 -0.54830196219E+02 -0.64914927502E+02  0.47044146295E+03  0.48499666489E+03  0.81769778412E+02 0.  0.
        -13    1    5    5    0    0 -0.16260933975E+02 -0.29626205798E+02  0.37203085551E+03  0.37356269553E+03  0.00000000000E+00 0.  1.
         14    1    5    5    0    0 -0.38569262244E+02 -0.35288721703E+02  0.98410607442E+02  0.11143396936E+03  0.00000000000E+00 0. -1.
         11    1    3    3    0    0 -0.31881613867E+02 -0.17821079247E+02 -0.70980939885E+02  0.79826825036E+02  0.00000000000E+00 0. -1.
        -12    1    3    3    0    0 -0.12418766849E+02  0.25108754412E+02 -0.27911241207E+03  0.28051455201E+03  0.00000000000E+00 0.  1.
          5    1    4    4  501    0  0.10337384325E+01 -0.34666903629E+02 -0.62912522396E+01  0.35495282463E+02  0.41800000000E+01 0.  1.
         -5    1    4    4    0  501  0.98096838503E+02  0.92294155965E+02 -0.26780247763E+02  0.13738942834E+03  0.41800000000E+01 0.  1.
</event>
<event>
11    1  0.8479398E-009  0.1657925E+03  0.7561462E-02  0.1081752E+00
         22   -1    0    0    0    0  0.00000000000E+00  0.00000000000E+00  0.40113460432E+03  0.40113460432E+03  0.00000000000E+00 0. -1.
         22   -1    0    0    0    0 -0.00000000000E+00 -0.00000000000E+00 -0.43934763546E+03  0.43934763546E+03  0.00000000000E+00 0. -1.
         24    2    1    2    0    0 -0.24015772068E+02  0.60423492487E+02 -0.32557494834E+03  0.34847896808E+03  0.10588101084E+03 0.  0.
         25    2    1    2    0    0  0.92549957552E+02 -0.13301775921E+03  0.32899860596E+02  0.20733845193E+03  0.12509042294E+03 0.  0.
        -24    2    1    2    0    0 -0.68534185484E+02  0.72594266724E+02  0.25446205661E+03  0.28466481977E+03  0.79474896787E+02 0.  0.
        -13    1    3    3    0    0  0.70418421483E+00  0.17476642762E+02  0.16081962680E+01  0.17564601131E+02  0.00000000000E+00 0.  1.
         14    1    3    3    0    0 -0.24719956283E+02  0.42946849724E+02 -0.32718314461E+03  0.33091436695E+03  0.00000000000E+00 0. -1.
         13    1    5    5    0    0 -0.80423623593E+02  0.78242408172E+02  0.24098497207E+03  0.26582624105E+03  0.00000000000E+00 0. -1.
        -14    1    5    5    0    0  0.11889438109E+02 -0.56481414479E+01  0.13477084533E+02  0.18838578711E+02  0.00000000000E+00 0.  1.
          5    1    4    4  501    0 -0.21492467824E+02 -0.35054407255E+01 -0.16674459817E+02  0.27743905602E+02  0.41800000000E+01 0. -1.
         -5    1    4    4    0  501  0.11404242538E+03 -0.12951231848E+03  0.49574320413E+02  0.17959454632E+03  0.41800000000E+01 0. -1.
</event>
<event>
11    1  0.8479398E-009  0.1346722E+03  0.7561462E-02  0.1113658E+00
         22   -1    0    0    0    0  0.00000000000E+00  0.00000000000E+00  0.49733024323E+03  0.49733024323E+03  0.00000000000E+00 0.  1.
         22   -1    0    0    0    0 -0.00000000000E+00 -0.00000000000E+00 -0.19523887587E+04  0.19523887587E+04  0.00000000000E+00 0. -1.
        -24    2    1    2    0    0  0.50134982952E+02 -0.50559533845E+01 -0.17353332352E+04  0.17379075524E+04  0.80013400580E+02 0.  0.
         25    2    1    2    0    0 -0.43544314147E+02 -0.20922567524E+02 -0.19068342876E+03  0.23311375593E+03  0.12509193448E+03 0.  0.
         24    2    1    2    0    0 -0.65906688052E+01  0.25978520908E+02  0.47095814855E+03  0.47869769356E+03  0.81434536099E+02 0.  0.
        -13    1    5    5    0    0  0.36469098071E+02  0.10067689637E+02  0.26490405082E+03  0.26759205823E+03  0.00000000000E+00 0.  1.
         14    1    5    5    0    0 -0.43059766876E+02  0.15910831271E+02  0.20605409774E+03  0.21110563533E+03  0.00000000000E+00 0. -1.
         11    1    3    3    0    0  0.50015769584E+02 -0.37248672450E+02 -0.11380101894E+04  0.11397176106E+04  0.00000000000E+00 0. -1.
        -12    1    3    3    0    0  0.11921336734E+00  0.32192719065E+02 -0.59732304582E+03  0.59818994178E+03  0.00000000000E+00 0.  1.
          5    1    4    4  501    0 -0.23473279349E+02 -0.53131743698E+02 -0.25498501382E+02  0.63573760346E+02  0.41800000000E+01 0.  1.
         -5    1    4    4    0  501 -0.20071034797E+02  0.32209176174E+02 -0.16518492738E+03  0.16953999558E+03  0.41800000000E+01 0.  1.
</event>
<event>
11    1  0.8479398E-009  0.4277779E+03  0.7561462E-02  0.9571176E-01
         22   -1    0    0    0    0  0.00000000000E+00  0.00000000000E+00  0.41616110475E+03  0.41616110475E+03  0.00000000000E+00 0. -1.
         22   -1    0    0    0    0 -0.00000000000E+00 -0.00000000000E+00 -0.80772457672E+03  0.80772457672E+03  0.00000000000E+00 0. -1.
        -24    2    1    2    0    0  0.21937688063E+03  0.16125041455E+03 -0.66026929839E+03  0.71871569409E+03  0.80428791976E+02 0.  0.
         25    2    1    2    0    0 -0.19096755187E+02 -0.33565896902E+02 -0.91339848154E+01  0.13124008922E+03  0.12509666601E+03 0.  0.
         24    2    1    2    0    0 -0.20028012545E+03 -0.12768451764E+03  0.27783981123E+03  0.37392989816E+03  0.78823494829E+02 0.  0.
        -11    1    5    5    0    0 -0.11774914440E+03 -0.10086157531E+03  0.12922817869E+03  0.20183617255E+03  0.00000000000E+00 0.  1.
         12    1    5    5    0    0 -0.82530981041E+02 -0.26822942332E+02  0.14861163254E+03  0.17209372561E+03  0.00000000000E+00 0. -1.
         13    1    3    3    0    0  0.22109559475E+03  0.14054565953E+03 -0.59258669658E+03  0.64791614997E+03  0.00000000000E+00 0. -1.
        -14    1    3    3    0    0 -0.17187141217E+01  0.20704755016E+02 -0.67682601813E+02  0.70799544113E+02  0.00000000000E+00 0.  1.
          5    1    4    4  501    0  0.11050023908E+02 -0.11833044466E+02 -0.63270122081E+02  0.65442377079E+02  0.41800000000E+01 0. -1.
         -5    1    4    4    0  501 -0.30146779095E+02 -0.21732852436E+02  0.54136137265E+02  0.65797712140E+02  0.41800000000E+01 0. -1.
</event>
<event>
11    1  0.8479398E-009  0.1263599E+03  0.7561462E-02  0.1123824E+00
         22   -1    0    0    0    0  0.00000000000E+00  0.00000000000E+00  0.38102770888E+03  0.38102770888E+03  0.00000000000E+00 0.  1.
         22   -1    0    0    0    0 -0.00000000000E+00 -0.00000000000E+00 -0.11050559285E+04  0.11050559285E+04  0.00000000000E+00 0.  1.
         24    2    1    2    0    0  0.21526735839E+01 -0.10313977645E+02 -0.10545560718E+04  0.10576242099E+04  0.79808826081E+02 0.  0.
         25    2    1    2    0    0 -0.12731133133E+02 -0.51828947942E+01  0.49439874857E+02  0.13520489117E+03  0.12508843760E+03 0.  0.
        -24    2    1    2    0    0  0.10578459549E+02  0.15496872439E+02  0.28108797736E+03  0.29325453624E+03  0.81459899010E+02 0.  0.
        -13    1    3    3    0    0  0.10546816229E+02 -0.43282277796E+02 -0.70876592306E+03  0.71016457571E+03  0.00000000000E+00 0.  1.
         14    1    3    3    0    0 -0.83941426451E+01  0.32968300151E+02 -0.34579014874E+03  0.34745963422E+03  0.00000000000E+00 0. -1.
         13    1    5    5    0    0 -0.34058581409E+01  0.23140957210E+00 -0.51992321453E+01  0.62197616487E+01  0.00000000000E+00 0. -1.
        -14    1    5    5    0    0  0.13984317690E+02  0.15265462867E+02  0.28628720951E+03  0.28703477459E+03  0.00000000000E+00 0.  1.
          5    1    4    4  501    0  0.16771689998E+01 -0.49766729223E+02  0.68212204101E+02  0.84557184330E+02  0.41800000000E+01 0. -1.
         -5    1    4    4    0  501 -0.14408302133E+02  0.44583834429E+02 -0.18772329245E+02  0.50647706839E+02  0.41800000000E+01 0. -1.
</event>
<event>
11    1  0.8479398E-009  0.1533599E+03  0.7561462E-02  0.1093494E+00
         22   -1    0    0    0    0  0.00000000000E+00  0.00000000000E+00  0.13244046378E+04  0.13244046378E+04  0.00000000000E+00 0. -1.
         22   -1    0    0    0    0 -0.00000000000E+00 -0.00000000000E+00 -0.54729855532E+03  0.54729855532E+03  0.00000000000E+00 0. -1.
        -24    2    1    2    0    0  0.86164503648E+02 -0.10031821101E+02 -0.48584052587E+03  0.49993799411E+03  0.79824947615E+02 0.  0.
         25    2    1    2    0    0 -0.14029084250E+03 -0.22816489241E+02  0.11960279093E+03  0.22394940330E+03  0.12508555059E+03 0.  0.
         24    2    1    2    0    0  0.54126338856E+02  0.32848310342E+02  0.11433438174E+04  0.11478157957E+04  0.78976857452E+02 0.  0.
        -13    1    5    5    0    0  0.39553659988E+02 -0.46041766859E+01  0.21848042647E+03  0.22207968663E+03  0.00000000000E+00 0.  1.
         14    1    5    5    0    0  0.14572678868E+02  0.37452487028E+02  0.92486339096E+03  0.92573610910E+03  0.00000000000E+00 0. -1.
         11    1    3    3    0    0  0.10092596640E+03 -0.34825665678E+01 -0.39707546980E+03  0.40971588654E+03  0.00000000000E+00 0. -1.
        -12    1    3    3    0    0 -0.14761462750E+02 -0.65492545330E+01 -0.88765056061E+02  0.90222107574E+02  0.00000000000E+00 0.  1.
          5    1    4    4  501    0 -0.24980716040E+02 -0.58712782481E+02  0.18981164733E+02  0.66700704758E+02  0.41800000000E+01 0.  1.
         -5    1    4    4    0  501 -0.11531012646E+03  0.35896293241E+02  0.10062162620E+03  0.15724869854E+03  0.41800000000E+01 0.  1.
</event>
<event>
11    1  0.8479398E-009  0.1406973E+03  0.7561462E-02  0.1106782E+00
         22   -1    0    0    0    0  0.00000000000E+00  0.00000000000E+00  0.10576871693E+04  0.10576871693E+04  0.00000000000E+00 0.  1.
         22   -1    0    0    0    0 -0.00000000000E+00 -0.00000000000E+00 -0.21547398249E+03  0.21547398249E+03  0.00000000000E+00 0. -1.
        -24    2    1    2    0    0  0.46843706169E+02 -0.24225772152E+02 -0.66850922023E+02  0.11769589343E+03  0.81253041242E+02 0.  0.
         25    2    1    2    0    0 -0.10628589338E+03  0.15185286651E+01 -0.64586296938E+02  0.17640187993E+03  0.12508891409E+03 0.  0.
         24    2    1    2    0    0  0.59442187210E+02  0.22707243487E+02  0.97365040574E+03  0.97906337841E+03  0.80752670591E+02 0.  0.
        -11    1    5    5    0    0  0.23734367586E+02  0.47418608714E+02  0.69823195694E+03  0.70024260821E+03  0.00000000000E+00 0.  1.
         12    1    5    5    0    0  0.35707819624E+02 -0.24711365227E+02  0.27541844880E+03  0.27882077020E+03  0.00000000000E+00 0. -1.
         11    1    3    3    0    0  0.45644989855E+02  0.33088418003E+01 -0.41125150335E+00  0.45766610763E+02  0.00000000000E+00 0. -1.
        -12    1    3    3    0    0  0.11987163144E+01 -0.27534613953E+02 -0.66439670520E+02  0.71929282668E+02  0.00000000000E+00 0.  1.
          5    1    4    4  501    0 -0.86403795362E+02  0.57259680500E+02 -0.50722664480E+02  0.11547531319E+03  0.41800000000E+01 0. -1.
         -5    1    4    4    0  501 -0.19882098017E+02 -0.55741151835E+02 -0.13863632458E+02  0.60926566737E+02  0.41800000000E+01 0. -1.
</event>
<event>
11    1  0.8479398E-009  0.1547850E+03  0.7561462E-02  0.1092087E+00
         22   -1    0    0    0    0  0.00000000000E+00  0.00000000000E+00  0.80744466923E+03  0.80744466923E+03  0.00000000000E+00 0.  1.
         22   -1    0    0    0    0 -0.00000000000E+00 -0.00000000000E+00 -0.10367642287E+03  0.10367642287E+03  0.00000000000E+00 0. -1.
        -24    2    1    2    0    0  0.42297207489E+02  0.91357323533E+01 -0.41930720997E+02  0.10221293373E+03  0.82563812245E+02 0.  0.
         25    2    1    2    0    0 -0.11355605841E+03 -0.50022056106E+02  0.28904052424E+03  0.33851053130E+03  0.12509104942E+03 0.  0.
         24    2    1    2    0    0  0.71258850925E+02  0.40886323753E+02  0.45665844310E+03  0.47039762707E+03  0.77378799339E+02 0.  0.
        -11    1    5    5    0    0  0.14437078377E+02 -0.10125551495E+02  0.24054362125E+03  0.24118911615E+03  0.00000000000E+00 0.  1.
         12    1    5    5    0    0  0.56821772549E+02  0.51011875248E+02  0.21611482185E+03  0.22920851092E+03  0.00000000000E+00 0. -1.
         13    1    3    3    0    0 -0.71218799382E+01  0.27289347362E+02 -0.40742299529E+02  0.49551635938E+02  0.00000000000E+00 0. -1.
        -14    1    3    3    0    0  0.49419087427E+02 -0.18153615009E+02 -0.11884214680E+01  0.52661297796E+02  0.00000000000E+00 0.  1.
          5    1    4    4  501    0 -0.60421168214E+02 -0.68667366209E+02  0.25866624331E+03  0.27439318975E+03  0.41800000000E+01 0. -1.
         -5    1    4    4    0  501 -0.53134890200E+02  0.18645310103E+02  0.30374280929E+02  0.64117341549E+02  0.41800000000E+01 0. -1.
</event>
<event>
11    1  0.8479398E-009  0.1431417E+03  0.7561462E-02  0.1104100E+00
         22   -1    0    0    0    0  0.00000000000E+00  0.00000000000E+00  0.38469847378E+03  0.38469847378E+03  0.00000000000E+00 0.  1.
         22   -1    0    0    0    0 -0.00000000000E+00 -0.00000000000E+00 -0.94775991203E+03  0.94775991203E+03  0.00000000000E+00 0. -1.
         24    2    1    2    0    0  0.14926437794E+02  0.11396427614E+02 -0.89219387165E+03  0.89592593950E+03  0.79502876288E+02 0.  0.
         25    2    1    2    0    0  0.54228024524E+02  0.12727972135E+02  0.67236740158E+02  0.15254964527E+03  0.12509170686E+03 0.  0.
        -24    2    1    2    0    0 -0.69154462318E+02 -0.24124399749E+02  0.26189569324E+03  0.28398280105E+03  0.81808012034E+02 0.  0.
        -13    1    3    3    0    0  0.25216604305E+02 -0.20469181559E+02 -0.17743126980E+03  0.18037937806E+03  0.00000000000E+00 0.  1.
         14    1    3    3    0    0 -0.10290166511E+02  0.31865609173E+02 -0.71476260186E+03  0.71554656144E+03  0.00000000000E+00 0. -1.
         13    1    5    5    0    0 -0.13257065252E+02 -0.44084669983E+02  0.76139257973E+02  0.88974122705E+02  0.00000000000E+00 0. -1.
        -14    1    5    5    0    0 -0.55897397066E+02  0.19960270233E+02  0.18575643527E+03  0.19500867835E+03  0.00000000000E+00 0.  1.
          5    1    4    4  501    0  0.43559097779E+01 -0.34220646103E+02  0.75810350183E+02  0.83394892917E+02  0.41800000000E+01 0. -1.
         -5    1    4    4    0  501  0.49872114746E+02  0.46948618238E+02 -0.85736100245E+01  0.69154752350E+02  0.41800000000E+01 0. -1.
</event>
<event>
11    1  0.8479398E-009  0.1315680E+03  0.7561462E-02  0.1117357E+00
         22   -1    0    0    0    0  0.00000000000E+00  0.00000000000E+00  0.61626297911E+03  0.61626297911E+03  0.00000000000E+00 0.  1.
         22   -1    0    0    0    0 -0.00000000000E+00 -0.00000000000E+00 -0.31113004957E+03  0.31113004957E+03  0.00000000000E+00 0.  1.
        -24    2    1    2    0    0  0.25977927843E+02 -0.66273901917E+01 -0.13952507464E+03  0.16344872919E+03  0.80805108646E+02 0.  0.
         25    2    1    2    0    0  0.49829892718E-01 -0.25361208302E+02 -0.13008674585E+03  0.18224579248E+03  0.12509106308E+03 0.  0.
         24    2    1    2    0    0 -0.26027757736E+02  0.31988598494E+02  0.57474475003E+03  0.58169850702E+03  0.79629835915E+02 0.  0.
        -11    1    5    5    0    0 -0.11865426878E+02  0.43077574787E+02  0.54576093664E+03  0.54758694813E+03  0.00000000000E+00 0.  1.
         12    1    5    5    0    0 -0.14162330858E+02 -0.11088976294E+02  0.28983813393E+02  0.34111558882E+02  0.00000000000E+00 0. -1.
         13    1    3    3    0    0 -0.28281197383E+00  0.72827576893E+01  0.92264545904E+01  0.11757806193E+02  0.00000000000E+00 0. -1.
        -14    1    3    3    0    0  0.26260739817E+02 -0.13910147881E+02 -0.14875152923E+03  0.15169092299E+03  0.00000000000E+00 0.  1.
          5    1    4    4  501    0 -0.28304355293E+02  0.33411079781E+02 -0.10199998911E+03  0.11108063269E+03  0.41800000000E+01 0.  1.
         -5    1    4    4    0  501  0.28354185186E+02 -0.58772288083E+02 -0.28086756738E+02  0.71165159791E+02  0.41800000000E+01 0.  1.
</event>
<event>
11    1  0.8479398E-009  0.2513445E+03  0.7561462E-02  0.1023185E+00
         22   -1    0    0    0    0  0.00000000000E+00  0.00000000000E+00  0.43621836613E+03  0.43621836613E+03  0.00000000000E+00 0. -1.
         22   -1    0    0    0    0 -0.00000000000E+00 -0.00000000000E+00 -0.12505781643E+04  0.12505781643E+04  0.00000000000E+00 0.  1.
        -24    2    1    2    0    0 -0.19162949813E+03  0.12590150937E+03 -0.89937112425E+03  0.93067142254E+03  0.68613577281E+02 0.  0.
         25    2    1    2    0    0  0.17922918782E+03 -0.69918992565E+02 -0.28949385531E+03  0.36941013179E+03  0.12508151710E+03 0.  0.
         24    2    1    2    0    0  0.12400310316E+02 -0.55982516803E+02  0.37450518141E+03  0.38671497607E+03  0.77501818858E+02 0.  0.
        -11    1    5    5    0    0 -0.32118061035E+02 -0.17822616682E+02  0.17275910873E+03  0.17662085143E+03  0.00000000000E+00 0.  1.
         12    1    5    5    0    0  0.44518371351E+02 -0.38159900121E+02  0.20174607268E+03  0.21009412464E+03  0.00000000000E+00 0. -1.
         13    1    3    3    0    0 -0.29225962434E+02 -0.54694745467E+01 -0.90245984453E+02  0.95017944315E+02  0.00000000000E+00 0. -1.
        -14    1    3    3    0    0 -0.16240353570E+03  0.13137098391E+03 -0.80912513980E+03  0.83565347823E+03  0.00000000000E+00 0.  1.
          5    1    4    4  501    0  0.90394979914E+02 -0.43551284717E+02 -0.24844428920E+03  0.26797388684E+03  0.41800000000E+01 0.  1.
         -5    1    4    4    0  501  0.88834207903E+02 -0.26367707848E+02 -0.41049566113E+02  0.10143624495E+03  0.41800000000E+01 0.  1.
</event>
<event>
11    1  0.8479398E-009  0.1660603E+03  0.7561462E-02  0.1081512E+00
         22   -1    0    0    0    0  0.00000000000E+00  0.00000000000E+00  0.10414618901E+04  0.10414618901E+04  0.00000000000E+00 0. -1.
         22   -1    0    0    0    0 -0.00000000000E+00 -0.00000000000E+00 -0.10028259771E+03  0.10028259771E+03  0.00000000000E+00 0.  1.
         24    2    1    2    0    0 -0.68492203159E+02 -0.75119194879E+02 -0.79741229779E+01  0.12959137375E+03  0.79976635222E+02 0.  0.
         25    2    1    2    0    0  0.81251818284E+02  0.13755206297E+03  0.35712551525E+03  0.41073792412E+03  0.12507829815E+03 0.  0.
        -24    2    1    2    0    0 -0.12759615125E+02 -0.62432868087E+02  0.59202790016E+03  0.60141518998E+03  0.84513462688E+02 0.  0.
        -13    1    3    3    0    0 -0.64194548248E+02 -0.41780913458E+02 -0.37107625124E+02  0.85109109951E+02  0.00000000000E+00 0.  1.
         14    1    3    3    0    0 -0.42976549105E+01 -0.33338281421E+02  0.29133502146E+02  0.44482263804E+02  0.00000000000E+00 0. -1.
         13    1    5    5    0    0 -0.15830270617E+02 -0.14648676802E+02  0.46752225849E+03  0.46801949039E+03  0.00000000000E+00 0. -1.
        -14    1    5    5    0    0  0.30706554926E+01 -0.47784191285E+02  0.12450564167E+03  0.13339569959E+03  0.00000000000E+00 0.  1.
          5    1    4    4  501    0 -0.16133415267E+02  0.21951335691E+02  0.15968511255E+03  0.16204615329E+03  0.41800000000E+01 0.  1.
         -5    1    4    4    0  501  0.97385233551E+02  0.11560072727E+03  0.19744040270E+03  0.24869177083E+03  0.41800000000E+01 0.  1.
</event>
<event>
11    1  0.8479398E-009  0.1489785E+03  0.7561462E-02  0.1097927E+00
         22   -1    0    0    0    0  0.00000000000E+00  0.00000000000E+00  0.14407782145E+04  0.14407782145E+04  0.00000000000E+00 0. -1.
         22   -1    0    0    0    0 -0.00000000000E+00 -0.00000000000E+00 -0.15758674514E+03  0.15758674514E+03  0.00000000000E+00 0.  1.
        -24    2    1    2    0    0 -0.68220841539E+02 -0.39050194911E+02 -0.10702128166E+03  0.15547861192E+03  0.80876715411E+02 0.  0.
         25    2    1    2    0    0  0.11218126244E+03  0.22510262670E+02  0.27233902388E+03  0.32079190562E+03  0.12509018834E+03 0.  0.
         24    2    1    2    0    0 -0.43960420899E+02  0.16539932241E+02  0.11178737271E+04  0.11220944421E+04  0.85136238920E+02 0.  0.
        -11    1    5    5    0    0  0.16273042739E+02  0.14257645818E+02  0.94412563632E+02  0.96859819098E+02  0.00000000000E+00 0.  1.
         12    1    5    5    0    0 -0.60233463638E+02  0.22822864226E+01  0.10234611635E+04  0.10252346230E+04  0.00000000000E+00 0. -1.
         11    1    3    3    0    0 -0.16543884825E+01 -0.10512651608E+02 -0.75911975855E+02  0.76654294878E+02  0.00000000000E+00 0. -1.
        -12    1    3    3    0    0 -0.66566453057E+02 -0.28537543303E+02 -0.31109305802E+02  0.78824317046E+02  0.00000000000E+00 0.  1.
          5    1    4    4  501    0  0.11707916550E+02  0.21530792048E+02 -0.53697617716E+01  0.25435350551E+02  0.41800000000E+01 0.  1.
         -5    1    4    4    0  501  0.10047334589E+03  0.97947062245E+00  0.27770878565E+03  0.29535655507E+03  0.41800000000E+01 0.  1.
</event>
<event>
11    1  0.8479398E-009  0.2460920E+03  0.7561462E-02  0.1026002E+00
         22   -1    0    0    0    0  0.00000000000E+00  0.00000000000E+00  0.67957484447E+03  0.67957484447E+03  0.00000000000E+00 0. -1.
         22   -1    0    0    0    0 -0.00000000000E+00 -0.00000000000E+00 -0.15213291961E+03  0.15213291961E+03  0.00000000000E+00 0.  1.
        -24    2    1    2    0    0  0.62274578094E+02  0.97933617950E+01  0.45632006745E+02  0.11333770887E+03  0.82396135838E+02 0.  0.
         25    2    1    2    0    0 -0.22826270383E+03  0.10116729809E+03  0.13462617167E+03  0.31001661506E+03  0.12508961329E+03 0.  0.
         24    2    1    2    0    0  0.16598812574E+03 -0.11096065988E+03  0.34718374644E+03  0.40835344014E+03  0.79697254388E+02 0.  0.
        -11    1    5    5    0    0  0.13432284902E+03 -0.11573629302E+03  0.25354821516E+03  0.30939330100E+03  0.00000000000E+00 0.  1.
         12    1    5    5    0    0  0.31665276720E+02  0.47756331427E+01  0.93635531276E+02  0.98960139142E+02  0.00000000000E+00 0. -1.
         11    1    3    3    0    0  0.39849868667E+02  0.27818957871E+02  0.63124878200E+02  0.79665906746E+02  0.00000000000E+00 0. -1.
        -12    1    3    3    0    0  0.22424709426E+02 -0.18025596076E+02 -0.17492871456E+02  0.33671802127E+02  0.00000000000E+00 0.  1.
          5    1    4    4  501    0 -0.22195271866E+03  0.91942385572E+02  0.78711115675E+02  0.25284248795E+03  0.41800000000E+01 0. -1.
         -5    1    4    4    0  501 -0.63099851769E+01  0.92249125142E+01  0.55915055997E+02  0.57174127112E+02  0.41800000000E+01 0. -1.
</event>
<event>
11    1  0.8479398E-009  0.1311354E+03  0.7561462E-02  0.1117882E+00
         22   -1    0    0    0    0  0.00000000000E+00  0.00000000000E+00  0.12873444031E+03  0.12873444031E+03  0.00000000000E+00 0.  1.
         22   -1    0    0    0    0 -0.00000000000E+00 -0.00000000000E+00 -0.73827776313E+03  0.73827776313E+03  0.00000000000E+00 0.  1.
         24    2    1    2    0    0  0.24585027716E+02 -0.25754985300E+02 -0.51550466940E+03  0.52294690764E+03  0.80378238256E+02 0.  0.
         25    2    1    2    0    0 -0.33117626610E+02  0.57531030078E+02 -0.17493253781E+03  0.22506181244E+03  0.12507929493E+03 0.  0.
        -24    2    1    2    0    0  0.85325988946E+01 -0.31776044778E+02  0.80893884384E+02  0.11900348336E+03  0.80842354344E+02 0.  0.
        -11    1    3    3    0    0  0.25887345910E+02  0.23782417882E+02 -0.28606445241E+03  0.28821628860E+03  0.00000000000E+00 0.  1.
         12    1    3    3    0    0 -0.13023181938E+01 -0.49537403182E+02 -0.22944021698E+03  0.23473061904E+03  0.00000000000E+00 0. -1.
         11    1    5    5    0    0 -0.27835537602E+02  0.75896235752E+01  0.10887075383E+02  0.30837443961E+02  0.00000000000E+00 0. -1.
        -12    1    5    5    0    0  0.36368136497E+02 -0.39365668353E+02  0.70006809001E+02  0.88166039401E+02  0.00000000000E+00 0.  1.
          5    1    4    4  501    0 -0.11830069104E+02  0.96292308516E+02 -0.12344839072E+03  0.15706411680E+03  0.41800000000E+01 0.  1.
         -5    1    4    4    0  501 -0.21287557506E+02 -0.38761278438E+02 -0.51484147086E+02  0.67997695637E+02  0.41800000000E+01 0.  1.
</event>
<event>
11    1  0.8479398E-009  0.1670779E+03  0.7561462E-02  0.1080603E+00
         22   -1    0    0    0    0  0.00000000000E+00  0.00000000000E+00  0.88623619757E+02  0.88623619757E+02  0.00000000000E+00 0.  1.
         22   -1    0    0    0    0 -0.00000000000E+00 -0.00000000000E+00 -0.22025191255E+04  0.22025191255E+04  0.00000000000E+00 0.  1.
        -24    2    1    2    0    0  0.48977897745E+01 -0.36533362977E+02 -0.15406468507E+04  0.15431645017E+04  0.80033029361E+02 0.  0.
         25    2    1    2    0    0 -0.19850603313E+02 -0.76589633240E+02 -0.58923026068E+03  0.60753577566E+03  0.12508956886E+03 0.  0.
         24    2    1    2    0    0  0.14952813538E+02  0.11312299622E+03  0.15981605622E+02  0.14044246791E+03  0.80301159194E+02 0.  0.
        -11    1    5    5    0    0  0.43127625654E+02  0.99058976528E+02  0.12303325224E+02  0.10873842346E+03  0.00000000000E+00 0.  1.
         12    1    5    5    0    0 -0.28174812116E+02  0.14064019689E+02  0.36782803981E+01  0.31704044446E+02  0.00000000000E+00 0. -1.
         13    1    3    3    0    0  0.11388215954E+02  0.76575608869E+01 -0.50013187768E+02  0.51861822684E+02  0.00000000000E+00 0. -1.
        -14    1    3    3    0    0 -0.64904261790E+01 -0.44190923863E+02 -0.14906336629E+04  0.14913026790E+04  0.00000000000E+00 0.  1.
          5    1    4    4  501    0 -0.36207843568E+02 -0.25093048132E+02 -0.50777640854E+03  0.50970091472E+03  0.41800000000E+01 0.  1.
         -5    1    4    4    0  501  0.16357240255E+02 -0.51496585108E+02 -0.81453852145E+02  0.97834860944E+02  0.41800000000E+01 0.  1.
</event>
<event>
11    1  0.8479398E-009  0.1494873E+03  0.7561462E-02  0.1097404E+00
         22   -1    0    0    0    0  0.00000000000E+00  0.00000000000E+00  0.25152867838E+04  0.25152867838E+04  0.00000000000E+00 0. -1.
         22   -1    0    0    0    0 -0.00000000000E+00 -0.00000000000E+00 -0.46767047918E+03  0.46767047918E+03  0.00000000000E+00 0.  1.
         24    2    1    2    0    0 -0.20332870522E+01  0.77967124063E+02 -0.30193107045E+03  0.32211359763E+03  0.80695673891E+02 0.  0.
         25    2    1    2    0    0 -0.36754374912E+02 -0.97365116320E+02 -0.11206266438E+03  0.19757602121E+03  0.12508954176E+03 0.  0.
        -24    2    1    2    0    0  0.38787661965E+02  0.19397992257E+02  0.24616100394E+04  0.24632676441E+04  0.79263708865E+02 0.  0.
        -11    1    3    3    0    0 -0.35526532811E+02  0.60252713680E+02 -0.14965107181E+03  0.16519069990E+03  0.00000000000E+00 0.  1.
         12    1    3    3    0    0  0.33493245759E+02  0.17714410383E+02 -0.15227999864E+03  0.15692289773E+03  0.00000000000E+00 0. -1.
         11    1    5    5    0    0  0.59159967733E+02  0.11006832531E+01  0.19764081320E+04  0.19772936599E+04  0.00000000000E+00 0. -1.
        -12    1    5    5    0    0 -0.20372305769E+02  0.18297309003E+02  0.48520190739E+03  0.48597398417E+03  0.00000000000E+00 0.  1.
          5    1    4    4  501    0 -0.69000922085E+02 -0.10316244256E+03 -0.65239673734E+02  0.14027581485E+03  0.41800000000E+01 0. -1.
         -5    1    4    4    0  501  0.32246547173E+02  0.57973262378E+01 -0.46822990643E+02  0.57300206360E+02  0.41800000000E+01 0. -1.
</event>
