<event>
11    1  0.8299058E-009  0.1540480E+03  0.7561462E-02  0.1092813E+00
         22   -1    0    0    0    0  0.00000000000E+00  0.00000000000E+00  0.10533858918E+04  0.10533858918E+04  0.00000000000E+00 0. -1.
         22   -1    0    0    0    0 -0.00000000000E+00 -0.00000000000E+00 -0.79144720442E+03  0.79144720442E+03  0.00000000000E+00 0. -1.
        -24    2    1    2    0    0 -0.27657388718E+02 -0.84920865767E+02 -0.72681792997E+03  0.73643030007E+03  0.78030756421E+02 0.  0.
         25    2    1    2    0    0  0.61012031390E+02  0.89815392402E+02  0.60711165142E+02  0.17641835561E+03  0.12509323697E+03 0.  0.
         24    2    1    2    0    0 -0.33354642672E+02 -0.48945266348E+01  0.92804545224E+03  0.93198444058E+03  0.78677490289E+02 0.  0.
        -13    1    5    5    0    0  0.10364959172E+02 -0.10525342433E+02  0.36865830725E+02  0.39715295378E+02  0.00000000000E+00 0.  1.
         14    1    5    5    0    0 -0.43719601844E+02  0.56308157983E+01  0.89117962151E+03  0.89226914520E+03  0.00000000000E+00 0. -1.
         11    1    3    3    0    0  0.13149415586E+02 -0.62780681625E+02 -0.28234638202E+03  0.28954067168E+03  0.00000000000E+00 0. -1.
        -12    1    3    3    0    0 -0.40806804304E+02 -0.22140184142E+02 -0.44447154795E+03  0.44688962839E+03  0.00000000000E+00 0.  1.
          5    1    4    4  501    0  0.59517312306E+02  0.37143926977E+02 -0.25941674012E+02  0.74916117265E+02  0.41800000000E+01 0. -1.
         -5    1    4    4    0  501  0.14947190839E+01  0.52671465424E+02  0.86652839154E+02  0.10150223834E+03  0.41800000000E+01 0. -1.
</event>
<event>
11    1  0.8299058E-009  0.1483680E+03  0.7561462E-02  0.1098558E+00
         22   -1    0    0    0    0  0.00000000000E+00  0.00000000000E+00  0.48654840566E+02  0.48654840566E+02  0.00000000000E+00 0. -1.
         22   -1    0    0    0    0 -0.00000000000E+00 -0.00000000000E+00 -0.12344072894E+04  0.12344072894E+04  0.00000000000E+00 0. -1.
        -24    2    1    2    0    0 -0.61799395721E+02 -0.59841674802E+02 -0.65542250993E+03  0.66636151328E+03  0.84016715598E+02 0.  0.
         25    2    1    2    0    0 -0.12681094441E+02  0.91478392449E+02 -0.45756891868E+03  0.48326559101E+03  0.12508880714E+03 0.  0.
         24    2    1    2    0    0  0.74480490162E+02 -0.31636717648E+02 -0.72761020261E+02  0.13343502571E+03  0.77217321243E+02 0.  0.
        -11    1    5    5    0    0  0.83394512961E+02 -0.50708870704E+01 -0.50290027372E+02  0.97516386011E+02  0.00000000000E+00 0.  1.
         12    1    5    5    0    0 -0.89140227994E+01 -0.26565830577E+02 -0.22470992889E+02  0.35918639703E+02  0.00000000000E+00 0. -1.
         13    1    3    3    0    0 -0.45846654854E+02 -0.67509280271E+01 -0.48365463266E+03  0.48586962704E+03  0.00000000000E+00 0. -1.
        -14    1    3    3    0    0 -0.15952740867E+02 -0.53090746775E+02 -0.17176787727E+03  0.18049188624E+03  0.00000000000E+00 0.  1.
          5    1    4    4  501    0 -0.50207522835E+02  0.59020561760E+02 -0.39861653134E+03  0.40609953646E+03  0.41800000000E+01 0. -1.
         -5    1    4    4    0  501  0.37526428394E+02  0.32457830689E+02 -0.58952387345E+02  0.77166054550E+02  0.41800000000E+01 0. -1.
</event>
<event>
11    1  0.8299058E-009  0.2099311E+03  0.7561462E-02  0.1047715E+00
         22   -1    0    0    0    0  0.00000000000E+00  0.00000000000E+00  0.23860406767E+03  0.23860406767E+03  0.00000000000E+00 0. -1.
         22   -1    0    0    0    0 -0.00000000000E+00 -0.00000000000E+00 -0.17350416117E+04  0.17350416117E+04  0.00000000000E+00 0.  1.
         24    2    1    2    0    0  0.29151772163E+02 -0.17924175451E+02 -0.13038115093E+04  0.13066924646E+04  0.79684650010E+02 0.  0.
         25    2    1    2    0    0 -0.11284150070E+03  0.16087937602E+03 -0.35305672663E+03  0.42297986646E+03  0.12509011674E+03 0.  0.
        -24    2    1    2    0    0  0.83689728533E+02 -0.14295520057E+03  0.16043069187E+03  0.24397334832E+03  0.79654427164E+02 0.  0.
        -13    1    3    3    0    0  0.41570672504E+02 -0.16268618875E+02 -0.12673964696E+04  0.12681824001E+04  0.00000000000E+00 0.  1.
         14    1    3    3    0    0 -0.12418900341E+02 -0.16555565759E+01 -0.36415039642E+02  0.38510064469E+02  0.00000000000E+00 0. -1.
         11    1    5    5    0    0  0.44746067190E+02 -0.10745173656E+03  0.15064650473E+03  0.19037451407E+03  0.00000000000E+00 0. -1.
        -12    1    5    5    0    0  0.38943661343E+02 -0.35503464007E+02  0.97841871349E+01  0.53598834252E+02  0.00000000000E+00 0.  1.
          5    1    4    4  501    0 -0.10734605344E+03  0.46778427713E+02 -0.20235525024E+03  0.23383010111E+03  0.41800000000E+01 0. -1.
         -5    1    4    4    0  501 -0.54954472579E+01  0.11410094830E+03 -0.15070147639E+03  0.18914976535E+03  0.41800000000E+01 0. -1.
</event>
<event>
11    1  0.8299058E-009  0.1423263E+03  0.7561462E-02  0.1104988E+00
         22   -1    0    0    0    0  0.00000000000E+00  0.00000000000E+00  0.93659034831E+02  0.93659034831E+02  0.00000000000E+00 0. -1.
         22   -1    0    0    0    0 -0.00000000000E+00 -0.00000000000E+00 -0.21890313045E+04  0.21890313045E+04  0.00000000000E+00 0. -1.
         24    2    1    2    0    0  0.11306437662E+02 -0.65116807082E+02 -0.12606577877E+04  0.12648901669E+04  0.79504984864E+02 0.  0.
         25    2    1    2    0    0 -0.35489759088E+02  0.66722341663E+02 -0.90034801988E+03  0.91213262034E+03  0.12509183153E+03 0.  0.
        -24    2    1    2    0    0  0.24183321427E+02 -0.16055345812E+01  0.65633537898E+02  0.10566755207E+03  0.79186232936E+02 0.  0.
        -11    1    3    3    0    0 -0.22090861936E+02 -0.80363963505E+01 -0.11791400291E+03  0.12023436252E+03  0.00000000000E+00 0.  1.
         12    1    3    3    0    0  0.33397299598E+02 -0.57080410731E+02 -0.11427437848E+04  0.11446558044E+04  0.00000000000E+00 0. -1.
         11    1    5    5    0    0 -0.91095779820E+01 -0.25225079485E+02  0.58328216218E+02  0.64198674855E+02  0.00000000000E+00 0. -1.
        -12    1    5    5    0    0  0.33292899409E+02  0.23619544903E+02  0.73053216807E+01  0.41468877213E+02  0.00000000000E+00 0.  1.
          5    1    4    4  501    0  0.23062833845E+02  0.34471637803E+02 -0.91868465580E+02  0.10088347479E+03  0.41800000000E+01 0.  1.
         -5    1    4    4    0  501 -0.58552592934E+02  0.32250703861E+02 -0.80847955430E+03  0.81124914555E+03  0.41800000000E+01 0.  1.
</event>
<event>
11    1  0.8299058E-009  0.2414459E+03  0.7561462E-02  0.1028557E+00
         22   -1    0    0    0    0  0.00000000000E+00  0.00000000000E+00  0.53792876096E+03  0.53792876096E+03  0.00000000000E+00 0.  1.
         22   -1    0    0    0    0 -0.00000000000E+00 -0.00000000000E+00 -0.53151650605E+03  0.53151650605E+03  0.00000000000E+00 0.  1.
        -24    2    1    2    0    0  0.79609394561E+02  0.17859603572E+03 -0.26197751169E+03  0.33670840602E+03  0.80660612282E+02 0.  0.
         25    2    1    2    0    0 -0.10994633047E+03 -0.20084911535E+03 -0.15270295865E+03  0.30231586878E+03  0.12509247866E+03 0.  0.
         24    2    1    2    0    0  0.30336935910E+02  0.22253079627E+02  0.42109272525E+03  0.43042099220E+03  0.80793675722E+02 0.  0.
        -13    1    5    5    0    0  0.19313693917E+01 -0.22768207640E+02  0.25463986006E+03  0.25566302000E+03  0.00000000000E+00 0.  1.
         14    1    5    5    0    0  0.28405566519E+02  0.45021287268E+02  0.16645286519E+03  0.17475797220E+03  0.00000000000E+00 0. -1.
         13    1    3    3    0    0  0.90923340451E+01 -0.76150700010E+01 -0.20929285936E+02  0.24056076973E+02  0.00000000000E+00 0. -1.
        -14    1    3    3    0    0  0.70517060516E+02  0.18621110572E+03 -0.24104822575E+03  0.31265232904E+03  0.00000000000E+00 0.  1.
          5    1    4    4  501    0 -0.76866763498E+02 -0.10594710528E+03 -0.15343385569E+03  0.20172433894E+03  0.41800000000E+01 0.  1.
         -5    1    4    4    0  501 -0.33079566973E+02 -0.94902010066E+02  0.73089703889E+00  0.10059152984E+03  0.41800000000E+01 0.  1.
</event>
<event>
11    1  0.8299058E-009  0.1340974E+03  0.7561462E-02  0.1114335E+00
         22   -1    0    0    0    0  0.00000000000E+00  0.00000000000E+00  0.20511593938E+03  0.20511593938E+03  0.00000000000E+00 0.  1.
         22   -1    0    0    0    0 -0.00000000000E+00 -0.00000000000E+00 -0.31472101327E+03  0.31472101327E+03  0.00000000000E+00 0.  1.
        -24    2    1    2    0    0  0.37289793135E+02  0.26713764514E+01 -0.10692894250E+03  0.13994450626E+03  0.82176646103E+02 0.  0.
         25    2    1    2    0    0 -0.26485311651E+02 -0.50105084395E+02 -0.15120461793E+03  0.20426053888E+03  0.12509012768E+03 0.  0.
         24    2    1    2    0    0 -0.10804481484E+02  0.47433707944E+02  0.14852848654E+03  0.17563190751E+03  0.80119673939E+02 0.  0.
        -13    1    5    5    0    0  0.19446017680E+02  0.12064302766E+02  0.11747186255E+03  0.11968012991E+03  0.00000000000E+00 0.  1.
         14    1    5    5    0    0 -0.30250499164E+02  0.35369405178E+02  0.31056623983E+02  0.55951777591E+02  0.00000000000E+00 0. -1.
         13    1    3    3    0    0  0.68449458744E+01 -0.35850133112E+02 -0.24362138575E+02  0.43881649059E+02  0.00000000000E+00 0. -1.
        -14    1    3    3    0    0  0.30444847261E+02  0.38521509563E+02 -0.82566803928E+02  0.96062857206E+02  0.00000000000E+00 0.  1.
          5    1    4    4  501    0  0.23189307707E+01 -0.54845773111E+02 -0.16334248255E+03  0.17237074947E+03  0.41800000000E+01 0. -1.
         -5    1    4    4    0  501 -0.28804242421E+02  0.47406887153E+01  0.12137864618E+02  0.31889789408E+02  0.41800000000E+01 0. -1.
</event>
<event>
11    1  0.8299058E-009  0.1503113E+03  0.7561462E-02  0.1096561E+00
         22   -1    0    0    0    0  0.00000000000E+00  0.00000000000E+00  0.22989662266E+03  0.22989662266E+03  0.00000000000E+00 0. -1.
         22   -1    0    0    0    0 -0.00000000000E+00 -0.00000000000E+00 -0.78553235502E+03  0.78553235502E+03  0.00000000000E+00 0. -1.
         24    2    1    2    0    0  0.10038761635E+03  0.55388950984E+02 -0.59854285625E+03  0.61447606159E+03  0.78623597543E+02 0.  0.
         25    2    1    2    0    0 -0.59843308272E+02  0.33027446759E+02 -0.11689042437E+03  0.18434314515E+03  0.12508792935E+03 0.  0.
        -24    2    1    2    0    0 -0.40544308075E+02 -0.88416397743E+02  0.15979754827E+03  0.21660977094E+03  0.10919357183E+03 0.  0.
        -13    1    3    3    0    0  0.23389510980E+02  0.47096118867E+02 -0.14225393848E+03  0.15166178375E+03  0.00000000000E+00 0.  1.
         14    1    3    3    0    0  0.76998105368E+02  0.82928321171E+01 -0.45628891777E+03  0.46281427784E+03  0.00000000000E+00 0. -1.
         13    1    5    5    0    0 -0.76392093833E+02 -0.77051003460E+02  0.11466076213E+03  0.15785974631E+03  0.00000000000E+00 0. -1.
        -14    1    5    5    0    0  0.35847785758E+02 -0.11365394282E+02  0.45136786137E+02  0.58750024627E+02  0.00000000000E+00 0.  1.
          5    1    4    4  501    0 -0.70717789387E+02  0.40627352393E+02 -0.13723671131E+03  0.15969650851E+03  0.41800000000E+01 0. -1.
         -5    1    4    4    0  501  0.10874481115E+02 -0.75999056342E+01  0.20346286944E+02  0.24646636638E+02  0.41800000000E+01 0. -1.
</event>
<event>
11    1  0.8299058E-009  0.2639050E+03  0.7561462E-02  0.1016742E+00
         22   -1    0    0    0    0  0.00000000000E+00  0.00000000000E+00  0.50217848781E+03  0.50217848781E+03  0.00000000000E+00 0. -1.
         22   -1    0    0    0    0 -0.00000000000E+00 -0.00000000000E+00 -0.11942951212E+04  0.11942951212E+04  0.00000000000E+00 0. -1.
        -24    2    1    2    0    0 -0.20870624225E+03 -0.60718773522E+02 -0.72026503895E+03  0.75750518558E+03  0.88245763792E+02 0.  0.
         25    2    1    2    0    0  0.27319320456E+03  0.36553698309E+02 -0.39808190170E+03  0.50008735989E+03  0.12508983642E+03 0.  0.
         24    2    1    2    0    0 -0.64486962311E+02  0.24165075212E+02  0.42623030732E+03  0.43888106350E+03  0.78751468932E+02 0.  0.
        -13    1    5    5    0    0 -0.44767672369E+02 -0.19834656558E+02  0.13329102319E+03  0.14200019350E+03  0.00000000000E+00 0.  1.
         14    1    5    5    0    0 -0.19719289942E+02  0.43999731770E+02  0.29293928412E+03  0.29688087000E+03  0.00000000000E+00 0. -1.
         13    1    3    3    0    0 -0.84751587411E+02 -0.32636931824E+01 -0.40700858430E+03  0.41575169387E+03  0.00000000000E+00 0. -1.
        -14    1    3    3    0    0 -0.12395465484E+03 -0.57455080339E+02 -0.31325645466E+03  0.34175349171E+03  0.00000000000E+00 0.  1.
          5    1    4    4  501    0  0.70728501612E+01 -0.24085515708E+02 -0.14496136642E+02  0.29287329237E+02  0.41800000000E+01 0. -1.
         -5    1    4    4    0  501  0.26612035440E+03  0.60639214017E+02 -0.38358576506E+03  0.47080003065E+03  0.41800000000E+01 0. -1.
</event>
<event>
11    1  0.8299058E-009  0.1256463E+04  0.7561462E-02  0.8467257E-01
         22   -1    0    0    0    0  0.00000000000E+00  0.00000000000E+00  0.13479894375E+04  0.13479894375E+04  0.00000000000E+00 0. -1.
         22   -1    0    0    0    0 -0.00000000000E+00 -0.00000000000E+00 -0.16077789407E+04  0.16077789407E+04  0.00000000000E+00 0. -1.
         24    2    1    2    0    0  0.88808859142E+02  0.87242629975E+02 -0.67574011469E+01  0.14795058751E+03  0.79658169243E+02 0.  0.
         25    2    1    2    0    0 -0.10322666929E+04  0.71600282431E+03 -0.75208731433E+03  0.14695297601E+04  0.12509123684E+03 0.  0.
        -24    2    1    2    0    0  0.94345783381E+03 -0.80324545428E+03  0.49905521224E+03  0.13382880306E+04  0.81503399370E+02 0.  0.
        -13    1    3    3    0    0  0.62723960567E+02  0.11439128520E+02 -0.19730569846E+02  0.66741623272E+02  0.00000000000E+00 0.  1.
         14    1    3    3    0    0  0.26084898574E+02  0.75803501455E+02  0.12973168700E+02  0.81208964237E+02  0.00000000000E+00 0. -1.
         13    1    5    5    0    0  0.43956156652E+03 -0.32587756756E+03  0.23809870775E+03  0.59674245234E+03  0.00000000000E+00 0. -1.
        -14    1    5    5    0    0  0.50389626729E+03 -0.47736788672E+03  0.26095650449E+03  0.74154557830E+03  0.00000000000E+00 0.  1.
          5    1    4    4  501    0 -0.23166877348E+03  0.21374584908E+03 -0.22581219201E+03  0.38777097244E+03  0.41800000000E+01 0.  1.
         -5    1    4    4    0  501 -0.80059791947E+03  0.50225697522E+03 -0.52627512232E+03  0.10817587876E+04  0.41800000000E+01 0.  1.
</event>
<event>
11    1  0.8299058E-009  0.2606241E+03  0.7561462E-02  0.1018387E+00
         22   -1    0    0    0    0  0.00000000000E+00  0.00000000000E+00  0.11501519500E+04  0.11501519500E+04  0.00000000000E+00 0.  1.
         22   -1    0    0    0    0 -0.00000000000E+00 -0.00000000000E+00 -0.13373664967E+03  0.13373664967E+03  0.00000000000E+00 0. -1.
        -24    2    1    2    0    0  0.10379621393E+02 -0.23564311416E+03  0.59165746830E+02  0.25632883577E+03  0.81046114384E+02 0.  0.
         25    2    1    2    0    0 -0.95817177344E+02  0.19092832731E+03  0.64224431549E+03  0.68830181762E+03  0.12508826372E+03 0.  0.
         24    2    1    2    0    0  0.85437555952E+02  0.44714786846E+02  0.31500523800E+03  0.33925794628E+03  0.81047307276E+02 0.  0.
        -11    1    5    5    0    0  0.74163803107E+02 -0.56133891696E+01  0.18862748138E+03  0.20276120576E+03  0.00000000000E+00 0.  1.
         12    1    5    5    0    0  0.11273752844E+02  0.50328176016E+02  0.12637775662E+03  0.13649674052E+03  0.00000000000E+00 0. -1.
         13    1    3    3    0    0  0.24929436802E+02 -0.22621016667E+03  0.41050894987E+02  0.23125244280E+03  0.00000000000E+00 0. -1.
        -14    1    3    3    0    0 -0.14549815409E+02 -0.94329474924E+01  0.18114851843E+02  0.25076392965E+02  0.00000000000E+00 0.  1.
          5    1    4    4  501    0 -0.10131587279E+03  0.20625583170E+03  0.61142059881E+03  0.65319139251E+03  0.41800000000E+01 0. -1.
         -5    1    4    4    0  501  0.54986954480E+01 -0.15327504385E+02  0.30823716676E+02  0.35110425119E+02  0.41800000000E+01 0. -1.
</event>
<event>
11    1  0.8299058E-009  0.1286142E+03  0.7561462E-02  0.1120983E+00
         22   -1    0    0    0    0  0.00000000000E+00  0.00000000000E+00  0.85370870367E+03  0.85370870367E+03  0.00000000000E+00 0. -1.
         22   -1    0    0    0    0 -0.00000000000E+00 -0.00000000000E+00 -0.25984146654E+03  0.25984146654E+03  0.00000000000E+00 0.  1.
         24    2    1    2    0    0 -0.31423534403E+02 -0.62851434834E+01 -0.13496967368E+03  0.16072935122E+03  0.81179861958E+02 0.  0.
         25    2    1    2    0    0  0.47956209623E+02  0.30557116207E+02 -0.66228435724E+02  0.15253531525E+03  0.12508909348E+03 0.  0.
        -24    2    1    2    0    0 -0.16532675221E+02 -0.24271972724E+02  0.79506534652E+03  0.80028550375E+03  0.86403265305E+02 0.  0.
        -11    1    3    3    0    0  0.16495317071E+02  0.10109354828E+02 -0.92890076936E+02  0.94883407050E+02  0.00000000000E+00 0.  1.
         12    1    3    3    0    0 -0.47918851473E+02 -0.16394498311E+02 -0.42079596740E+02  0.65845944167E+02  0.00000000000E+00 0. -1.
         13    1    5    5    0    0  0.15149365181E+02 -0.48827073242E+02  0.45884882530E+03  0.46168802327E+03  0.00000000000E+00 0. -1.
        -14    1    5    5    0    0 -0.31682040402E+02  0.24555100518E+02  0.33621652122E+03  0.33859748048E+03  0.00000000000E+00 0.  1.
          5    1    4    4  501    0  0.23701129075E+02  0.84687815029E+01  0.36546261562E+02  0.44570903219E+02  0.41800000000E+01 0.  1.
         -5    1    4    4    0  501  0.24255080548E+02  0.22088334704E+02 -0.10277469729E+03  0.10796441203E+03  0.41800000000E+01 0.  1.
</event>
<event>
11    1  0.8299058E-009  0.1414632E+03  0.7561462E-02  0.1105935E+00
         22   -1    0    0    0    0  0.00000000000E+00  0.00000000000E+00  0.11266348057E+04  0.11266348057E+04  0.00000000000E+00 0. -1.
         22   -1    0    0    0    0 -0.00000000000E+00 -0.00000000000E+00 -0.16308205926E+03  0.16308205926E+03  0.00000000000E+00 0. -1.
        -24    2    1    2    0    0  0.52718532873E+02 -0.39650809444E+02 -0.12510932081E+03  0.16027343758E+03  0.75390995748E+02 0.  0.
         25    2    1    2    0    0 -0.69988155315E+02  0.18650051427E+02  0.26883571838E+03  0.30523398537E+03  0.12509586742E+03 0.  0.
         24    2    1    2    0    0  0.17269622441E+02  0.21000758016E+02  0.81982634887E+03  0.82420944201E+03  0.80415734113E+02 0.  0.
        -13    1    5    5    0    0  0.14414419678E+02 -0.89063971100E+01  0.35796046800E+02  0.39603741877E+02  0.00000000000E+00 0.  1.
         14    1    5    5    0    0  0.28552027631E+01  0.29907155126E+02  0.78403030207E+03  0.78460570013E+03  0.00000000000E+00 0. -1.
         13    1    3    3    0    0  0.35360120345E+02 -0.62291569747E+02 -0.90860268980E+02  0.11569860091E+03  0.00000000000E+00 0. -1.
        -14    1    3    3    0    0  0.17358412529E+02  0.22640760304E+02 -0.34249051835E+02  0.44574836671E+02  0.00000000000E+00 0.  1.
          5    1    4    4  501    0  0.11228057640E+02  0.53627922783E+02  0.85358984480E+02  0.10151675730E+03  0.41800000000E+01 0. -1.
         -5    1    4    4    0  501 -0.81216212955E+02 -0.34977871355E+02  0.18347673390E+03  0.20371722807E+03  0.41800000000E+01 0. -1.
</event>
<event>
11    1  0.8299058E-009  0.1550861E+03  0.7561462E-02  0.1091792E+00
         22   -1    0    0    0    0  0.00000000000E+00  0.00000000000E+00  0.90823040311E+02  0.90823040311E+02  0.00000000000E+00 0. -1.
         22   -1    0    0    0    0 -0.00000000000E+00 -0.00000000000E+00 -0.13619526642E+04  0.13619526642E+04  0.00000000000E+00 0.  1.
         24    2    1    2    0    0 -0.60160159436E+02 -0.68926710003E+02 -0.71520813877E+03  0.72535619436E+03  0.79049293476E+02 0.  0.
         25    2    1    2    0    0  0.47961673224E+02  0.79666223569E+02 -0.60988777240E+03  0.62948916028E+03  0.12508588531E+03 0.  0.
        -24    2    1    2    0    0  0.12198486212E+02 -0.10739513566E+02  0.53966287304E+02  0.97930349854E+02  0.80086534696E+02 0.  0.
        -11    1    3    3    0    0 -0.17505441751E+02 -0.64037972062E+02 -0.57231062692E+03  0.57614820667E+03  0.00000000000E+00 0.  1.
         12    1    3    3    0    0 -0.42654717685E+02 -0.48887379411E+01 -0.14289751185E+03  0.14920798769E+03  0.00000000000E+00 0. -1.
         11    1    5    5    0    0 -0.12944394065E+01 -0.16873336066E+02  0.72357452629E+02  0.74310066574E+02  0.00000000000E+00 0. -1.
        -12    1    5    5    0    0  0.13492925618E+02  0.61338224993E+01 -0.18391165325E+02  0.23620283279E+02  0.00000000000E+00 0.  1.
          5    1    4    4  501    0  0.57361880324E+02  0.97602666442E+02 -0.59007570375E+03  0.60085228997E+03  0.41800000000E+01 0. -1.
         -5    1    4    4    0  501 -0.94002070994E+01 -0.17936442872E+02 -0.19812068652E+02  0.28636870302E+02  0.41800000000E+01 0. -1.
</event>
<event>
11    1  0.8299058E-009  0.2613218E+03  0.7561462E-02  0.1018035E+00
         22   -1    0    0    0    0  0.00000000000E+00  0.00000000000E+00  0.11978972462E+04  0.11978972462E+04  0.00000000000E+00 0. -1.
         22   -1    0    0    0    0 -0.00000000000E+00 -0.00000000000E+00 -0.14276362094E+03  0.14276362094E+03  0.00000000000E+00 0. -1.
        -24    2    1    2    0    0  0.19571998969E+03  0.97004063051E+02  0.65096269657E+02  0.24231096620E+03  0.82225162831E+02 0.  0.
         25    2    1    2    0    0 -0.18759298700E+03 -0.21504686437E+03  0.51214176713E+03  0.59947430292E+03  0.12507584732E+03 0.  0.
         24    2    1    2    0    0 -0.81270026938E+01  0.11804280132E+03  0.47789558850E+03  0.49887559805E+03  0.80576160902E+02 0.  0.
        -11    1    5    5    0    0 -0.36086750544E+02  0.21308110455E+02  0.12127925076E+03  0.12831580495E+03  0.00000000000E+00 0.  1.
         12    1    5    5    0    0  0.27959747850E+02  0.96734690862E+02  0.35661633774E+03  0.37055979310E+03  0.00000000000E+00 0. -1.
         11    1    3    3    0    0  0.12909960588E+03  0.39903486293E+02  0.74096507451E+02  0.15410804286E+03  0.00000000000E+00 0. -1.
        -12    1    3    3    0    0  0.66620383807E+02  0.57100576758E+02 -0.90002377941E+01  0.88202923337E+02  0.00000000000E+00 0.  1.
          5    1    4    4  501    0  0.61483920473E+01 -0.49758555982E+01 -0.37540179607E+01  0.97019026253E+01  0.41800000000E+01 0.  1.
         -5    1    4    4    0  501 -0.19374137904E+03 -0.21007100877E+03  0.51589578509E+03  0.58977240030E+03  0.41800000000E+01 0.  1.
</event>
<event>
11    1  0.8299058E-009  0.1368873E+03  0.7561462E-02  0.1111085E+00
         22   -1    0    0    0    0  0.00000000000E+00  0.00000000000E+00  0.62042682513E+03  0.62042682513E+03  0.00000000000E+00 0.  1.
         22   -1    0    0    0    0 -0.00000000000E+00 -0.00000000000E+00 -0.90589516453E+03  0.90589516453E+03  0.00000000000E+00 0. -1.
         24    2    1    2    0    0 -0.25878305076E+02  0.24628130437E+02 -0.48815791517E+03  0.49576571194E+03  0.78798854750E+02 0.  0.
         25    2    1    2    0    0  0.50092083712E+02 -0.74320643048E+02 -0.39560685346E+03  0.42448221529E+03  0.12509034238E+03 0.  0.
        -24    2    1    2    0    0 -0.24213778637E+02  0.49692512611E+02  0.59829642923E+03  0.60607406243E+03  0.79444943380E+02 0.  0.
        -11    1    3    3    0    0  0.26491509862E+02  0.63871188064E+01 -0.99218059922E+02  0.10289226791E+03  0.00000000000E+00 0.  1.
         12    1    3    3    0    0 -0.52369814938E+02  0.18241011631E+02 -0.38893985525E+03  0.39287344403E+03  0.00000000000E+00 0. -1.
         11    1    5    5    0    0  0.40495620543E+01  0.63250132863E+01  0.23295094226E+01  0.78632919349E+01  0.00000000000E+00 0. -1.
        -12    1    5    5    0    0 -0.28263340691E+02  0.43367499324E+02  0.59596691981E+03  0.59821077049E+03  0.00000000000E+00 0.  1.
          5    1    4    4  501    0  0.89959276363E+02 -0.35716178176E+02 -0.22328882821E+03  0.24340026703E+03  0.41800000000E+01 0. -1.
         -5    1    4    4    0  501 -0.39867192650E+02 -0.38604464872E+02 -0.17231802526E+03  0.18108194826E+03  0.41800000000E+01 0. -1.
</event>
<event>
11    1  0.8299058E-009  0.1515027E+03  0.7561462E-02  0.1095353E+00
         22   -1    0    0    0    0  0.00000000000E+00  0.00000000000E+00  0.12346089303E+03  0.12346089303E+03  0.00000000000E+00 0. -1.
         22   -1    0    0    0    0 -0.00000000000E+00 -0.00000000000E+00 -0.80424817717E+03  0.80424817717E+03  0.00000000000E+00 0. -1.
        -24    2    1    2    0    0 -0.49965394163E+02  0.81361592154E+02 -0.46792916706E+03  0.48433962079E+03  0.80690232289E+02 0.  0.
         25    2    1    2    0    0 -0.47604951706E+02 -0.84518249179E+02 -0.26476722203E+03  0.30847886158E+03  0.12509180753E+03 0.  0.
         24    2    1    2    0    0  0.97570345869E+02  0.31566570245E+01  0.51909104939E+02  0.13489058784E+03  0.77272107742E+02 0.  0.
        -11    1    5    5    0    0  0.97516341969E+02 -0.15928519695E+00  0.15990032158E+02  0.98818740384E+02  0.00000000000E+00 0.  1.
         12    1    5    5    0    0  0.54003900531E-01  0.33159422214E+01  0.35919072781E+02  0.36071847453E+02  0.00000000000E+00 0. -1.
         13    1    3    3    0    0 -0.45520090096E+02  0.97378367250E+02 -0.42267363795E+03  0.43612799638E+03  0.00000000000E+00 0. -1.
        -14    1    3    3    0    0 -0.44453040670E+01 -0.16016775096E+02 -0.45255529112E+02  0.48211624407E+02  0.00000000000E+00 0.  1.
          5    1    4    4  501    0 -0.67372357646E+02 -0.38122302367E+02 -0.61350178772E+02  0.98861829580E+02  0.41800000000E+01 0.  1.
         -5    1    4    4    0  501  0.19767405940E+02 -0.46395946812E+02 -0.20341704325E+03  0.20961703200E+03  0.41800000000E+01 0.  1.
</event>
<event>
11    1  0.1021256E-008  0.1671781E+03  0.7561462E-02  0.1080514E+00
         22   -1    0    0    0    0  0.00000000000E+00  0.00000000000E+00  0.16085757432E+04  0.16085757432E+04  0.00000000000E+00 0.  1.
         22   -1    0    0    0    0 -0.00000000000E+00 -0.00000000000E+00 -0.29377235568E+03  0.29377235568E+03  0.00000000000E+00 0.  1.
        -24    2    1    2    0    0  0.27647655128E+02  0.41931804581E+02 -0.22850813268E+03  0.24764859758E+03  0.81186157167E+02 0.  0.
         25    2    1    2    0    0 -0.43662724973E+02 -0.14897883737E+03  0.13705037062E+03  0.24193473824E+03  0.12509390851E+03 0.  0.
         24    2    1    2    0    0  0.16015069845E+02  0.10704703279E+03  0.14062611496E+04  0.14127647630E+04  0.81352966880E+02 0.  0.
        -11    1    5    5    0    0  0.96862306647E+01  0.60808037254E+02  0.11867922109E+04  0.11883884855E+04  0.00000000000E+00 0.  1.
         12    1    5    5    0    0  0.63288391800E+01  0.46238995532E+02  0.21946893864E+03  0.22437627758E+03  0.00000000000E+00 0. -1.
         11    1    3    3    0    0  0.22091578377E+01  0.10573533761E+01  0.69239809127E+01  0.73443778629E+01  0.00000000000E+00 0. -1.
        -12    1    3    3    0    0  0.25438497290E+02  0.40874451205E+02 -0.23543211359E+03  0.24030421972E+03  0.00000000000E+00 0.  1.
          5    1    4    4  501    0  0.17744296734E+02 -0.12203294754E+03  0.52893209021E+02  0.13424628231E+03  0.41800000000E+01 0. -1.
         -5    1    4    4    0  501 -0.61407021707E+02 -0.26945889824E+02  0.84157161594E+02  0.10768845593E+03  0.41800000000E+01 0. -1.
</event>
<event>
11    1  0.8299058E-009  0.1413773E+03  0.7561462E-02  0.1106030E+00
         22   -1    0    0    0    0  0.00000000000E+00  0.00000000000E+00  0.14619062881E+04  0.14619062881E+04  0.00000000000E+00 0. -1.
         22   -1    0    0    0    0 -0.00000000000E+00 -0.00000000000E+00 -0.38278520930E+03  0.38278520930E+03  0.00000000000E+00 0.  1.
         24    2    1    2    0    0 -0.31565615334E+02 -0.47030384195E+02 -0.28147973130E+03  0.29788891494E+03  0.79364484502E+02 0.  0.
         25    2    1    2    0    0  0.38340318050E+02 -0.19415182989E+02 -0.43166987528E+02  0.13913158807E+03  0.12508909093E+03 0.  0.
        -24    2    1    2    0    0 -0.67747027167E+01  0.66445567184E+02  0.14037677976E+04  0.14076709944E+04  0.80701231632E+02 0.  0.
        -13    1    3    3    0    0 -0.12262374382E+02 -0.19162616962E+02 -0.25181918991E+03  0.25284476685E+03  0.00000000000E+00 0.  1.
         14    1    3    3    0    0 -0.19303240951E+02 -0.27867767232E+02 -0.29660541393E+02  0.45044148093E+02  0.00000000000E+00 0. -1.
         11    1    5    5    0    0  0.36293620371E+01  0.38029679086E+02  0.20547580614E+03  0.20899697526E+03  0.00000000000E+00 0. -1.
        -12    1    5    5    0    0 -0.10404064754E+02  0.28415888098E+02  0.11982919915E+04  0.11986740191E+04  0.00000000000E+00 0.  1.
          5    1    4    4  501    0 -0.28633816676E+02  0.26768583599E+02 -0.42084496919E+02  0.57663071426E+02  0.41800000000E+01 0. -1.
         -5    1    4    4    0  501  0.66974134727E+02 -0.46183766588E+02 -0.10824906092E+01  0.81468516646E+02  0.41800000000E+01 0. -1.
</event>
<event>
11    1  0.8299058E-009  0.1393136E+03  0.7561462E-02  0.1108327E+00
         22   -1    0    0    0    0  0.00000000000E+00  0.00000000000E+00  0.64192125559E+03  0.64192125559E+03  0.00000000000E+00 0.  1.
         22   -1    0    0    0    0 -0.00000000000E+00 -0.00000000000E+00 -0.31726999605E+03  0.31726999605E+03  0.00000000000E+00 0. -1.
        -24    2    1    2    0    0 -0.62618412058E+02 -0.15270440504E+02 -0.24402023984E+03  0.26427989494E+03  0.78381971994E+02 0.  0.
         25    2    1    2    0    0  0.44603189494E+02 -0.40149437661E+02  0.23557192211E+02  0.14072307585E+03  0.12508645376E+03 0.  0.
         24    2    1    2    0    0  0.18015222564E+02  0.55419878165E+02  0.54511430717E+03  0.55418828085E+03  0.81111846255E+02 0.  0.
        -11    1    5    5    0    0 -0.29844460333E+02  0.33431519552E+02  0.19155056064E+03  0.19672309370E+03  0.00000000000E+00 0.  1.
         12    1    5    5    0    0  0.47859682897E+02  0.21988358613E+02  0.35356374653E+03  0.35746518715E+03  0.00000000000E+00 0. -1.
         11    1    3    3    0    0 -0.37717066329E+02  0.87993839939E+01 -0.21679441276E+03  0.22022675509E+03  0.00000000000E+00 0. -1.
        -12    1    3    3    0    0 -0.24901345730E+02 -0.24069824498E+02 -0.27225827079E+02  0.44053139850E+02  0.00000000000E+00 0.  1.
          5    1    4    4  501    0 -0.47803561292E+01  0.37197487018E+02 -0.15638639740E+02  0.40847818768E+02  0.41800000000E+01 0. -1.
         -5    1    4    4    0  501  0.49383545623E+02 -0.77346924679E+02  0.39195831952E+02  0.99875257086E+02  0.41800000000E+01 0. -1.
</event>
<event>
11    1  0.8299058E-009  0.1879285E+03  0.7561462E-02  0.1063404E+00
         22   -1    0    0    0    0  0.00000000000E+00  0.00000000000E+00  0.45284904094E+03  0.45284904094E+03  0.00000000000E+00 0.  1.
         22   -1    0    0    0    0 -0.00000000000E+00 -0.00000000000E+00 -0.45990267885E+03  0.45990267885E+03  0.00000000000E+00 0.  1.
        -24    2    1    2    0    0  0.51068015619E+01  0.62883090871E+02 -0.36360148683E+03  0.37626310162E+03  0.73399713089E+02 0.  0.
         25    2    1    2    0    0 -0.13914478795E+03 -0.84630012117E+02  0.86592995498E+02  0.22286653339E+03  0.12509050272E+03 0.  0.
         24    2    1    2    0    0  0.13403798639E+03  0.21746921246E+02  0.26995485341E+03  0.31362208478E+03  0.83929010471E+02 0.  0.
        -13    1    5    5    0    0  0.13456197557E+03  0.53519767601E+01  0.26364366893E+03  0.29604653873E+03  0.00000000000E+00 0.  1.
         14    1    5    5    0    0 -0.52398918174E+00  0.16394944486E+02  0.63111844838E+01  0.17575546050E+02  0.00000000000E+00 0. -1.
         13    1    3    3    0    0  0.53107857815E+01  0.27149216160E+02 -0.30212081581E+02  0.40964060555E+02  0.00000000000E+00 0. -1.
        -14    1    3    3    0    0 -0.20398421962E+00  0.35733874710E+02 -0.33338940525E+03  0.33529904107E+03  0.00000000000E+00 0.  1.
          5    1    4    4  501    0 -0.12155690482E+03 -0.10343290837E+03  0.10486485024E+03  0.19101978133E+03  0.41800000000E+01 0.  1.
         -5    1    4    4    0  501 -0.17587883131E+02  0.18802896257E+02 -0.18271854745E+02  0.31846752055E+02  0.41800000000E+01 0.  1.
</event>
<event>
11    1  0.8299058E-009  0.1493749E+03  0.7561462E-02  0.1097519E+00
         22   -1    0    0    0    0  0.00000000000E+00  0.00000000000E+00  0.34577256015E+03  0.34577256015E+03  0.00000000000E+00 0. -1.
         22   -1    0    0    0    0 -0.00000000000E+00 -0.00000000000E+00 -0.17381531429E+04  0.17381531429E+04  0.00000000000E+00 0. -1.
        -24    2    1    2    0    0  0.53176413881E+02 -0.11416004794E+02 -0.15494155738E+04  0.15524445101E+04  0.80232665560E+02 0.  0.
         25    2    1    2    0    0 -0.13061042429E+03  0.24768980667E+02 -0.12950441015E+03  0.22381047586E+03  0.12508857469E+03 0.  0.
         24    2    1    2    0    0  0.77434010409E+02 -0.13352975872E+02  0.28653940114E+03  0.30767071710E+03  0.79888133173E+02 0.  0.
        -13    1    5    5    0    0  0.13667929098E+02 -0.40410271038E+01  0.28857246630E+00  0.14255716746E+02  0.00000000000E+00 0.  1.
         14    1    5    5    0    0  0.63766081310E+02 -0.93119487685E+01  0.28625082867E+03  0.29341500035E+03  0.00000000000E+00 0. -1.
         11    1    3    3    0    0  0.48891778046E+02 -0.33039272314E+02 -0.62822196147E+03  0.63098718873E+03  0.00000000000E+00 0. -1.
        -12    1    3    3    0    0  0.42846358351E+01  0.21623267519E+02 -0.92119361231E+03  0.92145732140E+03  0.00000000000E+00 0.  1.
          5    1    4    4  501    0  0.21569925665E+02  0.14907874343E+02 -0.52741048314E+01  0.27070186413E+02  0.41800000000E+01 0. -1.
         -5    1    4    4    0  501 -0.15218034996E+03  0.98611063234E+01 -0.12423030532E+03  0.19674028944E+03  0.41800000000E+01 0. -1.
</event>
<event>
11    1  0.8299058E-009  0.1513622E+03  0.7561462E-02  0.1095495E+00
         22   -1    0    0    0    0  0.00000000000E+00  0.00000000000E+00  0.12650584136E+04  0.12650584136E+04  0.00000000000E+00 0.  1.
         22   -1    0    0    0    0 -0.00000000000E+00 -0.00000000000E+00 -0.10412892858E+04  0.10412892858E+04  0.00000000000E+00 0.  1.
        -24    2    1    2    0    0  0.80760235262E+02  0.25007251119E+02 -0.99365443951E+03  0.10005635496E+04  0.81429070251E+02 0.  0.
         25    2    1    2    0    0 -0.10347651965E+03 -0.92347397799E+02  0.16921702509E+03  0.25202758904E+03  0.12509225417E+03 0.  0.
         24    2    1    2    0    0  0.22716284390E+02  0.67340146680E+02  0.10482065423E+04  0.10537565607E+04  0.81333935902E+02 0.  0.
        -13    1    5    5    0    0  0.60824656965E+01  0.16169681190E+02  0.78076583798E+03  0.78095694423E+03  0.00000000000E+00 0.  1.
         14    1    5    5    0    0  0.16633818694E+02  0.51170465490E+02  0.26744070427E+03  0.27279961651E+03  0.00000000000E+00 0. -1.
         11    1    3    3    0    0  0.81297999915E+02  0.11396158281E+02 -0.49792135158E+03  0.50464334888E+03  0.00000000000E+00 0. -1.
        -12    1    3    3    0    0 -0.53776465304E+00  0.13611092837E+02 -0.49573308793E+03  0.49592020075E+03  0.00000000000E+00 0.  1.
          5    1    4    4  501    0 -0.10481266402E+03 -0.44537663603E+02  0.16922209081E+03  0.20401687782E+03  0.41800000000E+01 0. -1.
         -5    1    4    4    0  501  0.13361443694E+01 -0.47809734196E+02 -0.50657140533E-02  0.48010711214E+02  0.41800000000E+01 0. -1.
</event>
<event>
11    1  0.8299058E-009  0.1356172E+03  0.7561462E-02  0.1112554E+00
         22   -1    0    0    0    0  0.00000000000E+00  0.00000000000E+00  0.20180372374E+04  0.20180372374E+04  0.00000000000E+00 0. -1.
         22   -1    0    0    0    0 -0.00000000000E+00 -0.00000000000E+00 -0.58368710914E+03  0.58368710914E+03  0.00000000000E+00 0.  1.
         24    2    1    2    0    0  0.32835490096E+02 -0.32017236156E+02 -0.48144829644E+03  0.49010654358E+03  0.79427256631E+02 0.  0.
         25    2    1    2    0    0 -0.78225037500E+02  0.61947310714E+01 -0.40233900589E+02  0.15304823460E+03  0.12508982442E+03 0.  0.
        -24    2    1    2    0    0  0.45389547403E+02  0.25822505085E+02  0.19560323253E+04  0.19585695683E+04  0.84883942784E+02 0.  0.
        -13    1    3    3    0    0  0.50988464354E+01 -0.35185112903E+02 -0.43087794239E+03  0.43234221589E+03  0.00000000000E+00 0.  1.
         14    1    3    3    0    0  0.27736643661E+02  0.31678767475E+01 -0.50570354053E+02  0.57764327692E+02  0.00000000000E+00 0. -1.
         11    1    5    5    0    0  0.47839336650E+02 -0.72201880808E+01  0.16571861972E+04  0.16578922840E+04  0.00000000000E+00 0. -1.
        -12    1    5    5    0    0 -0.24497892464E+01  0.33042693165E+02  0.29884612806E+03  0.30067728430E+03  0.00000000000E+00 0.  1.
          5    1    4    4  501    0 -0.40196585639E+02  0.19076325834E+02 -0.82983072604E+02  0.94251442659E+02  0.41800000000E+01 0.  1.
         -5    1    4    4    0  501 -0.38028451861E+02 -0.12881594762E+02  0.42749172015E+02  0.58796791941E+02  0.41800000000E+01 0.  1.
</event>
<event>
11    1  0.8299058E-009  0.2028679E+03  0.7561462E-02  0.1052514E+00
         22   -1    0    0    0    0  0.00000000000E+00  0.00000000000E+00  0.28587998363E+03  0.28587998363E+03  0.00000000000E+00 0.  1.
         22   -1    0    0    0    0 -0.00000000000E+00 -0.00000000000E+00 -0.19426340376E+04  0.19426340376E+04  0.00000000000E+00 0.  1.
        -24    2    1    2    0    0  0.70108512866E+02  0.13491907991E+03 -0.11001728768E+04  0.11135373758E+04  0.80416209046E+02 0.  0.
         25    2    1    2    0    0 -0.11840511431E+03 -0.13511772073E+03 -0.81373235873E+03  0.84266506425E+03  0.12508992493E+03 0.  0.
         24    2    1    2    0    0  0.48296601441E+02  0.19864081112E+00  0.25715118154E+03  0.27231158123E+03  0.75460360021E+02 0.  0.
        -11    1    5    5    0    0  0.62554842688E+02 -0.15934850518E+02  0.22099611378E+03  0.23023099294E+03  0.00000000000E+00 0.  1.
         12    1    5    5    0    0 -0.14258241247E+02  0.16133491329E+02  0.36155067767E+02  0.42080588294E+02  0.00000000000E+00 0. -1.
         11    1    3    3    0    0 -0.99176913387E+01  0.28619538453E+02 -0.37784157086E+03  0.37905367859E+03  0.00000000000E+00 0. -1.
        -12    1    3    3    0    0  0.80026204205E+02  0.10629954146E+03 -0.72233130596E+03  0.73448369720E+03  0.00000000000E+00 0.  1.
          5    1    4    4  501    0 -0.74027034412E+02 -0.12048149227E+03 -0.75166114686E+03  0.76485798937E+03  0.41800000000E+01 0.  1.
         -5    1    4    4    0  501 -0.44378079895E+02 -0.14636228459E+02 -0.62071211864E+02  0.77807074878E+02  0.41800000000E+01 0.  1.
</event>
<event>
11    1  0.8299058E-009  0.1557700E+03  0.7561462E-02  0.1091125E+00
         22   -1    0    0    0    0  0.00000000000E+00  0.00000000000E+00  0.24472597891E+03  0.24472597891E+03  0.00000000000E+00 0.  1.
         22   -1    0    0    0    0 -0.00000000000E+00 -0.00000000000E+00 -0.80172002709E+03  0.80172002709E+03  0.00000000000E+00 0. -1.
        -24    2    1    2    0    0  0.42168370253E+02  0.82981744759E+02 -0.73557972118E+03  0.74584782897E+03  0.80915488928E+02 0.  0.
         25    2    1    2    0    0 -0.37944952079E+02 -0.77826214533E+02  0.78732816336E+02  0.17129937300E+03  0.12509148558E+03 0.  0.
         24    2    1    2    0    0 -0.42234181737E+01 -0.51555302263E+01  0.99852856655E+02  0.12929880403E+03  0.81872895328E+02 0.  0.
        -11    1    5    5    0    0  0.46074155287E+01  0.37301295175E+02  0.57416961537E+02  0.68624502707E+02  0.00000000000E+00 0.  1.
         12    1    5    5    0    0 -0.88308337024E+01 -0.42456825402E+02  0.42435895118E+02  0.60674301327E+02  0.00000000000E+00 0. -1.
         11    1    3    3    0    0  0.26146638140E+02  0.72225475348E+02 -0.70818585575E+03  0.71233936593E+03  0.00000000000E+00 0. -1.
        -12    1    3    3    0    0  0.16021732113E+02  0.10756269411E+02 -0.27393865430E+02  0.33508463031E+02  0.00000000000E+00 0.  1.
          5    1    4    4  501    0  0.10654791563E+02 -0.98013574412E+02  0.43575972110E+02  0.10787271711E+03  0.41800000000E+01 0. -1.
         -5    1    4    4    0  501 -0.48599743642E+02  0.20187359879E+02  0.35156844225E+02  0.63426655886E+02  0.41800000000E+01 0. -1.
</event>
<event>
11    1  0.8299058E-009  0.1322280E+03  0.7561462E-02  0.1116561E+00
         22   -1    0    0    0    0  0.00000000000E+00  0.00000000000E+00  0.50553072521E+02  0.50553072521E+02  0.00000000000E+00 0.  1.
         22   -1    0    0    0    0 -0.00000000000E+00 -0.00000000000E+00 -0.11716182657E+04  0.11716182657E+04  0.00000000000E+00 0.  1.
         24    2    1    2    0    0  0.31974359533E+02 -0.30689954126E+02 -0.87845866158E+03  0.88318683279E+03  0.79781755803E+02 0.  0.
         25    2    1    2    0    0 -0.25942242012E+02  0.19121254404E+02 -0.21937161499E+03  0.25457786273E+03  0.12508940978E+03 0.  0.
        -24    2    1    2    0    0 -0.60321175213E+01  0.11568699722E+02 -0.23234916601E+02  0.84406642690E+02  0.80089941476E+02 0.  0.
        -11    1    3    3    0    0 -0.21187773031E+02 -0.16791754764E+02 -0.50328118230E+03  0.50400677893E+03  0.00000000000E+00 0.  1.
         12    1    3    3    0    0  0.53162132565E+02 -0.13898199362E+02 -0.37517747928E+03  0.37918005386E+03  0.00000000000E+00 0. -1.
         11    1    5    5    0    0  0.11737178468E+02  0.38130555436E+02 -0.32140011794E+02  0.51231640364E+02  0.00000000000E+00 0. -1.
        -12    1    5    5    0    0 -0.17769295990E+02 -0.26561855714E+02  0.89050951930E+01  0.33175002326E+02  0.00000000000E+00 0.  1.
          5    1    4    4  501    0  0.24145430140E+02  0.21179500491E+02 -0.19679058800E+03  0.19943816325E+03  0.41800000000E+01 0.  1.
         -5    1    4    4    0  501 -0.50087672152E+02 -0.20582460863E+01 -0.22581026992E+02  0.55139699479E+02  0.41800000000E+01 0.  1.
</event>
<event>
11    1  0.8299058E-009  0.1646850E+03  0.7561462E-02  0.1082752E+00
         22   -1    0    0    0    0  0.00000000000E+00  0.00000000000E+00  0.17381595191E+04  0.17381595191E+04  0.00000000000E+00 0. -1.
         22   -1    0    0    0    0 -0.00000000000E+00 -0.00000000000E+00 -0.12037734803E+03  0.12037734803E+03  0.00000000000E+00 0.  1.
        -24    2    1    2    0    0 -0.50210494163E+02 -0.96619276635E+02 -0.53442720132E+02  0.14437159379E+03  0.78298495620E+02 0.  0.
         25    2    1    2    0    0  0.16860040825E+02  0.97492220951E+02  0.29567053988E+03  0.33594261413E+03  0.12508947884E+03 0.  0.
         24    2    1    2    0    0  0.33350453337E+02 -0.87294431647E+00  0.13755543513E+04  0.13782226592E+04  0.78961447264E+02 0.  0.
        -13    1    5    5    0    0  0.35083357019E+02  0.26723165197E+02  0.42824799691E+03  0.43051285272E+03  0.00000000000E+00 0.  1.
         14    1    5    5    0    0 -0.17329036814E+01 -0.27596109513E+02  0.94730635438E+03  0.94770980646E+03  0.00000000000E+00 0. -1.
         11    1    3    3    0    0 -0.42554836085E+02 -0.36455215120E+02  0.96456784810E+01  0.56858912204E+02  0.00000000000E+00 0. -1.
        -12    1    3    3    0    0 -0.76556580778E+01 -0.60164061515E+02 -0.63088398613E+02  0.87512681584E+02  0.00000000000E+00 0.  1.
          5    1    4    4  501    0 -0.18170817735E+02  0.11497970094E+03  0.24887479520E+03  0.27478472725E+03  0.41800000000E+01 0.  1.
         -5    1    4    4    0  501  0.35030858561E+02 -0.17487479987E+02  0.46795744681E+02  0.61157886883E+02  0.41800000000E+01 0.  1.
</event>
<event>
11    1  0.8299058E-009  0.1534782E+03  0.7561462E-02  0.1093377E+00
         22   -1    0    0    0    0  0.00000000000E+00  0.00000000000E+00  0.13004949334E+04  0.13004949334E+04  0.00000000000E+00 0. -1.
         22   -1    0    0    0    0 -0.00000000000E+00 -0.00000000000E+00 -0.69031885564E+03  0.69031885564E+03  0.00000000000E+00 0. -1.
         24    2    1    2    0    0  0.15170404038E+02  0.66683058101E+02 -0.60292840191E+03  0.61212482570E+03  0.80606283931E+02 0.  0.
         25    2    1    2    0    0 -0.10157159085E+03 -0.82977605676E+02  0.23038147451E+02  0.18270276768E+03  0.12508986358E+03 0.  0.
        -24    2    1    2    0    0  0.86401186807E+02  0.16294547575E+02  0.11900663322E+04  0.11959861957E+04  0.79965166008E+02 0.  0.
        -13    1    3    3    0    0  0.22624568388E+01  0.16876684602E+02 -0.45831307604E+03  0.45862928043E+03  0.00000000000E+00 0.  1.
         14    1    3    3    0    0  0.12907947200E+02  0.49806373499E+02 -0.14461532587E+03  0.15349554528E+03  0.00000000000E+00 0. -1.
         13    1    5    5    0    0  0.10142691947E+03  0.10419975775E+02  0.10685619479E+04  0.10734154053E+04  0.00000000000E+00 0. -1.
        -14    1    5    5    0    0 -0.15025732659E+02  0.58745718000E+01  0.12150438436E+03  0.12257079038E+03  0.00000000000E+00 0.  1.
          5    1    4    4  501    0 -0.84000280269E+02 -0.20466062687E+02 -0.37030418211E+02  0.94146859109E+02  0.41800000000E+01 0.  1.
         -5    1    4    4    0  501 -0.17571310576E+02 -0.62511542989E+02  0.60068565663E+02  0.88555908572E+02  0.41800000000E+01 0.  1.
</event>
<event>
11    1  0.8299058E-009  0.2134246E+03  0.7561462E-02  0.1045416E+00
         22   -1    0    0    0    0  0.00000000000E+00  0.00000000000E+00  0.14268117952E+04  0.14268117952E+04  0.00000000000E+00 0. -1.
         22   -1    0    0    0    0 -0.00000000000E+00 -0.00000000000E+00 -0.60769679560E+03  0.60769679560E+03  0.00000000000E+00 0. -1.
        -24    2    1    2    0    0 -0.12546234830E+02  0.13591412621E+02 -0.34744663857E+03  0.35837234805E+03  0.85845434890E+02 0.  0.
         25    2    1    2    0    0  0.46790064338E+02  0.15620086405E+03 -0.20545624083E+03  0.29059886786E+03  0.12508962809E+03 0.  0.
         24    2    1    2    0    0 -0.34243829508E+02 -0.16979227667E+03  0.13720178790E+04  0.13855373749E+04  0.85315296632E+02 0.  0.
        -11    1    5    5    0    0 -0.15956907884E+02 -0.13623220404E+01  0.45333576804E+02  0.48079226454E+02  0.00000000000E+00 0.  1.
         12    1    5    5    0    0 -0.18286921624E+02 -0.16842995463E+03  0.13266843022E+04  0.13374581485E+04  0.00000000000E+00 0. -1.
         11    1    3    3    0    0  0.19271329127E+02  0.12011201870E+02 -0.30211087398E+03  0.30296308896E+03  0.00000000000E+00 0. -1.
        -12    1    3    3    0    0 -0.31817563958E+02  0.15802107501E+01 -0.45335764589E+02  0.55409259092E+02  0.00000000000E+00 0.  1.
          5    1    4    4  501    0  0.62217517348E+02  0.40567369304E+02 -0.30782079289E+02  0.80509252403E+02  0.41800000000E+01 0.  1.
         -5    1    4    4    0  501 -0.15427453010E+02  0.11563349474E+03 -0.17467416154E+03  0.21008961546E+03  0.41800000000E+01 0.  1.
</event>
<event>
11    1  0.8299058E-009  0.1843324E+03  0.7561462E-02  0.1066191E+00
         22   -1    0    0    0    0  0.00000000000E+00  0.00000000000E+00  0.37138162607E+03  0.37138162607E+03  0.00000000000E+00 0.  1.
         22   -1    0    0    0    0 -0.00000000000E+00 -0.00000000000E+00 -0.35125622989E+03  0.35125622989E+03  0.00000000000E+00 0.  1.
        -24    2    1    2    0    0 -0.27086484509E+02 -0.46235358789E-01 -0.25079292623E+03  0.26449923256E+03  0.79555467415E+02 0.  0.
         25    2    1    2    0    0 -0.95024510760E+02 -0.72152149498E+02  0.43302880624E+02  0.17820906358E+03  0.12509092913E+03 0.  0.
         24    2    1    2    0    0  0.12211099527E+03  0.72198384857E+02  0.22761544178E+03  0.27992955981E+03  0.80175227958E+02 0.  0.
        -13    1    5    5    0    0  0.50778308032E+02  0.53249633624E+02  0.53974014832E+02  0.91253242818E+02  0.00000000000E+00 0.  1.
         14    1    5    5    0    0  0.71332687236E+02  0.18948751233E+02  0.17364142695E+03  0.18867631700E+03  0.00000000000E+00 0. -1.
         11    1    3    3    0    0 -0.15364728135E+02 -0.76465350224E+01 -0.44090221205E+01  0.17719589289E+02  0.00000000000E+00 0. -1.
        -12    1    3    3    0    0 -0.11721756375E+02  0.76002996637E+01 -0.24638390411E+03  0.24677964327E+03  0.00000000000E+00 0.  1.
          5    1    4    4  501    0 -0.28707001482E+02  0.33958621305E+02 -0.28986029526E+01  0.44756610619E+02  0.41800000000E+01 0.  1.
         -5    1    4    4    0  501 -0.66317509278E+02 -0.10611077080E+03  0.46201483577E+02  0.13345245296E+03  0.41800000000E+01 0.  1.
</event>
<event>
11    1  0.8299058E-009  0.9424947E+03  0.7561462E-02  0.8735719E-01
         22   -1    0    0    0    0  0.00000000000E+00  0.00000000000E+00  0.14160665083E+04  0.14160665083E+04  0.00000000000E+00 0. -1.
         22   -1    0    0    0    0 -0.00000000000E+00 -0.00000000000E+00 -0.22665877266E+04  0.22665877266E+04  0.00000000000E+00 0.  1.
         24    2    1    2    0    0  0.74345852463E+03  0.59302327284E+03 -0.14690100151E+04  0.17517316219E+04  0.78524330466E+02 0.  0.
         25    2    1    2    0    0 -0.68753050102E+03 -0.57604611429E+03 -0.33993866157E+03  0.96733303490E+03  0.12509033199E+03 0.  0.
        -24    2    1    2    0    0 -0.55928023605E+02 -0.16977158546E+02  0.95842745837E+03  0.96358957813E+03  0.80656769019E+02 0.  0.
        -13    1    3    3    0    0  0.46933076453E+03  0.32542067839E+03 -0.88685850778E+03  0.10548402710E+04  0.00000000000E+00 0.  1.
         14    1    3    3    0    0  0.27412776010E+03  0.26760259445E+03 -0.58215150736E+03  0.69689135088E+03  0.00000000000E+00 0. -1.
         11    1    5    5    0    0 -0.74681839676E+02 -0.59786349426E+00  0.72780666372E+03  0.73162850845E+03  0.00000000000E+00 0. -1.
        -12    1    5    5    0    0  0.18753816071E+02 -0.16379295052E+02  0.23062079465E+03  0.23196106968E+03  0.00000000000E+00 0.  1.
          5    1    4    4  501    0 -0.38722895888E+03 -0.24932569566E+03 -0.14743378494E+03  0.48359462616E+03  0.41800000000E+01 0. -1.
         -5    1    4    4    0  501 -0.30030154214E+03 -0.32672041863E+03 -0.19250487663E+03  0.48373840874E+03  0.41800000000E+01 0. -1.
</event>
<event>
11    1  0.8299058E-009  0.1768482E+03  0.7561462E-02  0.1072221E+00
         22   -1    0    0    0    0  0.00000000000E+00  0.00000000000E+00  0.16155844800E+04  0.16155844800E+04  0.00000000000E+00 0.  1.
         22   -1    0    0    0    0 -0.00000000000E+00 -0.00000000000E+00 -0.18689745866E+03  0.18689745866E+03  0.00000000000E+00 0. -1.
         24    2    1    2    0    0 -0.60367745410E+02  0.55239638925E+02 -0.13463030158E+03  0.17810900299E+03  0.83077171645E+02 0.  0.
         25    2    1    2    0    0  0.15084599844E+03 -0.11941953930E+03  0.49641457406E+03  0.54689190367E+03  0.12509110021E+03 0.  0.
        -24    2    1    2    0    0 -0.90478253033E+02  0.64179900380E+02  0.10669027489E+04  0.10774810320E+04  0.10187504541E+03 0.  0.
        -11    1    3    3    0    0 -0.20445045587E+02 -0.17063566032E+01  0.58692285762E+01  0.21339151482E+02  0.00000000000E+00 0.  1.
         12    1    3    3    0    0 -0.39922699824E+02  0.56945995528E+02 -0.14049953016E+03  0.15676985151E+03  0.00000000000E+00 0. -1.
         13    1    5    5    0    0 -0.25860113956E+02 -0.26401635888E+02  0.35752398686E+03  0.35942898193E+03  0.00000000000E+00 0. -1.
        -14    1    5    5    0    0 -0.64618139077E+02  0.90581536268E+02  0.70937876205E+03  0.71805205010E+03  0.00000000000E+00 0.  1.
          5    1    4    4  501    0  0.87182943083E+01 -0.76508330378E+02  0.12489819450E+03  0.14678748129E+03  0.41800000000E+01 0.  1.
         -5    1    4    4    0  501  0.14212770413E+03 -0.42911208927E+02  0.37151637955E+03  0.40010442238E+03  0.41800000000E+01 0.  1.
</event>
<event>
11    1  0.8299058E-009  0.1412009E+03  0.7561462E-02  0.1106225E+00
         22   -1    0    0    0    0  0.00000000000E+00  0.00000000000E+00  0.55402118500E+03  0.55402118500E+03  0.00000000000E+00 0.  1.
         22   -1    0    0    0    0 -0.00000000000E+00 -0.00000000000E+00 -0.11195474181E+04  0.11195474181E+04  0.00000000000E+00 0. -1.
         24    2    1    2    0    0 -0.26060039861E+02  0.40852891305E+02 -0.10823974201E+04  0.10864944086E+04  0.80856914141E+02 0.  0.
         25    2    1    2    0    0  0.59745732742E+02 -0.84164958261E+02  0.21283103668E+03  0.26757778995E+03  0.12509009042E+03 0.  0.
        -24    2    1    2    0    0 -0.33685692881E+02  0.43312066955E+02  0.30404015027E+03  0.31949640456E+03  0.81405641712E+02 0.  0.
        -11    1    3    3    0    0  0.23373860967E+02  0.33503851853E+02 -0.34605372890E+03  0.34845663826E+03  0.00000000000E+00 0.  1.
         12    1    3    3    0    0 -0.49433900828E+02  0.73490394528E+01 -0.73634369117E+03  0.73803777034E+03  0.00000000000E+00 0. -1.
         13    1    5    5    0    0 -0.12973526390E+02 -0.79622627929E+01  0.59877569031E+01  0.16357360683E+02  0.00000000000E+00 0. -1.
        -14    1    5    5    0    0 -0.20712166491E+02  0.51274329748E+02  0.29805239337E+03  0.30313904388E+03  0.00000000000E+00 0.  1.
          5    1    4    4  501    0 -0.31022654056E+02 -0.53078003350E+02  0.53814303901E+02  0.81811559138E+02  0.41800000000E+01 0. -1.
         -5    1    4    4    0  501  0.90768386798E+02 -0.31086954911E+02  0.15901673278E+03  0.18576623082E+03  0.41800000000E+01 0. -1.
</event>
<event>
11    1  0.8299058E-009  0.2914513E+03  0.7561462E-02  0.1003876E+00
         22   -1    0    0    0    0  0.00000000000E+00  0.00000000000E+00  0.39609715076E+03  0.39609715076E+03  0.00000000000E+00 0. -1.
         22   -1    0    0    0    0 -0.00000000000E+00 -0.00000000000E+00 -0.23933104158E+04  0.23933104158E+04  0.00000000000E+00 0.  1.
         24    2    1    2    0    0  0.85791842913E+02 -0.22159579519E+03 -0.11013804831E+04  0.11296124978E+04  0.80749549930E+02 0.  0.
         25    2    1    2    0    0 -0.91880475084E+02  0.28727507171E+03 -0.12495823419E+04  0.12915383622E+04  0.12508526500E+03 0.  0.
        -24    2    1    2    0    0  0.60886321710E+01 -0.65679276520E+02  0.35374955993E+03  0.36825670653E+03  0.78252232880E+02 0.  0.
        -13    1    3    3    0    0  0.41505765117E+02 -0.18562677821E+03 -0.92052487400E+03  0.93997131498E+03  0.00000000000E+00 0.  1.
         14    1    3    3    0    0  0.44286077796E+02 -0.35969016978E+02 -0.18085560908E+03  0.18964118278E+03  0.00000000000E+00 0. -1.
         13    1    5    5    0    0  0.39501246504E+02 -0.51294961158E+02  0.25259410791E+03  0.26075909355E+03  0.00000000000E+00 0. -1.
        -14    1    5    5    0    0 -0.33412614333E+02 -0.14384315363E+02  0.10115545201E+03  0.10749761298E+03  0.00000000000E+00 0.  1.
          5    1    4    4  501    0 -0.10464785320E+03  0.14148067070E+03 -0.57938813506E+03  0.60553780791E+03  0.41800000000E+01 0.  1.
         -5    1    4    4    0  501  0.12767378119E+02  0.14579440101E+03 -0.67019420681E+03  0.68600055434E+03  0.41800000000E+01 0.  1.
</event>
<event>
11    1  0.8299058E-009  0.4470137E+03  0.7561462E-02  0.9520397E-01
         22   -1    0    0    0    0  0.00000000000E+00  0.00000000000E+00  0.52393425062E+03  0.52393425062E+03  0.00000000000E+00 0.  1.
         22   -1    0    0    0    0 -0.00000000000E+00 -0.00000000000E+00 -0.41376918130E+03  0.41376918130E+03  0.00000000000E+00 0.  1.
         24    2    1    2    0    0 -0.25892405538E+03 -0.24373201108E+02 -0.16585397693E+03  0.31900370008E+03  0.81363994558E+02 0.  0.
         25    2    1    2    0    0 -0.94528712458E+02 -0.21404541094E+02 -0.13300228233E+01  0.15825070081E+03  0.12509070104E+03 0.  0.
        -24    2    1    2    0    0  0.35345276784E+03  0.45777742201E+02  0.27734906907E+03  0.46044903103E+03  0.89812823590E+02 0.  0.
        -11    1    3    3    0    0 -0.12741301915E+03 -0.40680588444E+02 -0.49378778598E+02  0.14257367044E+03  0.00000000000E+00 0.  1.
         12    1    3    3    0    0 -0.13151103623E+03  0.16307387337E+02 -0.11647519833E+03  0.17643002964E+03  0.00000000000E+00 0. -1.
         11    1    5    5    0    0  0.67282702011E+02 -0.26454848901E+02  0.58989405753E+02  0.93309008200E+02  0.00000000000E+00 0. -1.
        -12    1    5    5    0    0  0.28617006583E+03  0.72232591103E+02  0.21835966332E+03  0.36714002283E+03  0.00000000000E+00 0.  1.
          5    1    4    4  501    0 -0.44768131290E+02 -0.69948024856E+02 -0.21231571444E+02  0.85820532429E+02  0.41800000000E+01 0.  1.
         -5    1    4    4    0  501 -0.49760581168E+02  0.48543483762E+02  0.19901548621E+02  0.72430168380E+02  0.41800000000E+01 0.  1.
</event>
<event>
11    1  0.8299058E-009  0.1674217E+03  0.7561462E-02  0.1080297E+00
         22   -1    0    0    0    0  0.00000000000E+00  0.00000000000E+00  0.93170405696E+03  0.93170405696E+03  0.00000000000E+00 0.  1.
         22   -1    0    0    0    0 -0.00000000000E+00 -0.00000000000E+00 -0.10747517246E+03  0.10747517246E+03  0.00000000000E+00 0.  1.
         24    2    1    2    0    0 -0.83987243435E+02  0.71407962610E+02 -0.15701368446E+02  0.13792544946E+03  0.81387606270E+02 0.  0.
         25    2    1    2    0    0  0.34944351518E+02  0.63696275495E+02  0.24551559567E+03  0.28496224529E+03  0.12508896956E+03 0.  0.
        -24    2    1    2    0    0  0.49042891917E+02 -0.13510423811E+03  0.59441465727E+03  0.61629153468E+03  0.76342062681E+02 0.  0.
        -11    1    3    3    0    0 -0.70318364174E+02  0.41462233175E+02 -0.45558091513E+02  0.93484377424E+02  0.00000000000E+00 0.  1.
         12    1    3    3    0    0 -0.13668879260E+02  0.29945729435E+02  0.29856723067E+02  0.44441072038E+02  0.00000000000E+00 0. -1.
         13    1    5    5    0    0  0.77240264193E+01 -0.10870238642E+03  0.33487646804E+03  0.35216206247E+03  0.00000000000E+00 0. -1.
        -14    1    5    5    0    0  0.41318865498E+02 -0.26401851689E+02  0.25953818923E+03  0.26412947221E+03  0.00000000000E+00 0.  1.
          5    1    4    4  501    0 -0.44268751648E+01 -0.30187015812E+02  0.17991143139E+02  0.35665204034E+02  0.41800000000E+01 0.  1.
         -5    1    4    4    0  501  0.39371226682E+02  0.93883291307E+02  0.22752445253E+03  0.24929704125E+03  0.41800000000E+01 0.  1.
</event>
<event>
11    1  0.8299058E-009  0.1549468E+03  0.7561462E-02  0.1091929E+00
         22   -1    0    0    0    0  0.00000000000E+00  0.00000000000E+00  0.34296607024E+03  0.34296607024E+03  0.00000000000E+00 0. -1.
         22   -1    0    0    0    0 -0.00000000000E+00 -0.00000000000E+00 -0.63504476470E+03  0.63504476470E+03  0.00000000000E+00 0.  1.
        -24    2    1    2    0    0  0.87312239670E+02 -0.11285351021E+02 -0.37605142394E+03  0.39455051210E+03  0.80651390647E+02 0.  0.
         25    2    1    2    0    0 -0.14676359866E+03 -0.54774623225E+02 -0.19498202492E+03  0.27965404641E+03  0.12509429400E+03 0.  0.
         24    2    1    2    0    0  0.59451358987E+02  0.66059974246E+02  0.27895475439E+03  0.30380627644E+03  0.81142555553E+02 0.  0.
        -11    1    5    5    0    0  0.23950785836E+02  0.36593768425E+01  0.11380897267E+02  0.26768563721E+02  0.00000000000E+00 0.  1.
         12    1    5    5    0    0  0.35500573151E+02  0.62400597403E+02  0.26757385712E+03  0.27703771272E+03  0.00000000000E+00 0. -1.
         13    1    3    3    0    0  0.44598579096E+02 -0.46879594849E+01 -0.56712968860E+02  0.72300560568E+02  0.00000000000E+00 0. -1.
        -14    1    3    3    0    0  0.42713660574E+02 -0.65973915361E+01 -0.31933845508E+03  0.32224995154E+03  0.00000000000E+00 0.  1.
          5    1    4    4  501    0 -0.12167997681E+03 -0.85275486428E+02 -0.18745179608E+03  0.23923539369E+03  0.41800000000E+01 0.  1.
         -5    1    4    4    0  501 -0.25083621845E+02  0.30500863203E+02 -0.75302288416E+01  0.40418652717E+02  0.41800000000E+01 0.  1.
</event>
<event>
11    1  0.8299058E-009  0.1904611E+03  0.7561462E-02  0.1061482E+00
         22   -1    0    0    0    0  0.00000000000E+00  0.00000000000E+00  0.16247950323E+03  0.16247950323E+03  0.00000000000E+00 0. -1.
         22   -1    0    0    0    0 -0.00000000000E+00 -0.00000000000E+00 -0.81844501008E+03  0.81844501008E+03  0.00000000000E+00 0. -1.
        -24    2    1    2    0    0 -0.12761303217E+03 -0.45153776047E+02 -0.57773794149E+03  0.59886388113E+03  0.80826169116E+02 0.  0.
         25    2    1    2    0    0  0.19722020388E+03  0.40619207382E+02 -0.12299580604E+03  0.26706945904E+03  0.12510954728E+03 0.  0.
         24    2    1    2    0    0 -0.69607171710E+02  0.45345686653E+01  0.44768240676E+02  0.11499117315E+03  0.79706046582E+02 0.  0.
        -13    1    5    5    0    0 -0.37311169075E+02  0.40953031108E+02  0.13126535042E+02  0.56934875225E+02  0.00000000000E+00 0.  1.
         14    1    5    5    0    0 -0.32296002635E+02 -0.36418462443E+02  0.31641705633E+02  0.58056297921E+02  0.00000000000E+00 0. -1.
         13    1    3    3    0    0 -0.59317451067E+02 -0.58132708927E+01 -0.40024726180E+03  0.40466062904E+03  0.00000000000E+00 0. -1.
        -14    1    3    3    0    0 -0.68295581106E+02 -0.39340505154E+02 -0.17749067969E+03  0.19420325209E+03  0.00000000000E+00 0.  1.
          5    1    4    4  501    0  0.14278439497E+03 -0.28843325117E+02 -0.96683635295E+02  0.17488430056E+03  0.41800000000E+01 0.  1.
         -5    1    4    4    0  501  0.54435808917E+02  0.69462532499E+02 -0.26312170742E+02  0.92185158474E+02  0.41800000000E+01 0.  1.
</event>
<event>
11    1  0.8299058E-009  0.1264307E+03  0.7561462E-02  0.1123734E+00
         22   -1    0    0    0    0  0.00000000000E+00  0.00000000000E+00  0.20397882957E+03  0.20397882957E+03  0.00000000000E+00 0. -1.
         22   -1    0    0    0    0 -0.00000000000E+00 -0.00000000000E+00 -0.38100317531E+03  0.38100317531E+03  0.00000000000E+00 0.  1.
         24    2    1    2    0    0  0.14605427377E+02 -0.11230486153E+02 -0.32063304891E+03  0.33096224547E+03  0.79943814907E+02 0.  0.
         25    2    1    2    0    0 -0.79195783057E+01  0.17602180160E+02  0.52742609699E+02  0.13712071338E+03  0.12509096968E+03 0.  0.
        -24    2    1    2    0    0 -0.66858490716E+01 -0.63716940071E+01  0.90866093472E+02  0.11689904603E+03  0.72961914426E+02 0.  0.
        -11    1    3    3    0    0 -0.32638408701E+02  0.62119390781E-01 -0.15246787485E+03  0.15592216790E+03  0.00000000000E+00 0.  1.
         12    1    3    3    0    0  0.47243836078E+02 -0.11292605544E+02 -0.16816517406E+03  0.17504007756E+03  0.00000000000E+00 0. -1.
         13    1    5    5    0    0  0.13333383624E+02 -0.25416215323E+01  0.95114951564E+02  0.96078577060E+02  0.00000000000E+00 0. -1.
        -14    1    5    5    0    0 -0.20019232695E+02 -0.38300724748E+01 -0.42488580921E+01  0.20820468966E+02  0.00000000000E+00 0.  1.
          5    1    4    4  501    0 -0.56636652089E+01  0.54879597263E+02  0.75185889975E+02  0.93350081685E+02  0.41800000000E+01 0. -1.
         -5    1    4    4    0  501 -0.22559130969E+01 -0.37277417103E+02 -0.22443280277E+02  0.43770631699E+02  0.41800000000E+01 0. -1.
</event>
<event>
11    1  0.8299058E-009  0.2205768E+03  0.7561462E-02  0.1040857E+00
         22   -1    0    0    0    0  0.00000000000E+00  0.00000000000E+00  0.12149048136E+04  0.12149048136E+04  0.00000000000E+00 0. -1.
         22   -1    0    0    0    0 -0.00000000000E+00 -0.00000000000E+00 -0.72937699328E+03  0.72937699328E+03  0.00000000000E+00 0.  1.
         24    2    1    2    0    0 -0.10146252702E+03 -0.15094146078E+03 -0.68882998931E+03  0.71646004370E+03  0.75830541848E+02 0.  0.
         25    2    1    2    0    0  0.91487996001E+02  0.14923269356E+03  0.44766170306E+03  0.49667869520E+03  0.12509306793E+03 0.  0.
        -24    2    1    2    0    0  0.99745310210E+01  0.17087672203E+01  0.72669610662E+03  0.73114306802E+03  0.79878303574E+02 0.  0.
        -11    1    3    3    0    0 -0.11120021232E+03 -0.14352781562E+03 -0.66861605560E+03  0.69282981379E+03  0.00000000000E+00 0.  1.
         12    1    3    3    0    0  0.97376852966E+01 -0.74136451579E+01 -0.20213933714E+02  0.23630229911E+02  0.00000000000E+00 0. -1.
         13    1    5    5    0    0 -0.71907268931E+01  0.25509063572E+02  0.61762827572E+03  0.61819665629E+03  0.00000000000E+00 0. -1.
        -14    1    5    5    0    0  0.17165257914E+02 -0.23800296352E+02  0.10906783091E+03  0.11294641174E+03  0.00000000000E+00 0.  1.
          5    1    4    4  501    0  0.27064247330E+02  0.12991561366E+03  0.37388073702E+03  0.39675536300E+03  0.41800000000E+01 0. -1.
         -5    1    4    4    0  501  0.64423748671E+02  0.19317079898E+02  0.73780966042E+02  0.99923332204E+02  0.41800000000E+01 0. -1.
</event>
<event>
11    1  0.8299058E-009  0.1455860E+03  0.7561462E-02  0.1101476E+00
         22   -1    0    0    0    0  0.00000000000E+00  0.00000000000E+00  0.42607719851E+03  0.42607719851E+03  0.00000000000E+00 0. -1.
         22   -1    0    0    0    0 -0.00000000000E+00 -0.00000000000E+00 -0.15589960768E+04  0.15589960768E+04  0.00000000000E+00 0. -1.
         24    2    1    2    0    0  0.97317656842E+01  0.29511849104E+01 -0.93772812903E+03  0.94175933388E+03  0.86447569195E+02 0.  0.
         25    2    1    2    0    0 -0.70944796494E+02  0.39354173574E+02 -0.60293870607E+03  0.62109941176E+03  0.12508989122E+03 0.  0.
        -24    2    1    2    0    0  0.61213030810E+02 -0.42305358485E+02  0.40774795679E+03  0.42221452968E+03  0.80435901863E+02 0.  0.
        -13    1    3    3    0    0  0.11663354308E+02  0.40262810327E+02 -0.29708751965E+03  0.30003020191E+03  0.00000000000E+00 0.  1.
         14    1    3    3    0    0 -0.19315886237E+01 -0.37311625417E+02 -0.64064060938E+03  0.64172913197E+03  0.00000000000E+00 0. -1.
         13    1    5    5    0    0  0.22895764511E+02 -0.11305604145E+02  0.32425981963E+03  0.32526368279E+03  0.00000000000E+00 0. -1.
        -14    1    5    5    0    0  0.38317266299E+02 -0.30999754339E+02  0.83488137168E+02  0.96950846894E+02  0.00000000000E+00 0.  1.
          5    1    4    4  501    0  0.21749130451E+02  0.10402924015E+02 -0.33814860102E+03  0.33903273334E+03  0.41800000000E+01 0. -1.
         -5    1    4    4    0  501 -0.92693926946E+02  0.28951249560E+02 -0.26479010505E+03  0.28206667842E+03  0.41800000000E+01 0. -1.
</event>
<event>
11    1  0.8299058E-009  0.1429514E+03  0.7561462E-02  0.1104307E+00
         22   -1    0    0    0    0  0.00000000000E+00  0.00000000000E+00  0.25231705752E+04  0.25231705752E+04  0.00000000000E+00 0. -1.
         22   -1    0    0    0    0 -0.00000000000E+00 -0.00000000000E+00 -0.13697874325E+02  0.13697874325E+02  0.00000000000E+00 0. -1.
        -24    2    1    2    0    0  0.58180158961E+02  0.33179465319E+02  0.42903490934E+03  0.44159881138E+03  0.80329004525E+02 0.  0.
         25    2    1    2    0    0 -0.46449236454E+02 -0.63313918673E+02  0.94498244678E+03  0.95645429137E+03  0.12508718112E+03 0.  0.
         24    2    1    2    0    0 -0.11730922506E+02  0.30134453354E+02  0.11354553448E+04  0.11388153468E+04  0.81214865021E+02 0.  0.
        -13    1    5    5    0    0  0.11120762829E+02 -0.22010180913E+02  0.56202018530E+03  0.56256093725E+03  0.00000000000E+00 0.  1.
         14    1    5    5    0    0 -0.22851685335E+02  0.52144634267E+02  0.57343515945E+03  0.57625440953E+03  0.00000000000E+00 0. -1.
         11    1    3    3    0    0  0.64420656264E+02  0.25207869030E+02  0.18753914562E+03  0.19989094215E+03  0.00000000000E+00 0. -1.
        -12    1    3    3    0    0 -0.62404973034E+01  0.79715962890E+01  0.24149576372E+03  0.24170786923E+03  0.00000000000E+00 0.  1.
          5    1    4    4  501    0 -0.68723720322E+02 -0.89388760026E+02  0.74883245777E+03  0.75728516582E+03  0.41800000000E+01 0.  1.
         -5    1    4    4    0  501  0.22274483868E+02  0.26074841353E+02  0.19614998901E+03  0.19916912555E+03  0.41800000000E+01 0.  1.
</event>
<event>
11    1  0.8299058E-009  0.1355174E+03  0.7561462E-02  0.1112670E+00
         22   -1    0    0    0    0  0.00000000000E+00  0.00000000000E+00  0.29060098935E+03  0.29060098935E+03  0.00000000000E+00 0. -1.
         22   -1    0    0    0    0 -0.00000000000E+00 -0.00000000000E+00 -0.44619420567E+03  0.44619420567E+03  0.00000000000E+00 0.  1.
        -24    2    1    2    0    0 -0.14359303910E+02 -0.21748293070E+02 -0.36999006278E+03  0.37935042204E+03  0.79592199899E+02 0.  0.
         25    2    1    2    0    0 -0.19251473909E+00 -0.32321525930E+02  0.88839036762E+01  0.12950247625E+03  0.12508896638E+03 0.  0.
         24    2    1    2    0    0  0.14551818649E+02  0.54069819000E+02  0.20551294279E+03  0.22794229672E+03  0.81159227617E+02 0.  0.
        -13    1    5    5    0    0 -0.33186466915E+01  0.19747647641E+02  0.12686602068E+01  0.20064707870E+02  0.00000000000E+00 0.  1.
         14    1    5    5    0    0  0.17870465341E+02  0.34322171359E+02  0.20424428258E+03  0.20787758885E+03  0.00000000000E+00 0. -1.
         11    1    3    3    0    0 -0.42280441603E+02  0.79130939563E+01 -0.18981810245E+03  0.19463084240E+03  0.00000000000E+00 0. -1.
        -12    1    3    3    0    0  0.27921137693E+02 -0.29661387027E+02 -0.18017196034E+03  0.18471957964E+03  0.00000000000E+00 0.  1.
          5    1    4    4  501    0 -0.60526167246E+02 -0.21045658416E+02 -0.10349612843E+02  0.65045549776E+02  0.41800000000E+01 0.  1.
         -5    1    4    4    0  501  0.60333652507E+02 -0.11275867514E+02  0.19233516519E+02  0.64456926475E+02  0.41800000000E+01 0.  1.
</event>
<event>
11    1  0.8299058E-009  0.1374932E+04  0.7561462E-02  0.8386545E-01
         22   -1    0    0    0    0  0.00000000000E+00  0.00000000000E+00  0.12308837766E+04  0.12308837766E+04  0.00000000000E+00 0.  1.
         22   -1    0    0    0    0 -0.00000000000E+00 -0.00000000000E+00 -0.24477613698E+04  0.24477613698E+04  0.00000000000E+00 0.  1.
        -24    2    1    2    0    0 -0.13444053547E+01  0.13896426029E+04 -0.81984801501E+03  0.16155099894E+04  0.81322733952E+02 0.  0.
         25    2    1    2    0    0  0.58168689381E+03 -0.12794623711E+04 -0.15472276586E+03  0.14194967499E+04  0.12509311459E+03 0.  0.
         24    2    1    2    0    0 -0.58034248845E+03 -0.11018023177E+03 -0.24230681225E+03  0.64363840707E+03  0.81367809493E+02 0.  0.
        -13    1    5    5    0    0 -0.22273542934E+03 -0.41678270792E+02 -0.13620205314E+03  0.26438447197E+03  0.00000000000E+00 0.  1.
         14    1    5    5    0    0 -0.35760705911E+03 -0.68501960979E+02 -0.10610475911E+03  0.37925393510E+03  0.00000000000E+00 0. -1.
         13    1    3    3    0    0  0.27354059750E+02  0.38667954105E+03 -0.25620698001E+03  0.46466259657E+03  0.00000000000E+00 0. -1.
        -14    1    3    3    0    0 -0.28698465105E+02  0.10029630618E+04 -0.56364103500E+03  0.11508473928E+04  0.00000000000E+00 0.  1.
          5    1    4    4  501    0  0.19658197033E+03 -0.31595157146E+03 -0.14357916843E+02  0.37241574717E+03  0.41800000000E+01 0.  1.
         -5    1    4    4    0  501  0.38510492348E+03 -0.96351079963E+03 -0.14036484901E+03  0.10470810028E+04  0.41800000000E+01 0.  1.
</event>
<event>
11    1  0.8299058E-009  0.1455149E+03  0.7561462E-02  0.1101552E+00
         22   -1    0    0    0    0  0.00000000000E+00  0.00000000000E+00  0.32836733677E+03  0.32836733677E+03  0.00000000000E+00 0. -1.
         22   -1    0    0    0    0 -0.00000000000E+00 -0.00000000000E+00 -0.29012230795E+03  0.29012230795E+03  0.00000000000E+00 0. -1.
        -24    2    1    2    0    0 -0.72547551056E+02 -0.18228350666E+02 -0.18858233608E+03  0.21865887632E+03  0.81565843232E+02 0.  0.
         25    2    1    2    0    0  0.71002093876E+02  0.14439528869E+02 -0.14350723305E+02  0.14526535468E+03  0.12508510175E+03 0.  0.
         24    2    1    2    0    0  0.15454571792E+01  0.37888217975E+01  0.24117808820E+03  0.25456541372E+03  0.81362989289E+02 0.  0.
        -11    1    5    5    0    0 -0.37190541698E+02  0.73767042952E+01  0.16159131383E+03  0.16597983271E+03  0.00000000000E+00 0.  1.
         12    1    5    5    0    0  0.38735998877E+02 -0.35878824977E+01  0.79586774367E+02  0.88585581016E+02  0.00000000000E+00 0. -1.
         11    1    3    3    0    0 -0.62859461910E+02 -0.29091092652E+02 -0.19165106699E+03  0.20378354963E+03  0.00000000000E+00 0. -1.
        -12    1    3    3    0    0 -0.96880891457E+01  0.10862741985E+02  0.30687309106E+01  0.14875326690E+02  0.00000000000E+00 0.  1.
          5    1    4    4  501    0 -0.33562712758E+02 -0.12334946806E+02  0.17968293518E+01  0.36045909561E+02  0.41800000000E+01 0.  1.
         -5    1    4    4    0  501  0.10456480663E+03  0.26774475675E+02 -0.16147552657E+02  0.10921944511E+03  0.41800000000E+01 0.  1.
</event>
<event>
11    1  0.8299058E-009  0.1300735E+03  0.7561462E-02  0.1119179E+00
         22   -1    0    0    0    0  0.00000000000E+00  0.00000000000E+00  0.12749799580E+04  0.12749799580E+04  0.00000000000E+00 0. -1.
         22   -1    0    0    0    0 -0.00000000000E+00 -0.00000000000E+00 -0.70003046969E+02  0.70003046969E+02  0.00000000000E+00 0. -1.
         24    2    1    2    0    0 -0.17174304509E+02 -0.22900081220E+02  0.17968955592E+02  0.86221492075E+02  0.79321446504E+02 0.  0.
         25    2    1    2    0    0  0.35559770012E+02  0.40784269201E+02  0.10089928168E+03  0.16957000884E+03  0.12508184919E+03 0.  0.
        -24    2    1    2    0    0 -0.18385465502E+02 -0.17884187981E+02  0.10861086738E+04  0.10891915041E+04  0.77770249896E+02 0.  0.
        -11    1    3    3    0    0 -0.26624291863E+02 -0.42802081824E+02  0.32365476375E+02  0.59903215162E+02  0.00000000000E+00 0.  1.
         12    1    3    3    0    0  0.94499873538E+01  0.19902000604E+02 -0.14396520784E+02  0.26318276914E+02  0.00000000000E+00 0. -1.
         13    1    5    5    0    0 -0.34183685049E+02 -0.17150696944E+02  0.10346670610E+04  0.10353736513E+04  0.00000000000E+00 0. -1.
        -14    1    5    5    0    0  0.15798219547E+02 -0.73349103676E+00  0.51441612808E+02  0.53817852784E+02  0.00000000000E+00 0.  1.
          5    1    4    4  501    0  0.50685156036E+02  0.39221775525E+02 -0.31794825744E+01  0.64303298727E+02  0.41800000000E+01 0.  1.
         -5    1    4    4    0  501 -0.15125386024E+02  0.15624936757E+01  0.10407876426E+03  0.10526671012E+03  0.41800000000E+01 0.  1.
</event>
<event>
11    1  0.8299058E-009  0.1709711E+03  0.7561462E-02  0.1077190E+00
         22   -1    0    0    0    0  0.00000000000E+00  0.00000000000E+00  0.90646304242E+02  0.90646304242E+02  0.00000000000E+00 0. -1.
         22   -1    0    0    0    0 -0.00000000000E+00 -0.00000000000E+00 -0.17763158596E+04  0.17763158596E+04  0.00000000000E+00 0. -1.
         24    2    1    2    0    0 -0.93196195453E+02 -0.61449436762E+02 -0.13921409505E+04  0.13988830989E+04  0.79724113026E+02 0.  0.
         25    2    1    2    0    0  0.11383248832E+03  0.14718450362E+03 -0.26024404983E+03  0.34350629015E+03  0.12509393431E+03 0.  0.
        -24    2    1    2    0    0 -0.20636292864E+02 -0.85735066853E+02 -0.33284555034E+02  0.12457277480E+03  0.81450330547E+02 0.  0.
        -13    1    3    3    0    0 -0.10037184254E+02  0.14253603507E+02 -0.77279965164E+02  0.79221861228E+02  0.00000000000E+00 0.  1.
         14    1    3    3    0    0 -0.83159011200E+02 -0.75703040270E+02 -0.13148609853E+04  0.13196612377E+04  0.00000000000E+00 0. -1.
         11    1    5    5    0    0 -0.19279864767E+02 -0.10184353584E+03 -0.31363637480E+02  0.10829356737E+03  0.00000000000E+00 0. -1.
        -12    1    5    5    0    0 -0.13564280962E+01  0.16108468987E+02 -0.19209175545E+01  0.16279207430E+02  0.00000000000E+00 0.  1.
          5    1    4    4  501    0 -0.24676699133E+02  0.10450898266E+02 -0.50619865062E+02  0.57428249960E+02  0.41800000000E+01 0. -1.
         -5    1    4    4    0  501  0.13850918745E+03  0.13673360535E+03 -0.20962418477E+03  0.28607804019E+03  0.41800000000E+01 0. -1.
</event>
<event>
11    1  0.8299058E-009  0.1731967E+03  0.7561462E-02  0.1075283E+00
         22   -1    0    0    0    0  0.00000000000E+00  0.00000000000E+00  0.37352306520E+03  0.37352306520E+03  0.00000000000E+00 0. -1.
         22   -1    0    0    0    0 -0.00000000000E+00 -0.00000000000E+00 -0.32562444073E+03  0.32562444073E+03  0.00000000000E+00 0. -1.
        -24    2    1    2    0    0 -0.34136086897E+01  0.11452510750E+02 -0.17336590475E+03  0.19130755972E+03  0.80000204686E+02 0.  0.
         25    2    1    2    0    0  0.11467504891E+03 -0.53490007873E+02 -0.63897268727E+02  0.18905336684E+03  0.12508703681E+03 0.  0.
         24    2    1    2    0    0 -0.11126144022E+03  0.42037497122E+02  0.28516179794E+03  0.31878657938E+03  0.78494413450E+02 0.  0.
        -13    1    5    5    0    0 -0.13403814890E+02 -0.21754658210E+02  0.45968512449E+02  0.52593075060E+02  0.00000000000E+00 0.  1.
         14    1    5    5    0    0 -0.97857625331E+02  0.63792155333E+02  0.23919328549E+03  0.26619350432E+03  0.00000000000E+00 0. -1.
         11    1    3    3    0    0  0.13420656339E+02  0.19618491526E+02 -0.17077198505E+03  0.17241829979E+03  0.00000000000E+00 0. -1.
        -12    1    3    3    0    0 -0.16834265029E+02 -0.81659807757E+01 -0.25939196981E+01  0.18889259924E+02  0.00000000000E+00 0.  1.
          5    1    4    4  501    0  0.80782520390E+01 -0.51670635544E+02  0.17007905544E+02  0.55153005218E+02  0.41800000000E+01 0.  1.
         -5    1    4    4    0  501  0.10659679687E+03 -0.18193723284E+01 -0.80905174271E+02  0.13390036162E+03  0.41800000000E+01 0.  1.
</event>
<event>
11    1  0.8299058E-009  0.1320407E+03  0.7561462E-02  0.1116787E+00
         22   -1    0    0    0    0  0.00000000000E+00  0.00000000000E+00  0.12424283125E+04  0.12424283125E+04  0.00000000000E+00 0. -1.
         22   -1    0    0    0    0 -0.00000000000E+00 -0.00000000000E+00 -0.69352082835E+03  0.69352082835E+03  0.00000000000E+00 0.  1.
        -24    2    1    2    0    0  0.41363477287E+02  0.76138104582E+01 -0.65936326452E+03  0.66505830213E+03  0.75985020089E+02 0.  0.
         25    2    1    2    0    0 -0.48551433892E+02 -0.38738903876E+02  0.13535590767E+03  0.19449054493E+03  0.12508959157E+03 0.  0.
         24    2    1    2    0    0  0.71879566046E+01  0.31125093418E+02  0.10729148410E+04  0.10764002938E+04  0.80441893935E+02 0.  0.
        -11    1    5    5    0    0  0.44950051980E+01  0.17524427681E+02  0.46554229421E+02  0.49946040026E+02  0.00000000000E+00 0.  1.
         12    1    5    5    0    0  0.26929514065E+01  0.13600665737E+02  0.10263606115E+04  0.10264542537E+04  0.00000000000E+00 0. -1.
         11    1    3    3    0    0  0.45774778001E+01 -0.83992549993E+01 -0.80263301526E+01  0.12486903670E+02  0.00000000000E+00 0. -1.
        -12    1    3    3    0    0  0.36785999487E+02  0.16013065457E+02 -0.65133693436E+03  0.65257139846E+03  0.00000000000E+00 0.  1.
          5    1    4    4  501    0 -0.48299572693E+02 -0.80510902903E+02  0.11284469037E+03  0.14685452241E+03  0.41800000000E+01 0.  1.
         -5    1    4    4    0  501 -0.25186119939E+00  0.41771999026E+02  0.22511217306E+02  0.47636022518E+02  0.41800000000E+01 0.  1.
</event>
<event>
11    1  0.8299058E-009  0.1509460E+03  0.7561462E-02  0.1095916E+00
         22   -1    0    0    0    0  0.00000000000E+00  0.00000000000E+00  0.54469328773E+03  0.54469328773E+03  0.00000000000E+00 0.  1.
         22   -1    0    0    0    0 -0.00000000000E+00 -0.00000000000E+00 -0.32118589492E+04  0.32118589492E+04  0.00000000000E+00 0.  1.
        -24    2    1    2    0    0 -0.62972922769E+02  0.55616602285E+02 -0.31332168110E+04  0.31353543709E+04  0.79628207164E+02 0.  0.
         25    2    1    2    0    0  0.93032847995E+02 -0.10245922562E+03  0.48464848096E+02  0.19273943014E+03  0.12508654087E+03 0.  0.
         24    2    1    2    0    0 -0.30059925226E+02  0.46842623340E+02  0.41758630141E+03  0.42845843584E+03  0.78105580182E+02 0.  0.
        -11    1    5    5    0    0 -0.29193009531E+02  0.67962434402E+02  0.34593204490E+03  0.35375147206E+03  0.00000000000E+00 0.  1.
         12    1    5    5    0    0 -0.86691569527E+00 -0.21119811062E+02  0.71654256508E+02  0.74706963784E+02  0.00000000000E+00 0. -1.
         13    1    3    3    0    0  0.14923902957E+02 -0.61226107724E+01 -0.37353960735E+03  0.37388774720E+03  0.00000000000E+00 0. -1.
        -14    1    3    3    0    0 -0.77896825726E+02  0.61739213057E+02 -0.27596772036E+04  0.27614666237E+04  0.00000000000E+00 0.  1.
          5    1    4    4  501    0  0.90098764902E+01 -0.65034271051E+02 -0.29490120547E+02  0.72095588598E+02  0.41800000000E+01 0. -1.
         -5    1    4    4    0  501  0.84022971505E+02 -0.37424954574E+02  0.77954968643E+02  0.12064384154E+03  0.41800000000E+01 0. -1.
</event>
<event>
11    1  0.8299058E-009  0.1414224E+03  0.7561462E-02  0.1105980E+00
         22   -1    0    0    0    0  0.00000000000E+00  0.00000000000E+00  0.11046015455E+04  0.11046015455E+04  0.00000000000E+00 0. -1.
         22   -1    0    0    0    0 -0.00000000000E+00 -0.00000000000E+00 -0.52611762583E+03  0.52611762583E+03  0.00000000000E+00 0.  1.
         24    2    1    2    0    0 -0.16429021116E+02 -0.64233677003E+02 -0.44838250373E+03  0.46041534143E+03  0.80867416079E+02 0.  0.
         25    2    1    2    0    0  0.32641457120E+02  0.55638457160E+02  0.60486468415E+00  0.14074323617E+03  0.12508872862E+03 0.  0.
        -24    2    1    2    0    0 -0.16212436003E+02  0.85952198431E+01  0.10262615587E+04  0.10295605937E+04  0.80283923604E+02 0.  0.
        -11    1    3    3    0    0 -0.30959269815E+02 -0.34244450120E+02 -0.39356778200E+03  0.39626601896E+03  0.00000000000E+00 0.  1.
         12    1    3    3    0    0  0.14530248699E+02 -0.29989226883E+02 -0.54814721727E+02  0.64149322478E+02  0.00000000000E+00 0. -1.
         11    1    5    5    0    0 -0.58145457086E+00  0.38292197092E+02  0.78997481459E+03  0.79090254654E+03  0.00000000000E+00 0. -1.
        -12    1    5    5    0    0 -0.15630981432E+02 -0.29696977249E+02  0.23628674413E+03  0.23865804719E+03  0.00000000000E+00 0.  1.
          5    1    4    4  501    0 -0.32281423183E+02 -0.16007982598E+00 -0.35121923229E+02  0.47886718404E+02  0.41800000000E+01 0. -1.
         -5    1    4    4    0  501  0.64922880302E+02  0.55798536986E+02  0.35726787913E+02  0.92856517763E+02  0.41800000000E+01 0. -1.
</event>
<event>
11    1  0.8299058E-009  0.1746040E+03  0.7561462E-02  0.1074093E+00
         22   -1    0    0    0    0  0.00000000000E+00  0.00000000000E+00  0.57950992337E+03  0.57950992337E+03  0.00000000000E+00 0. -1.
         22   -1    0    0    0    0 -0.00000000000E+00 -0.00000000000E+00 -0.13310540770E+04  0.13310540770E+04  0.00000000000E+00 0. -1.
         24    2    1    2    0    0  0.10232222386E+03 -0.65808567680E+02 -0.12944250688E+04  0.13025724329E+04  0.79737563579E+02 0.  0.
         25    2    1    2    0    0 -0.10002875966E+03  0.98722645519E+02  0.37653264809E+03  0.42092222240E+03  0.12508704463E+03 0.  0.
        -24    2    1    2    0    0 -0.22934642037E+01 -0.32914077839E+02  0.16634826703E+03  0.18706934515E+03  0.78959467150E+02 0.  0.
        -13    1    3    3    0    0  0.74157620999E+02 -0.98573933673E+01 -0.48598125774E+03  0.49170550519E+03  0.00000000000E+00 0.  1.
         14    1    3    3    0    0  0.28164602866E+02 -0.55951174313E+02 -0.80844381106E+03  0.81086692768E+03  0.00000000000E+00 0. -1.
         11    1    5    5    0    0  0.79696633571E+01 -0.12897433696E+02  0.16372163106E+03  0.16442211471E+03  0.00000000000E+00 0. -1.
        -12    1    5    5    0    0 -0.10263127561E+02 -0.20016644143E+02  0.26266359750E+01  0.22647230440E+02  0.00000000000E+00 0.  1.
          5    1    4    4  501    0 -0.63129966898E+02  0.42592748926E+02  0.33097909092E+03  0.33965300824E+03  0.41800000000E+01 0. -1.
         -5    1    4    4    0  501 -0.36898792763E+02  0.56129896594E+02  0.45553557175E+02  0.81269214160E+02  0.41800000000E+01 0. -1.
</event>
<event>
11    1  0.8299058E-009  0.1611530E+03  0.7561462E-02  0.1085998E+00
         22   -1    0    0    0    0  0.00000000000E+00  0.00000000000E+00  0.52935726978E+03  0.52935726978E+03  0.00000000000E+00 0.  1.
         22   -1    0    0    0    0 -0.00000000000E+00 -0.00000000000E+00 -0.28049587508E+03  0.28049587508E+03  0.00000000000E+00 0. -1.
         24    2    1    2    0    0 -0.65451913586E+02 -0.70547044511E+02 -0.14099913749E+03  0.19499241641E+03  0.94236124723E+02 0.  0.
         25    2    1    2    0    0  0.10772156318E+03  0.55071671660E+02 -0.32299060166E+02  0.17700179675E+03  0.12509829165E+03 0.  0.
        -24    2    1    2    0    0 -0.42269649592E+02  0.15475372851E+02  0.42215959235E+03  0.43785893170E+03  0.10712381720E+03 0.  0.
        -13    1    3    3    0    0 -0.49805695965E+02  0.11448465906E+02 -0.49744404401E+02  0.71317462738E+02  0.00000000000E+00 0.  1.
         14    1    3    3    0    0 -0.15646217621E+02 -0.81995510417E+02 -0.91254733088E+02  0.12367495367E+03  0.00000000000E+00 0. -1.
         11    1    5    5    0    0 -0.42245557767E+02  0.19004281675E+02  0.60576031806E+02  0.76258150400E+02  0.00000000000E+00 0. -1.
        -12    1    5    5    0    0 -0.24091825323E-01 -0.35289088244E+01  0.36158356055E+03  0.36160078130E+03  0.00000000000E+00 0.  1.
          5    1    4    4  501    0  0.41911511312E+02 -0.24856830357E+02 -0.52153245991E+02  0.71497344449E+02  0.41800000000E+01 0. -1.
         -5    1    4    4    0  501  0.65810051867E+02  0.79928502018E+02  0.19854185825E+02  0.10550445231E+03  0.41800000000E+01 0. -1.
</event>
<event>
11    1  0.8299058E-009  0.1436901E+03  0.7561462E-02  0.1103506E+00
         22   -1    0    0    0    0  0.00000000000E+00  0.00000000000E+00  0.16236435459E+04  0.16236435459E+04  0.00000000000E+00 0.  1.
         22   -1    0    0    0    0 -0.00000000000E+00 -0.00000000000E+00 -0.10099292093E+04  0.10099292093E+04  0.00000000000E+00 0.  1.
         24    2    1    2    0    0 -0.41596513766E+02  0.57037313143E+02 -0.97211379474E+03  0.97794303576E+03  0.79898849876E+02 0.  0.
         25    2    1    2    0    0  0.38169208031E+02 -0.67190388862E+02  0.12611313432E+03  0.19371015917E+03  0.12509063242E+03 0.  0.
        -24    2    1    2    0    0  0.34273057348E+01  0.10153075719E+02  0.14597149970E+04  0.14619195603E+04  0.79536765357E+02 0.  0.
        -11    1    3    3    0    0 -0.34508624612E+02 -0.12242772519E+02 -0.29782750369E+03  0.30006991286E+03  0.00000000000E+00 0.  1.
         12    1    3    3    0    0 -0.70878891535E+01  0.69280085662E+02 -0.67428629105E+03  0.67787312289E+03  0.00000000000E+00 0. -1.
         11    1    5    5    0    0 -0.36176085583E+02  0.24908921500E+01  0.47665535825E+03  0.47803268116E+03  0.00000000000E+00 0. -1.
        -12    1    5    5    0    0  0.39603391318E+02  0.76621835692E+01  0.98305963875E+03  0.98388687917E+03  0.00000000000E+00 0.  1.
          5    1    4    4  501    0  0.52944306180E+02 -0.77157482064E+02  0.33770633594E+02  0.99570601528E+02  0.41800000000E+01 0. -1.
         -5    1    4    4    0  501 -0.14775098150E+02  0.99670932018E+01  0.92342500729E+02  0.94139557643E+02  0.41800000000E+01 0. -1.
</event>
<event>
11    1  0.8299058E-009  0.1850072E+03  0.7561462E-02  0.1065663E+00
         22   -1    0    0    0    0  0.00000000000E+00  0.00000000000E+00  0.31114995199E+04  0.31114995199E+04  0.00000000000E+00 0.  1.
         22   -1    0    0    0    0 -0.00000000000E+00 -0.00000000000E+00 -0.85847989590E+03  0.85847989590E+03  0.00000000000E+00 0. -1.
        -24    2    1    2    0    0 -0.13016071941E+03  0.44814626159E+02 -0.83698648666E+03  0.85209581105E+03  0.81060031885E+02 0.  0.
         25    2    1    2    0    0  0.70224931630E+02  0.81674557339E+01  0.39198597303E+03  0.41749192881E+03  0.12509300228E+03 0.  0.
         24    2    1    2    0    0  0.59935787785E+02 -0.52982081893E+02  0.26980201376E+04  0.27003916760E+04  0.80019627616E+02 0.  0.
        -13    1    5    5    0    0  0.68253486356E+02 -0.12150640843E+02  0.19265877677E+04  0.19278346929E+04  0.00000000000E+00 0.  1.
         14    1    5    5    0    0 -0.83176985712E+01 -0.40831441049E+02  0.77143236990E+03  0.77255698302E+03  0.00000000000E+00 0. -1.
         13    1    3    3    0    0 -0.81131794870E+02 -0.14771410155E+02 -0.44905978004E+03  0.45656899670E+03  0.00000000000E+00 0. -1.
        -14    1    3    3    0    0 -0.49028924545E+02  0.59586036314E+02 -0.38792670662E+03  0.39552681435E+03  0.00000000000E+00 0.  1.
          5    1    4    4  501    0  0.61608420046E+02 -0.26469651113E+02  0.36847010075E+03  0.37454496045E+03  0.41800000000E+01 0. -1.
         -5    1    4    4    0  501  0.86165115844E+01  0.34637106847E+02  0.23515872271E+02  0.42946968359E+02  0.41800000000E+01 0. -1.
</event>
<event>
11    1  0.8299058E-009  0.1588097E+03  0.7561462E-02  0.1088202E+00
         22   -1    0    0    0    0  0.00000000000E+00  0.00000000000E+00  0.51367883757E+03  0.51367883757E+03  0.00000000000E+00 0. -1.
         22   -1    0    0    0    0 -0.00000000000E+00 -0.00000000000E+00 -0.72720075906E+03  0.72720075906E+03  0.00000000000E+00 0.  1.
         24    2    1    2    0    0  0.65850010950E+02  0.75005179545E+02 -0.63935794641E+03  0.65371452939E+03  0.92747514251E+02 0.  0.
         25    2    1    2    0    0 -0.35171746678E+02 -0.72726575272E+02 -0.40347871419E+01  0.14895736154E+03  0.12508321044E+03 0.  0.
        -24    2    1    2    0    0 -0.30678264271E+02 -0.22786042730E+01  0.42987081207E+03  0.43820770570E+03  0.79314124389E+02 0.  0.
        -11    1    3    3    0    0  0.89111027747E+02  0.63953461243E+02 -0.54350186289E+03  0.55445928203E+03  0.00000000000E+00 0.  1.
         12    1    3    3    0    0 -0.23261016797E+02  0.11051718302E+02 -0.95856083523E+02  0.99255247359E+02  0.00000000000E+00 0. -1.
         13    1    5    5    0    0 -0.12039403743E+02  0.38093881937E+02  0.23066071103E+03  0.23409496940E+03  0.00000000000E+00 0. -1.
        -14    1    5    5    0    0 -0.18638860528E+02 -0.40372486210E+02  0.19921010104E+03  0.20411273630E+03  0.00000000000E+00 0.  1.
          5    1    4    4  501    0  0.35815668185E+02  0.83575320895E+01  0.14072118107E+02  0.39599335072E+02  0.41800000000E+01 0. -1.
         -5    1    4    4    0  501 -0.70987414863E+02 -0.81084107362E+02 -0.18106905249E+02  0.10935802647E+03  0.41800000000E+01 0. -1.
</event>
<event>
11    1  0.8299058E-009  0.1410403E+03  0.7561462E-02  0.1106402E+00
         22   -1    0    0    0    0  0.00000000000E+00  0.00000000000E+00  0.71044824261E+03  0.71044824261E+03  0.00000000000E+00 0.  1.
         22   -1    0    0    0    0 -0.00000000000E+00 -0.00000000000E+00 -0.18123143663E+03  0.18123143663E+03  0.00000000000E+00 0. -1.
         24    2    1    2    0    0 -0.47508338737E+02  0.44546504577E+02 -0.12765536125E+03  0.17559135625E+03  0.10146427850E+03 0.  0.
         25    2    1    2    0    0  0.51758627363E+02 -0.40304041580E+02  0.16187877066E+03  0.21483870693E+03  0.12509021676E+03 0.  0.
        -24    2    1    2    0    0 -0.42502886259E+01 -0.42424629970E+01  0.49499339657E+03  0.50124961606E+03  0.78718812948E+02 0.  0.
        -11    1    3    3    0    0  0.23415002049E+02 -0.93921905375E+00 -0.98016165791E+00  0.23454320930E+02  0.00000000000E+00 0.  1.
         12    1    3    3    0    0 -0.70923340786E+02  0.45485723630E+02 -0.12667519960E+03  0.15213703532E+03  0.00000000000E+00 0. -1.
         13    1    5    5    0    0 -0.31842343235E+02 -0.84955794762E+01  0.10041543762E+03  0.10568523930E+03  0.00000000000E+00 0. -1.
        -14    1    5    5    0    0  0.27592054609E+02  0.42531164792E+01  0.39457795894E+03  0.39556437676E+03  0.00000000000E+00 0.  1.
          5    1    4    4  501    0  0.48931340331E+02 -0.36181181663E+02  0.18291417990E+03  0.19281707285E+03  0.41800000000E+01 0.  1.
         -5    1    4    4    0  501  0.28272870315E+01 -0.41228599163E+01 -0.21035409237E+02  0.22021634081E+02  0.41800000000E+01 0.  1.
</event>
<event>
11    1  0.8299058E-009  0.1316864E+03  0.7561462E-02  0.1117214E+00
         22   -1    0    0    0    0  0.00000000000E+00  0.00000000000E+00  0.37850265771E+03  0.37850265771E+03  0.00000000000E+00 0. -1.
         22   -1    0    0    0    0 -0.00000000000E+00 -0.00000000000E+00 -0.94442013210E+02  0.94442013210E+02  0.00000000000E+00 0.  1.
         24    2    1    2    0    0 -0.27465492598E+02 -0.90350037336E+01 -0.17093996346E+02  0.86851504917E+02  0.80093661542E+02 0.  0.
         25    2    1    2    0    0  0.21640502615E+02  0.48122735007E+02  0.10781911628E+03  0.17336909606E+03  0.12509105745E+03 0.  0.
        -24    2    1    2    0    0  0.58249899823E+01 -0.39087731274E+02  0.19333552456E+03  0.21272406994E+03  0.79442580718E+02 0.  0.
        -11    1    3    3    0    0 -0.55387190292E+02 -0.35682311814E+01 -0.43387647285E+01  0.55671339140E+02  0.00000000000E+00 0.  1.
         12    1    3    3    0    0  0.27921697695E+02 -0.54667725522E+01 -0.12755231617E+02  0.31180165777E+02  0.00000000000E+00 0. -1.
         13    1    5    5    0    0 -0.50120465274E+00 -0.53247799668E+02  0.18937236550E+03  0.19671673084E+03  0.00000000000E+00 0. -1.
        -14    1    5    5    0    0  0.63261946350E+01  0.14160068394E+02  0.39631590589E+01  0.16007339105E+02  0.00000000000E+00 0.  1.
          5    1    4    4  501    0  0.48084231603E+02  0.74820067569E+02  0.10153075407E+03  0.13504111323E+03  0.41800000000E+01 0. -1.
         -5    1    4    4    0  501 -0.26443728988E+02 -0.26697332562E+02  0.62883622169E+01  0.38327982833E+02  0.41800000000E+01 0. -1.
</event>
<event>
11    1  0.8299058E-009  0.1647067E+03  0.7561462E-02  0.1082732E+00
         22   -1    0    0    0    0  0.00000000000E+00  0.00000000000E+00  0.62548740751E+03  0.62548740751E+03  0.00000000000E+00 0. -1.
         22   -1    0    0    0    0 -0.00000000000E+00 -0.00000000000E+00 -0.87369377836E+03  0.87369377836E+03  0.00000000000E+00 0. -1.
         24    2    1    2    0    0 -0.42185029504E+02 -0.33530643373E+02 -0.83100636551E+03  0.83664339458E+03  0.80602167530E+02 0.  0.
         25    2    1    2    0    0  0.13392536254E+03  0.42863355758E+02  0.29966876482E+03  0.35386736729E+03  0.12508986779E+03 0.  0.
        -24    2    1    2    0    0 -0.91740333040E+02 -0.93327123855E+01  0.28313122984E+03  0.30867042400E+03  0.81306513360E+02 0.  0.
        -13    1    3    3    0    0 -0.10677222414E+02  0.15430431024E+02 -0.48959558199E+02  0.52432238356E+02  0.00000000000E+00 0.  1.
         14    1    3    3    0    0 -0.31507807090E+02 -0.48961074396E+02 -0.78204680731E+03  0.78421115622E+03  0.00000000000E+00 0. -1.
         11    1    5    5    0    0 -0.10045789754E+03 -0.16744647223E+02  0.27811644924E+03  0.29617719650E+03  0.00000000000E+00 0. -1.
        -12    1    5    5    0    0  0.87175645033E+01  0.74119348377E+01  0.50147806030E+01  0.12493227501E+02  0.00000000000E+00 0.  1.
          5    1    4    4  501    0  0.85801926140E+02  0.11818676092E+02  0.28008231937E+03  0.29319827704E+03  0.41800000000E+01 0.  1.
         -5    1    4    4    0  501  0.48123436404E+02  0.31044679666E+02  0.19586445454E+02  0.60669090255E+02  0.41800000000E+01 0.  1.
</event>
<event>
11    1  0.8299058E-009  0.1548641E+03  0.7561462E-02  0.1092010E+00
         22   -1    0    0    0    0  0.00000000000E+00  0.00000000000E+00  0.90179317847E+02  0.90179317847E+02  0.00000000000E+00 0.  1.
         22   -1    0    0    0    0 -0.00000000000E+00 -0.00000000000E+00 -0.19999754070E+04  0.19999754070E+04  0.00000000000E+00 0.  1.
         24    2    1    2    0    0 -0.74780249805E+02  0.29827233238E+02 -0.92548922480E+03  0.93250061957E+03  0.80903341606E+02 0.  0.
         25    2    1    2    0    0  0.14238354435E+03 -0.85437507285E+02 -0.10079737849E+04  0.10291897132E+04  0.12509066032E+03 0.  0.
        -24    2    1    2    0    0 -0.67603294543E+02  0.55610274047E+02  0.23666920604E+02  0.12846439205E+03  0.90995982769E+02 0.  0.
        -13    1    3    3    0    0 -0.26385551550E+02  0.97079325881E+01 -0.70394352162E+02  0.75801095652E+02  0.00000000000E+00 0.  1.
         14    1    3    3    0    0 -0.48394698255E+02  0.20119300650E+02 -0.85509487264E+03  0.85669952392E+03  0.00000000000E+00 0. -1.
         13    1    5    5    0    0 -0.86167260822E+02  0.33799528693E+02  0.20516136127E+01  0.92581931800E+02  0.00000000000E+00 0. -1.
        -14    1    5    5    0    0  0.18563966279E+02  0.21810745354E+02  0.21615306991E+02  0.35882460245E+02  0.00000000000E+00 0.  1.
          5    1    4    4  501    0 -0.31023449196E+01 -0.25546759223E+02 -0.41072890751E+03  0.41155554828E+03  0.41800000000E+01 0.  1.
         -5    1    4    4    0  501  0.14548588927E+03 -0.59890748063E+02 -0.59724487742E+03  0.61763416492E+03  0.41800000000E+01 0.  1.
</event>
<event>
11    1  0.8299058E-009  0.2067851E+03  0.7561462E-02  0.1049827E+00
         22   -1    0    0    0    0  0.00000000000E+00  0.00000000000E+00  0.19297168172E+03  0.19297168172E+03  0.00000000000E+00 0.  1.
         22   -1    0    0    0    0 -0.00000000000E+00 -0.00000000000E+00 -0.71958105571E+03  0.71958105571E+03  0.00000000000E+00 0.  1.
        -24    2    1    2    0    0  0.98587679265E+02 -0.12730762071E+03 -0.45930459529E+03  0.49301209345E+03  0.78571319490E+02 0.  0.
         25    2    1    2    0    0 -0.13594290538E+03  0.11600308728E+03 -0.17545755489E+03  0.27994782029E+03  0.12509292041E+03 0.  0.
         24    2    1    2    0    0  0.37355226115E+02  0.11304533433E+02  0.10815277618E+03  0.13959282369E+03  0.79157615141E+02 0.  0.
        -11    1    5    5    0    0  0.61087054431E+02  0.10531535343E+02  0.61904999000E+02  0.87605766688E+02  0.00000000000E+00 0.  1.
         12    1    5    5    0    0 -0.23731828315E+02  0.77299809035E+00  0.46247777183E+02  0.51987057001E+02  0.00000000000E+00 0. -1.
         11    1    3    3    0    0  0.27935439079E+02  0.46494583685E+01 -0.54461335631E+02  0.61384389696E+02  0.00000000000E+00 0. -1.
        -12    1    3    3    0    0  0.70652240185E+02 -0.13195707908E+03 -0.40484325966E+03  0.43162770376E+03  0.00000000000E+00 0.  1.
          5    1    4    4  501    0 -0.95974869523E+00  0.25443536954E+02 -0.95169440866E+02  0.98605220780E+02  0.41800000000E+01 0.  1.
         -5    1    4    4    0  501 -0.13498315668E+03  0.90559550322E+02 -0.80288114024E+02  0.18134259951E+03  0.41800000000E+01 0.  1.
</event>
<event>
11    1  0.8299058E-009  0.1623019E+03  0.7561462E-02  0.1084932E+00
         22   -1    0    0    0    0  0.00000000000E+00  0.00000000000E+00  0.11269554297E+03  0.11269554297E+03  0.00000000000E+00 0.  1.
         22   -1    0    0    0    0 -0.00000000000E+00 -0.00000000000E+00 -0.11219881875E+04  0.11219881875E+04  0.00000000000E+00 0. -1.
        -24    2    1    2    0    0 -0.93442284804E+01  0.72981142259E+02 -0.73715561194E+03  0.74519578743E+03  0.80652362991E+02 0.  0.
         25    2    1    2    0    0  0.78586552636E+02 -0.13845273125E+03 -0.29660321927E+03  0.35911829111E+03  0.12508985684E+03 0.  0.
         24    2    1    2    0    0 -0.69242324155E+02  0.65471588991E+02  0.24466186736E+02  0.13036965188E+03  0.85537263338E+02 0.  0.
        -11    1    5    5    0    0 -0.37702699094E+02  0.80041278638E+02  0.33277040105E+02  0.94527568482E+02  0.00000000000E+00 0.  1.
         12    1    5    5    0    0 -0.31539625062E+02 -0.14569689647E+02 -0.88108533691E+01  0.35842083401E+02  0.00000000000E+00 0. -1.
         11    1    3    3    0    0 -0.26196942804E+02  0.84044272268E+02 -0.63467155662E+03  0.64074776963E+03  0.00000000000E+00 0. -1.
        -12    1    3    3    0    0  0.16852714323E+02 -0.11063130010E+02 -0.10248405533E+03  0.10444801780E+03  0.00000000000E+00 0.  1.
          5    1    4    4  501    0 -0.33758727382E+02 -0.40726179109E+02 -0.67776831975E+02  0.86078131321E+02  0.41800000000E+01 0.  1.
         -5    1    4    4    0  501  0.11234528002E+03 -0.97726552141E+02 -0.22882638730E+03  0.27304015979E+03  0.41800000000E+01 0.  1.
</event>
<event>
11    1  0.8299058E-009  0.2398957E+03  0.7561462E-02  0.1029424E+00
         22   -1    0    0    0    0  0.00000000000E+00  0.00000000000E+00  0.30917143758E+03  0.30917143758E+03  0.00000000000E+00 0.  1.
         22   -1    0    0    0    0 -0.00000000000E+00 -0.00000000000E+00 -0.94156403481E+03  0.94156403481E+03  0.00000000000E+00 0.  1.
        -24    2    1    2    0    0  0.30901430767E+02 -0.12854919842E+03 -0.48099174464E+03  0.50525244109E+03  0.80294308496E+02 0.  0.
         25    2    1    2    0    0  0.13743063579E+03  0.23586485902E+03 -0.34395930582E+03  0.45659319761E+03  0.12509969090E+03 0.  0.
         24    2    1    2    0    0 -0.16833206656E+03 -0.10731566060E+03  0.19255845324E+03  0.28888983370E+03  0.80785162358E+02 0.  0.
        -11    1    5    5    0    0 -0.15155882075E+03 -0.99207146409E+02  0.19907530653E+03  0.26915258074E+03  0.00000000000E+00 0.  1.
         12    1    5    5    0    0 -0.16773245814E+02 -0.81085141896E+01 -0.65168532977E+01  0.19737252960E+02  0.00000000000E+00 0. -1.
         11    1    3    3    0    0  0.38863986500E+02 -0.62671243912E+02 -0.14393993681E+03  0.16173063924E+03  0.00000000000E+00 0. -1.
        -12    1    3    3    0    0 -0.79625557330E+01 -0.65877954507E+02 -0.33705180784E+03  0.34352180185E+03  0.00000000000E+00 0.  1.
          5    1    4    4  501    0  0.30099785887E+02  0.64721510053E+01 -0.10077693189E+03  0.10545780317E+03  0.41800000000E+01 0. -1.
         -5    1    4    4    0  501  0.10733084991E+03  0.22939270801E+03 -0.24318237394E+03  0.35113539443E+03  0.41800000000E+01 0. -1.
</event>
<event>
11    1  0.8299058E-009  0.1471435E+03  0.7561462E-02  0.1099834E+00
         22   -1    0    0    0    0  0.00000000000E+00  0.00000000000E+00  0.21538428415E+03  0.21538428415E+03  0.00000000000E+00 0. -1.
         22   -1    0    0    0    0 -0.00000000000E+00 -0.00000000000E+00 -0.38070177508E+03  0.38070177508E+03  0.00000000000E+00 0.  1.
        -24    2    1    2    0    0  0.54019382232E+02 -0.56224900656E+02 -0.19065203235E+03  0.22105443902E+03  0.80234247428E+02 0.  0.
         25    2    1    2    0    0 -0.52815536688E+00  0.94403859039E+02 -0.11962738249E+03  0.19715684648E+03  0.12509094260E+03 0.  0.
         24    2    1    2    0    0 -0.53491226865E+02 -0.38178958384E+02  0.14496192392E+03  0.17787477372E+03  0.79413673417E+02 0.  0.
        -13    1    5    5    0    0 -0.73027526233E+02 -0.27964692568E+02  0.12825301526E+03  0.15021278088E+03  0.00000000000E+00 0.  1.
         14    1    5    5    0    0  0.19536299368E+02 -0.10214265816E+02  0.16708908662E+02  0.27661992839E+02  0.00000000000E+00 0. -1.
         13    1    3    3    0    0 -0.20704425257E+02 -0.51741827131E+01 -0.38745547738E+02  0.44234182048E+02  0.00000000000E+00 0. -1.
        -14    1    3    3    0    0  0.74723807488E+02 -0.51050717943E+02 -0.15190648462E+03  0.17682025697E+03  0.00000000000E+00 0.  1.
          5    1    4    4  501    0 -0.91095447353E+00 -0.14692182509E+02  0.16601220676E+02  0.22577931546E+02  0.41800000000E+01 0. -1.
         -5    1    4    4    0  501  0.38279910665E+00  0.10909604155E+03 -0.13622860317E+03  0.17457891493E+03  0.41800000000E+01 0. -1.
</event>
<event>
11    1  0.8299058E-009  0.1250955E+03  0.7561462E-02  0.1125446E+00
         22   -1    0    0    0    0  0.00000000000E+00  0.00000000000E+00  0.10788096845E+04  0.10788096845E+04  0.00000000000E+00 0.  1.
         22   -1    0    0    0    0 -0.00000000000E+00 -0.00000000000E+00 -0.56472928094E+02  0.56472928094E+02  0.00000000000E+00 0. -1.
        -24    2    1    2    0    0  0.10429003096E+00 -0.13131843227E+01 -0.77585231263E+01  0.84200800359E+02  0.83832241831E+02 0.  0.
         25    2    1    2    0    0  0.15657671135E+02 -0.76680486789E+01  0.55142529227E+03  0.56570427163E+03  0.12509000100E+03 0.  0.
         24    2    1    2    0    0 -0.15761961165E+02  0.89812330016E+01  0.47866998727E+03  0.48537754061E+03  0.78340910463E+02 0.  0.
        -13    1    5    5    0    0 -0.44225383795E+02  0.20704595608E+02  0.25926933165E+03  0.26382788175E+03  0.00000000000E+00 0.  1.
         14    1    5    5    0    0  0.28463422629E+02 -0.11723362607E+02  0.21940065561E+03  0.22154965886E+03  0.00000000000E+00 0. -1.
         11    1    3    3    0    0 -0.40099430665E+01 -0.36635415071E+02 -0.25146936077E+02  0.44616159347E+02  0.00000000000E+00 0. -1.
        -12    1    3    3    0    0  0.41142330975E+01  0.35322230749E+02  0.17388412951E+02  0.39584641011E+02  0.00000000000E+00 0.  1.
          5    1    4    4  501    0  0.63050880714E+02  0.24223522913E+02  0.25707701063E+03  0.26583501352E+03  0.41800000000E+01 0.  1.
         -5    1    4    4    0  501 -0.47393209579E+02 -0.31891571592E+02  0.29434828164E+03  0.29986925811E+03  0.41800000000E+01 0.  1.
</event>
<event>
11    1  0.8299058E-009  0.1292570E+03  0.7561462E-02  0.1120185E+00
         22   -1    0    0    0    0  0.00000000000E+00  0.00000000000E+00  0.33680848307E+03  0.33680848307E+03  0.00000000000E+00 0.  1.
         22   -1    0    0    0    0 -0.00000000000E+00 -0.00000000000E+00 -0.43446082226E+03  0.43446082226E+03  0.00000000000E+00 0. -1.
         24    2    1    2    0    0 -0.30970066887E+02 -0.95814572537E+01 -0.36222098408E+03  0.37251461563E+03  0.80697882153E+02 0.  0.
         25    2    1    2    0    0  0.41344217115E+02 -0.19037287288E+02  0.13540444345E+02  0.13379624461E+03  0.12508528627E+03 0.  0.
        -24    2    1    2    0    0 -0.10374150229E+02  0.28618744541E+02  0.25102820054E+03  0.26495844509E+03  0.79127521302E+02 0.  0.
        -11    1    3    3    0    0  0.67028875512E+01  0.25369910105E+01  0.91813805057E+00  0.72255105281E+01  0.00000000000E+00 0.  1.
         12    1    3    3    0    0 -0.37672954438E+02 -0.12118448264E+02 -0.36313912213E+03  0.36528910510E+03  0.00000000000E+00 0. -1.
         13    1    5    5    0    0 -0.24112633475E+02  0.98308082454E+01  0.20190400282E+02  0.32950207092E+02  0.00000000000E+00 0. -1.
        -14    1    5    5    0    0  0.13738483247E+02  0.18787936296E+02  0.23083780026E+03  0.23200823800E+03  0.00000000000E+00 0.  1.
          5    1    4    4  501    0  0.72899621627E+02  0.25129106344E+02 -0.17702804119E+01  0.77242689698E+02  0.41800000000E+01 0.  1.
         -5    1    4    4    0  501 -0.31555404512E+02 -0.44166393632E+02  0.15310724757E+02  0.56553554910E+02  0.41800000000E+01 0.  1.
</event>
<event>
11    1  0.8299058E-009  0.1303566E+03  0.7561462E-02  0.1118832E+00
         22   -1    0    0    0    0  0.00000000000E+00  0.00000000000E+00  0.23341180684E+03  0.23341180684E+03  0.00000000000E+00 0.  1.
         22   -1    0    0    0    0 -0.00000000000E+00 -0.00000000000E+00 -0.77828898351E+03  0.77828898351E+03  0.00000000000E+00 0. -1.
         24    2    1    2    0    0  0.18281890436E+02 -0.21456053229E+02 -0.66589969846E+03  0.67134910412E+03  0.80576804686E+02 0.  0.
         25    2    1    2    0    0  0.85415891562E+01  0.46172531526E+02 -0.54466655855E+02  0.14428939411E+03  0.12509177127E+03 0.  0.
        -24    2    1    2    0    0 -0.26823479592E+02 -0.24716478297E+02  0.17548917764E+03  0.19606229213E+03  0.79457961014E+02 0.  0.
        -11    1    3    3    0    0 -0.85395507915E+01 -0.30864168998E+02 -0.10608094948E+03  0.11080924464E+03  0.00000000000E+00 0.  1.
         12    1    3    3    0    0  0.26821441228E+02  0.94081157686E+01 -0.55981874898E+03  0.56053985948E+03  0.00000000000E+00 0. -1.
         13    1    5    5    0    0 -0.18919010404E+02 -0.53094484686E+02  0.13205255138E+03  0.14357865296E+03  0.00000000000E+00 0. -1.
        -14    1    5    5    0    0 -0.79044691882E+01  0.28378006389E+02  0.43436626258E+02  0.52483639169E+02  0.00000000000E+00 0.  1.
          5    1    4    4  501    0 -0.37048798740E+02 -0.24336361643E+02 -0.75933167094E+00  0.44530000794E+02  0.41800000000E+01 0.  1.
         -5    1    4    4    0  501  0.45590387896E+02  0.70508893169E+02 -0.53707324185E+02  0.99759393320E+02  0.41800000000E+01 0.  1.
</event>
<event>
11    1  0.8299058E-009  0.1656499E+03  0.7561462E-02  0.1081881E+00
         22   -1    0    0    0    0  0.00000000000E+00  0.00000000000E+00  0.14286405099E+03  0.14286405099E+03  0.00000000000E+00 0. -1.
         22   -1    0    0    0    0 -0.00000000000E+00 -0.00000000000E+00 -0.33118446795E+03  0.33118446795E+03  0.00000000000E+00 0. -1.
         24    2    1    2    0    0  0.12700581079E+02  0.92920245167E+02 -0.10965939487E+03  0.16598618793E+03  0.82041178548E+02 0.  0.
         25    2    1    2    0    0  0.14057058014E+02 -0.14145936592E+03 -0.91228024621E+02  0.21018514070E+03  0.12508752059E+03 0.  0.
        -24    2    1    2    0    0 -0.26757639093E+02  0.48539120757E+02  0.12567002525E+02  0.97877190317E+02  0.79686870551E+02 0.  0.
        -11    1    3    3    0    0  0.14675598328E+02 -0.55966139582E+01  0.33407120466E+01  0.16057883767E+02  0.00000000000E+00 0.  1.
         12    1    3    3    0    0 -0.19750172492E+01  0.98516859126E+02 -0.11300010692E+03  0.14992830416E+03  0.00000000000E+00 0. -1.
         11    1    5    5    0    0 -0.86237067995E+01  0.67148822470E+02 -0.26743647487E+01  0.67753117308E+02  0.00000000000E+00 0. -1.
        -12    1    5    5    0    0 -0.18133932294E+02 -0.18609701713E+02  0.15241367274E+02  0.30124073009E+02  0.00000000000E+00 0.  1.
          5    1    4    4  501    0  0.30118433328E+02 -0.13892031543E+03 -0.28224612073E+02  0.14498301691E+03  0.41800000000E+01 0. -1.
         -5    1    4    4    0  501 -0.16061375314E+02 -0.25390504971E+01 -0.63003412548E+02  0.65202123792E+02  0.41800000000E+01 0. -1.
</event>
<event>
11    1  0.8299058E-009  0.1334613E+03  0.7561462E-02  0.1115088E+00
         22   -1    0    0    0    0  0.00000000000E+00  0.00000000000E+00  0.20561079502E+04  0.20561079502E+04  0.00000000000E+00 0.  1.
         22   -1    0    0    0    0 -0.00000000000E+00 -0.00000000000E+00 -0.79922651157E+03  0.79922651157E+03  0.00000000000E+00 0.  1.
        -24    2    1    2    0    0 -0.91465735326E+01  0.44785225675E+02 -0.73165726919E+03  0.73745161741E+03  0.80144570677E+02 0.  0.
         25    2    1    2    0    0  0.22262267710E+01 -0.70435362501E+02  0.17060485270E+02  0.14458116725E+03  0.12508619984E+03 0.  0.
         24    2    1    2    0    0  0.69203467616E+01  0.25650136826E+02  0.19714782226E+04  0.19733016771E+04  0.80543815117E+02 0.  0.
        -11    1    5    5    0    0 -0.19512010488E+01  0.58870940020E+00  0.17784628333E+04  0.17784640011E+04  0.00000000000E+00 0.  1.
         12    1    5    5    0    0  0.88715478104E+01  0.25061427426E+02  0.19301538933E+03  0.19483767609E+03  0.00000000000E+00 0. -1.
         11    1    3    3    0    0 -0.26266274572E+02 -0.73286247249E+01 -0.42884456868E+03  0.42971070501E+03  0.00000000000E+00 0. -1.
        -12    1    3    3    0    0  0.17119701040E+02  0.52113850400E+02 -0.30281270051E+03  0.30774091239E+03  0.00000000000E+00 0.  1.
          5    1    4    4  501    0  0.27703150102E+02  0.62754809423E+01 -0.37308420131E+02  0.47076924276E+02  0.41800000000E+01 0.  1.
         -5    1    4    4    0  501 -0.25476923331E+02 -0.76710843444E+02  0.54368905400E+02  0.97504242978E+02  0.41800000000E+01 0.  1.
</event>
<event>
11    1  0.8299058E-009  0.1312109E+03  0.7561462E-02  0.1117790E+00
         22   -1    0    0    0    0  0.00000000000E+00  0.00000000000E+00  0.15468741559E+04  0.15468741559E+04  0.00000000000E+00 0.  1.
         22   -1    0    0    0    0 -0.00000000000E+00 -0.00000000000E+00 -0.21835681316E+03  0.21835681316E+03  0.00000000000E+00 0.  1.
         24    2    1    2    0    0  0.32970712768E+01 -0.43725583557E+02 -0.13364483614E+03  0.16152742807E+03  0.79418955275E+02 0.  0.
         25    2    1    2    0    0 -0.47534190552E+01  0.21671734288E+02 -0.11604998203E+02  0.12756978182E+03  0.12508842549E+03 0.  0.
        -24    2    1    2    0    0  0.14563477784E+01  0.22053849269E+02  0.14737671771E+04  0.14761337591E+04  0.80577227048E+02 0.  0.
        -11    1    3    3    0    0 -0.27262148495E+02 -0.44845742592E+02 -0.11311025119E+03  0.12469279969E+03  0.00000000000E+00 0.  1.
         12    1    3    3    0    0  0.30559219771E+02  0.11201590346E+01 -0.20534584943E+02  0.36834628382E+02  0.00000000000E+00 0. -1.
         13    1    5    5    0    0 -0.32208421105E+02  0.12607775958E+02  0.32514462226E+03  0.32697914886E+03  0.00000000000E+00 0. -1.
        -14    1    5    5    0    0  0.33664768883E+02  0.94460733114E+01  0.11486225548E+04  0.11491546103E+04  0.00000000000E+00 0.  1.
          5    1    4    4  501    0 -0.48743495380E+02  0.34467142653E+02  0.28733749350E+02  0.66385337359E+02  0.41800000000E+01 0. -1.
         -5    1    4    4    0  501  0.43990076325E+02 -0.12795408365E+02 -0.40338747553E+02  0.61184444465E+02  0.41800000000E+01 0. -1.
</event>
<event>
11    1  0.8299058E-009  0.1881740E+03  0.7561462E-02  0.1063216E+00
         22   -1    0    0    0    0  0.00000000000E+00  0.00000000000E+00  0.59966323132E+03  0.59966323132E+03  0.00000000000E+00 0. -1.
         22   -1    0    0    0    0 -0.00000000000E+00 -0.00000000000E+00 -0.35510584853E+04  0.35510584853E+04  0.00000000000E+00 0.  1.
         24    2    1    2    0    0 -0.23627249227E+02  0.17980418675E+02 -0.33821578233E+04  0.33832593831E+04  0.81061512181E+02 0.  0.
         25    2    1    2    0    0  0.38788462834E+02 -0.15620660941E+03 -0.89736156355E+02  0.22274914812E+03  0.12513814589E+03 0.  0.
        -24    2    1    2    0    0 -0.15161213607E+02  0.13822619074E+03  0.52049872568E+03  0.54471318548E+03  0.80356635014E+02 0.  0.
        -13    1    3    3    0    0  0.28966076671E+02  0.34560922827E+01 -0.16020447898E+04  0.16023103591E+04  0.00000000000E+00 0.  1.
         14    1    3    3    0    0 -0.52593325898E+02  0.14524326393E+02 -0.17801130335E+04  0.17809490240E+04  0.00000000000E+00 0. -1.
         13    1    5    5    0    0 -0.13105548686E+02  0.28754136994E+02  0.26315186379E+03  0.26504237249E+03  0.00000000000E+00 0. -1.
        -14    1    5    5    0    0 -0.20556649206E+01  0.10947205374E+03  0.25734686190E+03  0.27967081299E+03  0.00000000000E+00 0.  1.
          5    1    4    4  501    0  0.52524146816E+02 -0.23416557448E+02 -0.65045023875E+02  0.86922084031E+02  0.41800000000E+01 0.  1.
         -5    1    4    4    0  501 -0.13735683982E+02 -0.13279005196E+03 -0.24691132480E+02  0.13582706409E+03  0.41800000000E+01 0.  1.
</event>
<event>
11    1  0.8299058E-009  0.1333851E+03  0.7561462E-02  0.1115178E+00
         22   -1    0    0    0    0  0.00000000000E+00  0.00000000000E+00  0.71458410092E+03  0.71458410092E+03  0.00000000000E+00 0.  1.
         22   -1    0    0    0    0 -0.00000000000E+00 -0.00000000000E+00 -0.46250428105E+03  0.46250428105E+03  0.00000000000E+00 0.  1.
         24    2    1    2    0    0  0.18834339483E+01  0.50402619652E+01 -0.29007003625E+03  0.30095671959E+03  0.80033552806E+02 0.  0.
         25    2    1    2    0    0  0.16511863472E+01 -0.51097651478E+02 -0.13518001767E+03  0.19114076918E+03  0.12508980799E+03 0.  0.
        -24    2    1    2    0    0 -0.35346202955E+01  0.46057389513E+02  0.67732987379E+03  0.68499089320E+03  0.91120739583E+02 0.  0.
        -13    1    3    3    0    0 -0.40453992596E+01  0.34408427599E+02 -0.24089448652E+03  0.24337308557E+03  0.00000000000E+00 0.  1.
         14    1    3    3    0    0  0.59288332079E+01 -0.29368165634E+02 -0.49175549725E+02  0.57583634017E+02  0.00000000000E+00 0. -1.
         13    1    5    5    0    0 -0.58944879262E+01  0.95148414474E+01  0.60695584017E+01  0.12732507014E+02  0.00000000000E+00 0. -1.
        -14    1    5    5    0    0  0.23598676307E+01  0.36542548066E+02  0.67126031538E+03  0.67225838619E+03  0.00000000000E+00 0.  1.
          5    1    4    4  501    0 -0.48911508256E+02  0.88187172395E+01 -0.83125868949E+02  0.96940641127E+02  0.41800000000E+01 0. -1.
         -5    1    4    4    0  501  0.50562694603E+02 -0.59916368718E+02 -0.52054148718E+02  0.94200128050E+02  0.41800000000E+01 0. -1.
</event>
<event>
11    1  0.8299058E-009  0.1481579E+03  0.7561462E-02  0.1098776E+00
         22   -1    0    0    0    0  0.00000000000E+00  0.00000000000E+00  0.19230429045E+04  0.19230429045E+04  0.00000000000E+00 0. -1.
         22   -1    0    0    0    0 -0.00000000000E+00 -0.00000000000E+00 -0.69458154493E+02  0.69458154493E+02  0.00000000000E+00 0.  1.
         24    2    1    2    0    0  0.47830383939E+01  0.79892281034E+02 -0.23602550889E+01  0.11365224261E+03  0.80657345741E+02 0.  0.
         25    2    1    2    0    0  0.46135260270E+02 -0.73560980420E+02  0.62521080985E+03  0.64348821709E+03  0.12509535842E+03 0.  0.
        -24    2    1    2    0    0 -0.50918298664E+02 -0.63313006143E+01  0.12307341952E+04  0.12353605993E+04  0.93682401892E+02 0.  0.
        -11    1    3    3    0    0 -0.30577234073E+02  0.58291179493E+02 -0.19737630497E+02  0.68719741762E+02  0.00000000000E+00 0.  1.
         12    1    3    3    0    0  0.35360272467E+02  0.21601101541E+02  0.17377375408E+02  0.44932500852E+02  0.00000000000E+00 0. -1.
         13    1    5    5    0    0 -0.46500362856E+02 -0.20618176653E+02  0.12010088914E+04  0.12020855835E+04  0.00000000000E+00 0. -1.
        -14    1    5    5    0    0 -0.44179358081E+01  0.14286876039E+02  0.29725303835E+02  0.33275015730E+02  0.00000000000E+00 0.  1.
          5    1    4    4  501    0  0.20296421840E+02 -0.68824761181E+01  0.48990051720E+03  0.49038689049E+03  0.41800000000E+01 0.  1.
         -5    1    4    4    0  501  0.25838838430E+02 -0.66678504302E+02  0.13531029265E+03  0.15310132659E+03  0.41800000000E+01 0.  1.
</event>
<event>
11    1  0.8299058E-009  0.1370861E+03  0.7561462E-02  0.1110857E+00
         22   -1    0    0    0    0  0.00000000000E+00  0.00000000000E+00  0.11863662777E+04  0.11863662777E+04  0.00000000000E+00 0. -1.
         22   -1    0    0    0    0 -0.00000000000E+00 -0.00000000000E+00 -0.26886656113E+03  0.26886656113E+03  0.00000000000E+00 0.  1.
        -24    2    1    2    0    0  0.51267723467E+02 -0.11960856768E+02 -0.20701984113E+03  0.22845460303E+03  0.81011415610E+02 0.  0.
         25    2    1    2    0    0 -0.99144562696E+02  0.46154574513E+01  0.80852298157E+02  0.17898285581E+03  0.12508725674E+03 0.  0.
         24    2    1    2    0    0  0.47876839229E+02  0.73453993165E+01  0.10436672595E+04  0.10477953800E+04  0.79294785928E+02 0.  0.
        -11    1    5    5    0    0 -0.21095303333E+02  0.89130111801E+01  0.19839680156E+03  0.19971415689E+03  0.00000000000E+00 0.  1.
         12    1    5    5    0    0  0.68972142562E+02 -0.15676118635E+01  0.84527045797E+03  0.84808122310E+03  0.00000000000E+00 0. -1.
         13    1    3    3    0    0  0.50210944333E+02  0.24435585953E+02 -0.90147669490E+02  0.10604168570E+03  0.00000000000E+00 0. -1.
        -14    1    3    3    0    0  0.10567791338E+01 -0.36396442721E+02 -0.11687217164E+03  0.12241291733E+03  0.00000000000E+00 0.  1.
          5    1    4    4  501    0 -0.27282867752E+02 -0.56947589769E+02  0.19865680670E+02  0.66328730741E+02  0.41800000000E+01 0. -1.
         -5    1    4    4    0  501 -0.71861694944E+02  0.61563047220E+02  0.60986617487E+02  0.11265412507E+03  0.41800000000E+01 0. -1.
</event>
<event>
11    1  0.8299058E-009  0.1920917E+03  0.7561462E-02  0.1060261E+00
         22   -1    0    0    0    0  0.00000000000E+00  0.00000000000E+00  0.90671134397E+03  0.90671134397E+03  0.00000000000E+00 0.  1.
         22   -1    0    0    0    0 -0.00000000000E+00 -0.00000000000E+00 -0.15996939667E+04  0.15996939667E+04  0.00000000000E+00 0.  1.
        -24    2    1    2    0    0 -0.13508655325E+03  0.21021436400E+02 -0.97515096601E+03  0.98790628757E+03  0.79681546536E+02 0.  0.
         25    2    1    2    0    0  0.17219940350E+03 -0.10492139306E+02 -0.59741230917E+03  0.63428008825E+03  0.12508814354E+03 0.  0.
         24    2    1    2    0    0 -0.37112850257E+02 -0.10529297094E+02  0.87958065243E+03  0.88421893486E+03  0.81809357003E+02 0.  0.
        -11    1    5    5    0    0  0.26795035125E+01 -0.11561593883E+02  0.70729672063E+03  0.70739628300E+03  0.00000000000E+00 0.  1.
         12    1    5    5    0    0 -0.39792353770E+02  0.10322967892E+01  0.17228393180E+03  0.17682265187E+03  0.00000000000E+00 0. -1.
         11    1    3    3    0    0 -0.55192409271E+02  0.48546363160E+02 -0.42711584306E+03  0.43339461788E+03  0.00000000000E+00 0. -1.
        -12    1    3    3    0    0 -0.79894143975E+02 -0.27524926760E+02 -0.54803512295E+03  0.55451166969E+03  0.00000000000E+00 0.  1.
          5    1    4    4  501    0  0.61973986020E+01 -0.28141985734E+02 -0.26238095020E+02  0.39195524499E+02  0.41800000000E+01 0. -1.
         -5    1    4    4    0  501  0.16600200490E+03  0.17649846428E+02 -0.57117421415E+03  0.59508456375E+03  0.41800000000E+01 0. -1.
</event>
<event>
11    1  0.8299058E-009  0.1304536E+03  0.7561462E-02  0.1118713E+00
         22   -1    0    0    0    0  0.00000000000E+00  0.00000000000E+00  0.10778205954E+04  0.10778205954E+04  0.00000000000E+00 0.  1.
         22   -1    0    0    0    0 -0.00000000000E+00 -0.00000000000E+00 -0.16337866570E+03  0.16337866570E+03  0.00000000000E+00 0.  1.
         24    2    1    2    0    0  0.56451352158E+01  0.35014012250E+02 -0.12764208794E+03  0.15515281447E+03  0.80759176685E+02 0.  0.
         25    2    1    2    0    0  0.15943568773E+02 -0.69255222594E+02  0.23760114684E+03  0.27776197976E+03  0.12508768596E+03 0.  0.
        -24    2    1    2    0    0 -0.21588703989E+02  0.34241210344E+02  0.80448287083E+03  0.80828446689E+03  0.67026541951E+02 0.  0.
        -11    1    3    3    0    0 -0.35810285073E+02  0.33817904350E+01 -0.55546341441E+02  0.66175592714E+02  0.00000000000E+00 0.  1.
         12    1    3    3    0    0  0.41455420288E+02  0.31632221815E+02 -0.72095746501E+02  0.88977221758E+02  0.00000000000E+00 0. -1.
         11    1    5    5    0    0  0.12110493611E+02  0.47113481292E+01  0.32488737592E+02  0.34991126404E+02  0.00000000000E+00 0. -1.
        -12    1    5    5    0    0 -0.33699197600E+02  0.29529862215E+02  0.77199413324E+03  0.77329334048E+03  0.00000000000E+00 0.  1.
          5    1    4    4  501    0 -0.48170392536E+02 -0.42955356243E+02  0.64878531361E+02  0.91609200294E+02  0.41800000000E+01 0.  1.
         -5    1    4    4    0  501  0.64113961309E+02 -0.26299866351E+02  0.17272261548E+03  0.18615277946E+03  0.41800000000E+01 0.  1.
</event>
<event>
11    1  0.8299058E-009  0.2882929E+03  0.7561462E-02  0.1005271E+00
         22   -1    0    0    0    0  0.00000000000E+00  0.00000000000E+00  0.13300895198E+04  0.13300895198E+04  0.00000000000E+00 0.  1.
         22   -1    0    0    0    0 -0.00000000000E+00 -0.00000000000E+00 -0.25226695434E+03  0.25226695434E+03  0.00000000000E+00 0.  1.
         24    2    1    2    0    0  0.24864966751E+03 -0.54474777399E+02 -0.12138632637E+03  0.29108383120E+03  0.72117945303E+02 0.  0.
         25    2    1    2    0    0 -0.27994620857E+03  0.12593729522E+03  0.63780171210E+03  0.71879654216E+03  0.12508942017E+03 0.  0.
        -24    2    1    2    0    0  0.31296541063E+02 -0.71462517824E+02  0.56140717974E+03  0.57247610080E+03  0.80402111780E+02 0.  0.
        -11    1    3    3    0    0  0.20579711654E+03 -0.72133000835E+02 -0.96397605533E+02  0.23842844071E+03  0.00000000000E+00 0.  1.
         12    1    3    3    0    0  0.42852550971E+02  0.17658223436E+02 -0.24988720833E+02  0.52655390499E+02  0.00000000000E+00 0. -1.
         11    1    5    5    0    0 -0.25468859006E+02 -0.29515631073E+02  0.26054585222E+03  0.26344634437E+03  0.00000000000E+00 0. -1.
        -12    1    5    5    0    0  0.56765400068E+02 -0.41946886751E+02  0.30086132753E+03  0.30902975642E+03  0.00000000000E+00 0.  1.
          5    1    4    4  501    0 -0.21362493415E+03  0.32923160877E+02  0.39038782359E+03  0.44625068316E+03  0.41800000000E+01 0.  1.
         -5    1    4    4    0  501 -0.66321274418E+02  0.93014134346E+02  0.24741388851E+03  0.27254585900E+03  0.41800000000E+01 0.  1.
</event>
<event>
11    1  0.8299058E-009  0.1911122E+03  0.7561462E-02  0.1060993E+00
         22   -1    0    0    0    0  0.00000000000E+00  0.00000000000E+00  0.90786304857E+03  0.90786304857E+03  0.00000000000E+00 0.  1.
         22   -1    0    0    0    0 -0.00000000000E+00 -0.00000000000E+00 -0.16466368253E+03  0.16466368253E+03  0.00000000000E+00 0. -1.
        -24    2    1    2    0    0  0.11103933888E+03  0.10490426684E+03 -0.25430492587E+02  0.17511672256E+03  0.81758893027E+02 0.  0.
         25    2    1    2    0    0 -0.13195474368E+03 -0.41179643334E+02  0.83500503796E+02  0.20427477145E+03  0.12509208893E+03 0.  0.
         24    2    1    2    0    0  0.20915404800E+02 -0.63724623506E+02  0.68512935483E+03  0.69313523709E+03  0.80845174559E+02 0.  0.
        -11    1    5    5    0    0  0.51644231717E+02 -0.38990222554E+02  0.38062558743E+03  0.38608703932E+03  0.00000000000E+00 0.  1.
         12    1    5    5    0    0 -0.30728826916E+02 -0.24734400952E+02  0.30450376739E+03  0.30704819777E+03  0.00000000000E+00 0. -1.
         13    1    3    3    0    0  0.11170675044E+03  0.11615497242E+03 -0.27972964348E+02  0.16356302286E+03  0.00000000000E+00 0. -1.
        -14    1    3    3    0    0 -0.66741156215E+00 -0.11250705581E+02  0.25424717615E+01  0.11553699707E+02  0.00000000000E+00 0.  1.
          5    1    4    4  501    0 -0.11474945744E+03 -0.70757757434E+02  0.98160534217E+02  0.16681445111E+03  0.41800000000E+01 0.  1.
         -5    1    4    4    0  501 -0.17205286236E+02  0.29578114100E+02 -0.14660030420E+02  0.37460320342E+02  0.41800000000E+01 0.  1.
</event>
<event>
11    1  0.8299058E-009  0.1527698E+03  0.7561462E-02  0.1094082E+00
         22   -1    0    0    0    0  0.00000000000E+00  0.00000000000E+00  0.13830998470E+04  0.13830998470E+04  0.00000000000E+00 0.  1.
         22   -1    0    0    0    0 -0.00000000000E+00 -0.00000000000E+00 -0.40923756215E+03  0.40923756215E+03  0.00000000000E+00 0.  1.
        -24    2    1    2    0    0  0.71275461103E+01  0.41375550371E+01 -0.30835347610E+03  0.31851156724E+03  0.79371474495E+02 0.  0.
         25    2    1    2    0    0 -0.23419413577E+01 -0.91601975555E+02 -0.28557397549E+02  0.15766784407E+03  0.12508883837E+03 0.  0.
         24    2    1    2    0    0 -0.47856047526E+01  0.87464420518E+02  0.13107731585E+04  0.13161579978E+04  0.80452938745E+02 0.  0.
        -13    1    5    5    0    0 -0.27712413184E+02  0.79063640310E+02  0.71617825994E+03  0.72106195093E+03  0.00000000000E+00 0.  1.
         14    1    5    5    0    0  0.22926808431E+02  0.84007802077E+01  0.59459489852E+03  0.59509604687E+03  0.00000000000E+00 0. -1.
         11    1    3    3    0    0  0.14082113123E+02 -0.24094609250E+02 -0.41091457858E+02  0.49672568021E+02  0.00000000000E+00 0. -1.
        -12    1    3    3    0    0 -0.69545670128E+01  0.28232164287E+02 -0.26726201825E+03  0.26883899922E+03  0.00000000000E+00 0.  1.
          5    1    4    4  501    0  0.54774223541E+02 -0.47755015822E+02  0.13709787020E+02  0.74068804235E+02  0.41800000000E+01 0.  1.
         -5    1    4    4    0  501 -0.57116164899E+02 -0.43846959733E+02 -0.42267184569E+02  0.83599039839E+02  0.41800000000E+01 0.  1.
</event>
<event>
11    1  0.8299058E-009  0.2653784E+03  0.7561462E-02  0.1016011E+00
         22   -1    0    0    0    0  0.00000000000E+00  0.00000000000E+00  0.89845312329E+03  0.89845312329E+03  0.00000000000E+00 0.  1.
         22   -1    0    0    0    0 -0.00000000000E+00 -0.00000000000E+00 -0.10686183048E+04  0.10686183048E+04  0.00000000000E+00 0. -1.
        -24    2    1    2    0    0  0.22132830172E+03  0.67509464367E+02 -0.98396332558E+03  0.10140202535E+04  0.80681494244E+02 0.  0.
         25    2    1    2    0    0 -0.31090230449E+03 -0.97207241136E+02  0.46093028620E+03  0.57811216725E+03  0.12508980180E+03 0.  0.
         24    2    1    2    0    0  0.89574002769E+02  0.29697776769E+02  0.35286785789E+03  0.37493900732E+03  0.84605402681E+02 0.  0.
        -13    1    5    5    0    0  0.65328620676E+02  0.58801085571E+02  0.22427238515E+03  0.24088067395E+03  0.00000000000E+00 0.  1.
         14    1    5    5    0    0  0.24245382093E+02 -0.29103308803E+02  0.12859547274E+03  0.13405833337E+03  0.00000000000E+00 0. -1.
         11    1    3    3    0    0  0.16370217522E+03  0.10954920595E+02 -0.63766213103E+03  0.65843101826E+03  0.00000000000E+00 0. -1.
        -12    1    3    3    0    0  0.57626126503E+02  0.56554543772E+02 -0.34630119455E+03  0.35558923525E+03  0.00000000000E+00 0.  1.
          5    1    4    4  501    0 -0.94496470429E+02 -0.86676873014E+02  0.13084035269E+03  0.18324610100E+03  0.41800000000E+01 0. -1.
         -5    1    4    4    0  501 -0.21640583406E+03 -0.10530368122E+02  0.33008993352E+03  0.39486606625E+03  0.41800000000E+01 0. -1.
</event>
<event>
11    1  0.8299058E-009  0.1377516E+03  0.7561462E-02  0.1110095E+00
         22   -1    0    0    0    0  0.00000000000E+00  0.00000000000E+00  0.13304954380E+03  0.13304954380E+03  0.00000000000E+00 0.  1.
         22   -1    0    0    0    0 -0.00000000000E+00 -0.00000000000E+00 -0.47143731835E+03  0.47143731835E+03  0.00000000000E+00 0.  1.
         24    2    1    2    0    0  0.52879070719E+02  0.28568930497E+02 -0.27384811009E+03  0.29038146759E+03  0.75605749852E+02 0.  0.
         25    2    1    2    0    0 -0.52749991679E+02 -0.51658884881E+01 -0.14166925402E+03  0.19628268658E+03  0.12508983768E+03 0.  0.
        -24    2    1    2    0    0 -0.12907904041E+00 -0.23403042009E+02  0.77129589554E+02  0.11782270798E+03  0.85938919557E+02 0.  0.
        -13    1    3    3    0    0  0.65824672991E+02  0.13811557161E+02 -0.25282358266E+03  0.26161691580E+03  0.00000000000E+00 0.  1.
         14    1    3    3    0    0 -0.12945602272E+02  0.14757373335E+02 -0.21024527434E+02  0.28764551792E+02  0.00000000000E+00 0. -1.
         11    1    5    5    0    0  0.57517452831E+01 -0.42274177131E+02  0.49079824712E+01  0.42945045323E+02  0.00000000000E+00 0. -1.
        -12    1    5    5    0    0 -0.58808243235E+01  0.18871135122E+02  0.72221607083E+02  0.74877662658E+02  0.00000000000E+00 0.  1.
          5    1    4    4  501    0 -0.76178613324E+02  0.18781491450E+02 -0.38045204731E+02  0.87297397167E+02  0.41800000000E+01 0.  1.
         -5    1    4    4    0  501  0.23428621645E+02 -0.23947379938E+02 -0.10362404928E+03  0.10898528941E+03  0.41800000000E+01 0.  1.
</event>
<event>
11    1  0.8518529E-009  0.1766721E+03  0.7561462E-02  0.1072367E+00
         22   -1    0    0    0    0  0.00000000000E+00  0.00000000000E+00  0.12370960653E+04  0.12370960653E+04  0.00000000000E+00 0. -1.
         22   -1    0    0    0    0 -0.00000000000E+00 -0.00000000000E+00 -0.96557358468E+03  0.96557358468E+03  0.00000000000E+00 0.  1.
         24    2    1    2    0    0  0.66740718987E+01 -0.12448681830E+03 -0.91018482850E+03  0.92216342838E+03  0.80046582868E+02 0.  0.
         25    2    1    2    0    0 -0.91984616184E+02  0.12243295684E+03  0.16627962212E+03  0.25835775738E+03  0.12509524184E+03 0.  0.
        -24    2    1    2    0    0  0.85310544285E+02  0.20538614544E+01  0.10154276870E+04  0.10221484643E+04  0.80074890436E+02 0.  0.
        -11    1    3    3    0    0 -0.11657024163E+02 -0.85442094813E+02 -0.35571181990E+03  0.36601521361E+03  0.00000000000E+00 0.  1.
         12    1    3    3    0    0  0.18331096061E+02 -0.39044723482E+02 -0.55447300860E+03  0.55614821476E+03  0.00000000000E+00 0. -1.
         13    1    5    5    0    0  0.94628088660E+02  0.18581472756E+02  0.90255295655E+03  0.90769024765E+03  0.00000000000E+00 0. -1.
        -14    1    5    5    0    0 -0.93175443749E+01 -0.16527611302E+02  0.11287473049E+03  0.11445821662E+03  0.00000000000E+00 0.  1.
          5    1    4    4  501    0 -0.65769649387E+02  0.12735860407E+03  0.17829421939E+03  0.22880594808E+03  0.41800000000E+01 0.  1.
         -5    1    4    4    0  501 -0.26214966797E+02 -0.49256472242E+01 -0.12014597276E+02  0.29551809292E+02  0.41800000000E+01 0.  1.
</event>
<event>
11    1  0.8299058E-009  0.1461966E+03  0.7561462E-02  0.1100830E+00
         22   -1    0    0    0    0  0.00000000000E+00  0.00000000000E+00  0.73870260164E+02  0.73870260164E+02  0.00000000000E+00 0. -1.
         22   -1    0    0    0    0 -0.00000000000E+00 -0.00000000000E+00 -0.85905404138E+03  0.85905404138E+03  0.00000000000E+00 0. -1.
        -24    2    1    2    0    0 -0.13050041692E+02  0.30062022504E+02 -0.60167449042E+03  0.60795735342E+03  0.80783181257E+02 0.  0.
         25    2    1    2    0    0  0.37606439959E+01 -0.96596839408E+02 -0.14363520407E+03  0.21359689159E+03  0.12508984140E+03 0.  0.
         24    2    1    2    0    0  0.92893976958E+01  0.66534816904E+02 -0.39874086734E+02  0.11137005654E+03  0.79373622384E+02 0.  0.
        -13    1    5    5    0    0 -0.33637392088E+02  0.27775028767E+02 -0.29368551850E+02  0.52587433929E+02  0.00000000000E+00 0.  1.
         14    1    5    5    0    0  0.42926789784E+02  0.38759788137E+02 -0.10505534884E+02  0.58782622609E+02  0.00000000000E+00 0. -1.
         13    1    3    3    0    0  0.35279045447E+00  0.57014956162E+02 -0.40439565198E+03  0.40839524119E+03  0.00000000000E+00 0. -1.
        -14    1    3    3    0    0 -0.13402832146E+02 -0.26952933657E+02 -0.19727883844E+03  0.19956211223E+03  0.00000000000E+00 0.  1.
          5    1    4    4  501    0 -0.31751019266E+01 -0.27615732121E+02 -0.14133573276E+03  0.14410403079E+03  0.41800000000E+01 0. -1.
         -5    1    4    4    0  501  0.69357459225E+01 -0.68981107287E+02 -0.22994713016E+01  0.69492860801E+02  0.41800000000E+01 0. -1.
</event>
<event>
11    1  0.8299058E-009  0.1320093E+03  0.7561462E-02  0.1116825E+00
         22   -1    0    0    0    0  0.00000000000E+00  0.00000000000E+00  0.31323191494E+04  0.31323191494E+04  0.00000000000E+00 0. -1.
         22   -1    0    0    0    0 -0.00000000000E+00 -0.00000000000E+00 -0.27844453380E+03  0.27844453380E+03  0.00000000000E+00 0.  1.
        -24    2    1    2    0    0  0.11846502030E+02 -0.12570136647E+00 -0.26721010599E+03  0.28062205314E+03  0.84894879432E+02 0.  0.
         25    2    1    2    0    0 -0.39365427014E+02  0.29216532720E+02  0.13284217969E+04  0.13351987628E+04  0.12509205830E+03 0.  0.
         24    2    1    2    0    0  0.27518924984E+02 -0.29090831353E+02  0.17926629247E+04  0.17949428673E+04  0.81092339427E+02 0.  0.
        -11    1    5    5    0    0  0.21200388642E+02 -0.17520072460E+02  0.16875736626E+03  0.17098379480E+03  0.00000000000E+00 0.  1.
         12    1    5    5    0    0  0.63185363424E+01 -0.11570758893E+02  0.16239055585E+04  0.16239590725E+04  0.00000000000E+00 0. -1.
         13    1    3    3    0    0 -0.14118102561E+02 -0.34998749585E+02 -0.80361511253E+02  0.88781787452E+02  0.00000000000E+00 0. -1.
        -14    1    3    3    0    0  0.25964604591E+02  0.34873048218E+02 -0.18684859474E+03  0.19184026569E+03  0.00000000000E+00 0.  1.
          5    1    4    4  501    0  0.40243002476E+02  0.27397814398E+02  0.33001557694E+03  0.33361338837E+03  0.41800000000E+01 0. -1.
         -5    1    4    4    0  501 -0.79608429490E+02  0.18187183220E+01  0.99840621993E+03  0.10015853744E+04  0.41800000000E+01 0. -1.
</event>
<event>
11    1  0.8299058E-009  0.1780445E+03  0.7561462E-02  0.1071236E+00
         22   -1    0    0    0    0  0.00000000000E+00  0.00000000000E+00  0.25040923156E+03  0.25040923156E+03  0.00000000000E+00 0.  1.
         22   -1    0    0    0    0 -0.00000000000E+00 -0.00000000000E+00 -0.26455791795E+03  0.26455791795E+03  0.00000000000E+00 0.  1.
         24    2    1    2    0    0 -0.12098388736E+03  0.10733436342E+02 -0.10821989220E+03  0.19163411697E+03  0.10129058231E+03 0.  0.
         25    2    1    2    0    0  0.13817423149E+03 -0.39890285951E+01 -0.53924111494E+01  0.18650678715E+03  0.12509065895E+03 0.  0.
        -24    2    1    2    0    0 -0.17190344138E+02 -0.67444077473E+01  0.99463616959E+02  0.13682624539E+03  0.92127169515E+02 0.  0.
        -13    1    3    3    0    0 -0.79351839640E+02  0.16820416606E+02 -0.12274248729E+03  0.14712361828E+03  0.00000000000E+00 0.  1.
         14    1    3    3    0    0 -0.41632047716E+02 -0.60869802639E+01  0.14522595091E+02  0.44510498693E+02  0.00000000000E+00 0. -1.
         11    1    5    5    0    0  0.30569537902E+02  0.11255272283E+02  0.10436944391E+02  0.34206835719E+02  0.00000000000E+00 0. -1.
        -12    1    5    5    0    0 -0.47759882040E+02 -0.17999680030E+02  0.89026672568E+02  0.10261940968E+03  0.00000000000E+00 0.  1.
          5    1    4    4  501    0 -0.20574904780E+02  0.40014229725E+01 -0.16665561509E+02  0.27102609338E+02  0.41800000000E+01 0.  1.
         -5    1    4    4    0  501  0.15874913627E+03 -0.79904515676E+01  0.11273150360E+02  0.15940417781E+03  0.41800000000E+01 0.  1.
</event>
<event>
11    1  0.8299058E-009  0.1314403E+03  0.7561462E-02  0.1117512E+00
         22   -1    0    0    0    0  0.00000000000E+00  0.00000000000E+00  0.14441024952E+03  0.14441024952E+03  0.00000000000E+00 0. -1.
         22   -1    0    0    0    0 -0.00000000000E+00 -0.00000000000E+00 -0.85548998472E+03  0.85548998472E+03  0.00000000000E+00 0.  1.
         24    2    1    2    0    0  0.29173416860E+02  0.18449906214E+02 -0.53823751631E+03  0.54520780250E+03  0.79752345714E+02 0.  0.
         25    2    1    2    0    0 -0.10901512159E+02  0.19210615356E+02 -0.28437882377E+03  0.31145562750E+03  0.12508158051E+03 0.  0.
        -24    2    1    2    0    0 -0.18271904701E+02 -0.37660521570E+02  0.11153660488E+03  0.14323680425E+03  0.79524779012E+02 0.  0.
        -11    1    3    3    0    0 -0.18038683741E+02  0.32430263476E+02 -0.20137189751E+03  0.20476268509E+03  0.00000000000E+00 0.  1.
         12    1    3    3    0    0  0.47212100601E+02 -0.13980357262E+02 -0.33686561880E+03  0.34044511741E+03  0.00000000000E+00 0. -1.
         11    1    5    5    0    0 -0.36580610432E+02 -0.92805319233E+01  0.10105871415E+03  0.10787554420E+03  0.00000000000E+00 0. -1.
        -12    1    5    5    0    0  0.18308705731E+02 -0.28379989647E+02  0.10477890738E+02  0.35361260049E+02  0.00000000000E+00 0.  1.
          5    1    4    4  501    0 -0.40470009241E+02 -0.30847081154E+02 -0.56112127048E+02  0.75864400515E+02  0.41800000000E+01 0.  1.
         -5    1    4    4    0  501  0.29568497081E+02  0.50057696510E+02 -0.22826669672E+03  0.23559122698E+03  0.41800000000E+01 0.  1.
</event>
<event>
11    1  0.8299058E-009  0.1284618E+03  0.7561462E-02  0.1121173E+00
         22   -1    0    0    0    0  0.00000000000E+00  0.00000000000E+00  0.12142928406E+04  0.12142928406E+04  0.00000000000E+00 0.  1.
         22   -1    0    0    0    0 -0.00000000000E+00 -0.00000000000E+00 -0.79863627644E+02  0.79863627644E+02  0.00000000000E+00 0. -1.
        -24    2    1    2    0    0  0.22600680965E+02  0.18934651795E+02  0.10591274638E+02  0.98397179753E+02  0.93276567616E+02 0.  0.
         25    2    1    2    0    0  0.11665243026E+02 -0.44368387582E+02  0.96782873453E+02  0.16467961664E+03  0.12509124603E+03 0.  0.
         24    2    1    2    0    0 -0.34265923992E+02  0.25433735787E+02  0.10270550648E+04  0.10310796718E+04  0.80387529936E+02 0.  0.
        -13    1    5    5    0    0 -0.52115199035E+02  0.29827264471E+02  0.94865332652E+03  0.95055183635E+03  0.00000000000E+00 0.  1.
         14    1    5    5    0    0  0.17849275044E+02 -0.43935286838E+01  0.78401738328E+02  0.80527835478E+02  0.00000000000E+00 0. -1.
         13    1    3    3    0    0  0.12190062357E+02  0.55743398568E+02  0.17158899436E+02  0.59584829730E+02  0.00000000000E+00 0. -1.
        -14    1    3    3    0    0  0.10410618608E+02 -0.36808746772E+02 -0.65676247986E+01  0.38812350022E+02  0.00000000000E+00 0.  1.
          5    1    4    4  501    0  0.48949601087E+02 -0.66198456062E+02  0.87643647685E+02  0.12032115529E+03  0.41800000000E+01 0.  1.
         -5    1    4    4    0  501 -0.37284358061E+02  0.21830068479E+02  0.91392257687E+01  0.44358461351E+02  0.41800000000E+01 0.  1.
</event>
<event>
11    1  0.8299058E-009  0.2785368E+03  0.7561462E-02  0.1009708E+00
         22   -1    0    0    0    0  0.00000000000E+00  0.00000000000E+00  0.49978493797E+03  0.49978493797E+03  0.00000000000E+00 0. -1.
         22   -1    0    0    0    0 -0.00000000000E+00 -0.00000000000E+00 -0.16252227334E+04  0.16252227334E+04  0.00000000000E+00 0. -1.
         24    2    1    2    0    0  0.89399605625E+02  0.12232566259E+00 -0.12298524726E+04  0.12357169207E+04  0.80417032315E+02 0.  0.
         25    2    1    2    0    0 -0.21215497394E+03  0.21109453424E+03 -0.27903289204E+03  0.42787522915E+03  0.12508885452E+03 0.  0.
        -24    2    1    2    0    0  0.12275536832E+03 -0.21121685990E+03  0.38344756923E+03  0.46141552158E+03  0.78681655093E+02 0.  0.
        -11    1    3    3    0    0 -0.23457286209E+01  0.21448215500E+02 -0.39057285405E+03  0.39116835597E+03  0.00000000000E+00 0.  1.
         12    1    3    3    0    0  0.91745334246E+02 -0.21325889838E+02 -0.83927961859E+03  0.84454856468E+03  0.00000000000E+00 0. -1.
         13    1    5    5    0    0  0.12377000521E+03 -0.17322071999E+03  0.35498239753E+03  0.41392865880E+03  0.00000000000E+00 0. -1.
        -14    1    5    5    0    0 -0.10146368929E+01 -0.37996139912E+02  0.28465171699E+02  0.47486862774E+02  0.00000000000E+00 0.  1.
          5    1    4    4  501    0 -0.52339949211E+02  0.47491804412E+02 -0.50809112911E+01  0.70980489074E+02  0.41800000000E+01 0. -1.
         -5    1    4    4    0  501 -0.15981502473E+03  0.16360272983E+03 -0.27395198075E+03  0.35689474008E+03  0.41800000000E+01 0. -1.
</event>
<event>
11    1  0.8299058E-009  0.1319512E+03  0.7561462E-02  0.1116895E+00
         22   -1    0    0    0    0  0.00000000000E+00  0.00000000000E+00  0.26810324469E+03  0.26810324469E+03  0.00000000000E+00 0.  1.
         22   -1    0    0    0    0 -0.00000000000E+00 -0.00000000000E+00 -0.14975600181E+03  0.14975600181E+03  0.00000000000E+00 0. -1.
        -24    2    1    2    0    0 -0.38674068716E+02  0.20084667237E+02 -0.84889217567E+02  0.12531813886E+03  0.81236563322E+02 0.  0.
         25    2    1    2    0    0  0.27169593354E+02 -0.14070757743E+02  0.11810785725E+03  0.17473534460E+03  0.12508717633E+03 0.  0.
         24    2    1    2    0    0  0.11504475363E+02 -0.60139094938E+01  0.85128603195E+02  0.11780576303E+03  0.80391533514E+02 0.  0.
        -13    1    5    5    0    0  0.45697448726E+01  0.24643505012E+02 -0.20368626624E+01  0.25146246579E+02  0.00000000000E+00 0.  1.
         14    1    5    5    0    0  0.69347304899E+01 -0.30657414506E+02  0.87165465857E+02  0.92659516453E+02  0.00000000000E+00 0. -1.
         11    1    3    3    0    0  0.15862309757E+02 -0.58102988715E+01 -0.55804874855E+02  0.58305715855E+02  0.00000000000E+00 0. -1.
        -12    1    3    3    0    0 -0.54536378473E+02  0.25894966108E+02 -0.29084342712E+02  0.67012423010E+02  0.00000000000E+00 0.  1.
          5    1    4    4  501    0 -0.48059080436E+02  0.10082937177E+02  0.51850602799E+02  0.71535293703E+02  0.41800000000E+01 0.  1.
         -5    1    4    4    0  501  0.75228673789E+02 -0.24153694920E+02  0.66257254450E+02  0.10320005090E+03  0.41800000000E+01 0.  1.
</event>
<event>
11    1  0.8299058E-009  0.1754070E+03  0.7561462E-02  0.1073420E+00
         22   -1    0    0    0    0  0.00000000000E+00  0.00000000000E+00  0.25076749101E+03  0.25076749101E+03  0.00000000000E+00 0.  1.
         22   -1    0    0    0    0 -0.00000000000E+00 -0.00000000000E+00 -0.24626850416E+03  0.24626850416E+03  0.00000000000E+00 0.  1.
         24    2    1    2    0    0  0.22922437685E+02  0.39778821634E+02 -0.48346804842E+02  0.10555388047E+03  0.81831628018E+02 0.  0.
         25    2    1    2    0    0  0.84691609111E+02  0.34998267411E+02 -0.91962607858E+02  0.18028426342E+03  0.12509095498E+03 0.  0.
        -24    2    1    2    0    0 -0.10761404680E+03 -0.74777089045E+02  0.14480839955E+03  0.21119785128E+03  0.80390694061E+02 0.  0.
        -13    1    3    3    0    0  0.14534198179E+02  0.63661458650E+02 -0.46519012330E+02  0.80175075568E+02  0.00000000000E+00 0.  1.
         14    1    3    3    0    0  0.83882395061E+01 -0.23882637016E+02 -0.18277925121E+01  0.25378804903E+02  0.00000000000E+00 0. -1.
         13    1    5    5    0    0 -0.47561354374E+01 -0.10481098478E+02 -0.94975617024E+01  0.14922396855E+02  0.00000000000E+00 0. -1.
        -14    1    5    5    0    0 -0.10285791136E+03 -0.64295990567E+02  0.15430596125E+03  0.19627545443E+03  0.00000000000E+00 0.  1.
          5    1    4    4  501    0 -0.14845962420E+02 -0.11712704682E+02  0.16750176376E+02  0.25605289683E+02  0.41800000000E+01 0.  1.
         -5    1    4    4    0  501  0.99537571530E+02  0.46710972093E+02 -0.10871278423E+03  0.15467897374E+03  0.41800000000E+01 0.  1.
</event>
<event>
11    1  0.8299058E-009  0.1458516E+03  0.7561462E-02  0.1101195E+00
         22   -1    0    0    0    0  0.00000000000E+00  0.00000000000E+00  0.11802955247E+03  0.11802955247E+03  0.00000000000E+00 0. -1.
         22   -1    0    0    0    0 -0.00000000000E+00 -0.00000000000E+00 -0.12782790822E+04  0.12782790822E+04  0.00000000000E+00 0.  1.
        -24    2    1    2    0    0 -0.25842084560E+02  0.69007602484E+02 -0.10772020715E+04  0.10827450224E+04  0.80886452667E+02 0.  0.
         25    2    1    2    0    0 -0.30920709590E+02 -0.42323157296E+00 -0.13163166101E+03  0.18420142850E+03  0.12508797973E+03 0.  0.
         24    2    1    2    0    0  0.56762794150E+02 -0.68584370911E+02  0.48584202790E+02  0.12936218373E+03  0.80301426423E+02 0.  0.
        -11    1    5    5    0    0 -0.12353877177E+02  0.55997724540E+01 -0.52741748852E+01  0.14553097731E+02  0.00000000000E+00 0.  1.
         12    1    5    5    0    0  0.69116671327E+02 -0.74184143365E+02  0.53858377675E+02  0.11480908600E+03  0.00000000000E+00 0. -1.
         11    1    3    3    0    0 -0.49461716031E+01  0.10315665658E+02 -0.15751038699E+02  0.19467223521E+02  0.00000000000E+00 0. -1.
        -12    1    3    3    0    0 -0.20895912957E+02  0.58691936826E+02 -0.10614510328E+04  0.10632777989E+04  0.00000000000E+00 0.  1.
          5    1    4    4  501    0  0.48385267141E+02  0.58957980078E+01 -0.44415496776E+02  0.66076495551E+02  0.41800000000E+01 0. -1.
         -5    1    4    4    0  501 -0.79305976731E+02 -0.63190295808E+01 -0.87216164232E+02  0.11812493295E+03  0.41800000000E+01 0. -1.
</event>
<event>
11    1  0.8299058E-009  0.1398416E+03  0.7561462E-02  0.1107735E+00
         22   -1    0    0    0    0  0.00000000000E+00  0.00000000000E+00  0.74802238389E+03  0.74802238389E+03  0.00000000000E+00 0. -1.
         22   -1    0    0    0    0 -0.00000000000E+00 -0.00000000000E+00 -0.35523644989E+03  0.35523644989E+03  0.00000000000E+00 0. -1.
         24    2    1    2    0    0  0.59718901825E+02  0.20980255350E+02 -0.30299206591E+03  0.31966649204E+03  0.79849582213E+02 0.  0.
         25    2    1    2    0    0 -0.53824307733E+02 -0.28915533333E+01  0.73200269972E+02  0.15463161925E+03  0.12508893222E+03 0.  0.
        -24    2    1    2    0    0 -0.58945940922E+01 -0.18088702017E+02  0.62257772994E+03  0.62896072248E+03  0.87330482815E+02 0.  0.
        -11    1    3    3    0    0 -0.11486560484E+02  0.42548618061E+01 -0.57031747834E+01  0.13511888223E+02  0.00000000000E+00 0.  1.
         12    1    3    3    0    0  0.71205462309E+02  0.16725393544E+02 -0.29728889113E+03  0.30615460382E+03  0.00000000000E+00 0. -1.
         13    1    5    5    0    0  0.40767184707E+02 -0.92124153401E+01  0.27775172185E+03  0.28087871214E+03  0.00000000000E+00 0. -1.
        -14    1    5    5    0    0 -0.46661778799E+02 -0.88762866765E+01  0.34482600809E+03  0.34808201034E+03  0.00000000000E+00 0.  1.
          5    1    4    4  501    0 -0.41897750092E+02  0.15801412327E+02 -0.26641492867E+02  0.52271862760E+02  0.41800000000E+01 0.  1.
         -5    1    4    4    0  501 -0.11926557641E+02 -0.18692965660E+02  0.99841762839E+02  0.10235975649E+03  0.41800000000E+01 0.  1.
</event>
<event>
11    1  0.8299058E-009  0.1925261E+03  0.7561462E-02  0.1059938E+00
         22   -1    0    0    0    0  0.00000000000E+00  0.00000000000E+00  0.67656977380E+03  0.67656977380E+03  0.00000000000E+00 0. -1.
         22   -1    0    0    0    0 -0.00000000000E+00 -0.00000000000E+00 -0.17843772356E+03  0.17843772356E+03  0.00000000000E+00 0. -1.
        -24    2    1    2    0    0 -0.51874955399E+02  0.28823822788E+02 -0.93814842185E+02  0.13761404998E+03  0.81330058274E+02 0.  0.
         25    2    1    2    0    0  0.31809347117E+02 -0.16779349737E+03  0.19124403454E+03  0.28528333303E+03  0.12508320045E+03 0.  0.
         24    2    1    2    0    0  0.20065608282E+02  0.13896967458E+03  0.40070285789E+03  0.43211011435E+03  0.80256909482E+02 0.  0.
        -13    1    5    5    0    0 -0.61396792383E+01  0.32583175075E+02  0.27254107981E+02  0.42920220887E+02  0.00000000000E+00 0.  1.
         14    1    5    5    0    0  0.26205287521E+02  0.10638649950E+03  0.37344874990E+03  0.38918989347E+03  0.00000000000E+00 0. -1.
         13    1    3    3    0    0 -0.62246436301E+02  0.35176452804E+01 -0.90737842712E+02  0.11009245551E+03  0.00000000000E+00 0. -1.
        -14    1    3    3    0    0  0.10371480902E+02  0.25306177508E+02 -0.30769994728E+01  0.27521594465E+02  0.00000000000E+00 0.  1.
          5    1    4    4  501    0 -0.20195478754E+02 -0.14310812485E+03  0.94820282837E+02  0.17290503520E+03  0.41800000000E+01 0. -1.
         -5    1    4    4    0  501  0.52004825871E+02 -0.24685372517E+02  0.96423751702E+02  0.11237829783E+03  0.41800000000E+01 0. -1.
</event>
<event>
11    1  0.8299058E-009  0.1437974E+03  0.7561462E-02  0.1103391E+00
         22   -1    0    0    0    0  0.00000000000E+00  0.00000000000E+00  0.15766368779E+04  0.15766368779E+04  0.00000000000E+00 0.  1.
         22   -1    0    0    0    0 -0.00000000000E+00 -0.00000000000E+00 -0.31831523121E+03  0.31831523121E+03  0.00000000000E+00 0. -1.
         24    2    1    2    0    0 -0.46842509794E+02  0.10530310348E+02 -0.29819967211E+03  0.31235871734E+03  0.79622959571E+02 0.  0.
         25    2    1    2    0    0 -0.14982973108E+02 -0.56817719304E+02  0.45731095905E+03  0.47773818857E+03  0.12509085036E+03 0.  0.
        -24    2    1    2    0    0  0.61825482902E+02  0.46287408956E+02  0.10992103598E+04  0.11048552032E+04  0.80477888153E+02 0.  0.
        -11    1    3    3    0    0  0.62833117596E+01 -0.28526494147E+01  0.20129456694E+01  0.71881545351E+01  0.00000000000E+00 0.  1.
         12    1    3    3    0    0 -0.53125821553E+02  0.13382959763E+02 -0.30021261778E+03  0.30517056280E+03  0.00000000000E+00 0. -1.
         11    1    5    5    0    0  0.27938705312E+02  0.36956324669E+02  0.21446171182E+03  0.21940867582E+03  0.00000000000E+00 0. -1.
        -12    1    5    5    0    0  0.33886777590E+02  0.93310842866E+01  0.88474864797E+03  0.88544652741E+03  0.00000000000E+00 0.  1.
          5    1    4    4  501    0 -0.12081521558E+02 -0.96152034024E+02  0.35485562279E+03  0.36787384011E+03  0.41800000000E+01 0.  1.
         -5    1    4    4    0  501 -0.29014515500E+01  0.39334314720E+02  0.10245533626E+03  0.10986434846E+03  0.41800000000E+01 0.  1.
</event>
<event>
11    1  0.8299058E-009  0.1414833E+03  0.7561462E-02  0.1105913E+00
         22   -1    0    0    0    0  0.00000000000E+00  0.00000000000E+00  0.78613243578E+03  0.78613243578E+03  0.00000000000E+00 0. -1.
         22   -1    0    0    0    0 -0.00000000000E+00 -0.00000000000E+00 -0.84981286422E+02  0.84981286422E+02  0.00000000000E+00 0.  1.
         24    2    1    2    0    0 -0.15833986498E+01  0.16097353111E+02  0.10298744988E+02  0.82305142655E+02  0.80040242570E+02 0.  0.
         25    2    1    2    0    0 -0.18566943394E+02 -0.77630423789E+02  0.79225507312E+02  0.16821213176E+03  0.12508967254E+03 0.  0.
        -24    2    1    2    0    0  0.20150342044E+02  0.61533070678E+02  0.61162689706E+03  0.62059644779E+03  0.82825930317E+02 0.  0.
        -13    1    3    3    0    0 -0.60427641838E+01 -0.57746254228E+01 -0.32757264358E+02  0.33806799108E+02  0.00000000000E+00 0.  1.
         14    1    3    3    0    0  0.44593655340E+01  0.21871978534E+02  0.43056009346E+02  0.48498343547E+02  0.00000000000E+00 0. -1.
         11    1    5    5    0    0  0.20987002840E+02  0.75582920942E+02  0.35406723581E+03  0.36265250544E+03  0.00000000000E+00 0. -1.
        -12    1    5    5    0    0 -0.83666079590E+00 -0.14049850264E+02  0.25755966125E+03  0.25794394236E+03  0.00000000000E+00 0.  1.
          5    1    4    4  501    0 -0.55140552585E+02 -0.77370543991E+02  0.88865244224E+02  0.13015830995E+03  0.41800000000E+01 0.  1.
         -5    1    4    4    0  501  0.36573609191E+02 -0.25987979792E+00 -0.96397369127E+01  0.38053821812E+02  0.41800000000E+01 0.  1.
</event>
<event>
11    1  0.8299058E-009  0.1364477E+03  0.7561462E-02  0.1111591E+00
         22   -1    0    0    0    0  0.00000000000E+00  0.00000000000E+00  0.10565766651E+04  0.10565766651E+04  0.00000000000E+00 0.  1.
         22   -1    0    0    0    0 -0.00000000000E+00 -0.00000000000E+00 -0.28754869739E+03  0.28754869739E+03  0.00000000000E+00 0.  1.
        -24    2    1    2    0    0  0.52979535326E+02 -0.16850330085E+02 -0.26225936625E+03  0.27954511882E+03  0.79213215342E+02 0.  0.
         25    2    1    2    0    0 -0.22032985263E+02 -0.94527649706E+01  0.27694971269E+03  0.30483107894E+03  0.12508411619E+03 0.  0.
         24    2    1    2    0    0 -0.30946550063E+02  0.26303095056E+02  0.75433762127E+03  0.75974916474E+03  0.80895022611E+02 0.  0.
        -11    1    5    5    0    0 -0.17930640223E+02  0.12433728745E+01  0.67986588332E+03  0.68010342826E+03  0.00000000000E+00 0.  1.
         12    1    5    5    0    0 -0.13015909840E+02  0.25059722181E+02  0.74471737950E+02  0.79645736471E+02  0.00000000000E+00 0. -1.
         13    1    3    3    0    0  0.14748097612E+02  0.26699448681E+02 -0.42755240382E+02  0.52520258217E+02  0.00000000000E+00 0. -1.
        -14    1    3    3    0    0  0.38231437714E+02 -0.43549778766E+02 -0.21950412587E+03  0.22702486061E+03  0.00000000000E+00 0.  1.
          5    1    4    4  501    0  0.24217798046E+01 -0.20697062852E+02 -0.47827996555E+01  0.21784880093E+02  0.41800000000E+01 0.  1.
         -5    1    4    4    0  501 -0.24454765068E+02  0.11244297881E+02  0.28173251234E+03  0.28304619884E+03  0.41800000000E+01 0.  1.
</event>
<event>
11    1  0.8299058E-009  0.1669862E+03  0.7561462E-02  0.1080685E+00
         22   -1    0    0    0    0  0.00000000000E+00  0.00000000000E+00  0.25210766866E+03  0.25210766866E+03  0.00000000000E+00 0.  1.
         22   -1    0    0    0    0 -0.00000000000E+00 -0.00000000000E+00 -0.56448392681E+03  0.56448392681E+03  0.00000000000E+00 0.  1.
        -24    2    1    2    0    0 -0.44105303594E+02 -0.14849069966E+01 -0.42528230550E+03  0.43605153453E+03  0.85606183423E+02 0.  0.
         25    2    1    2    0    0  0.14440817243E+03  0.20576993049E+02 -0.22000000809E+02  0.19341346113E+03  0.12509050324E+03 0.  0.
         24    2    1    2    0    0 -0.10030286884E+03 -0.19092086053E+02  0.13490604816E+03  0.18712659982E+03  0.79947165576E+02 0.  0.
        -13    1    5    5    0    0 -0.67942328229E+02  0.10114553422E+02  0.12468216598E+03  0.14235205186E+03  0.00000000000E+00 0.  1.
         14    1    5    5    0    0 -0.32360540607E+02 -0.29206639475E+02  0.10223882176E+02  0.44774547955E+02  0.00000000000E+00 0. -1.
         11    1    3    3    0    0 -0.54680665678E+02 -0.31983025284E+02 -0.25618602654E+03  0.26390181754E+03  0.00000000000E+00 0. -1.
        -12    1    3    3    0    0  0.10575362083E+02  0.30498118288E+02 -0.16909627896E+03  0.17214971699E+03  0.00000000000E+00 0.  1.
          5    1    4    4  501    0  0.28468427694E+02 -0.32798893829E+02  0.32661646594E+02  0.54502058401E+02  0.41800000000E+01 0.  1.
         -5    1    4    4    0  501  0.11593974474E+03  0.53375886879E+02 -0.54661647403E+02  0.13891140272E+03  0.41800000000E+01 0.  1.
</event>
<event>
11    1  0.8299058E-009  0.1643585E+03  0.7561462E-02  0.1083048E+00
         22   -1    0    0    0    0  0.00000000000E+00  0.00000000000E+00  0.28924210481E+03  0.28924210481E+03  0.00000000000E+00 0.  1.
         22   -1    0    0    0    0 -0.00000000000E+00 -0.00000000000E+00 -0.81518849694E+03  0.81518849694E+03  0.00000000000E+00 0.  1.
         24    2    1    2    0    0  0.84513423623E+02  0.30321838994E+02 -0.71832398774E+03  0.72844074499E+03  0.81084122408E+02 0.  0.
         25    2    1    2    0    0  0.19957096978E+02 -0.93771345092E+02  0.36503361238E+02  0.16177683501E+03  0.12509155880E+03 0.  0.
        -24    2    1    2    0    0 -0.10447052060E+03  0.63449506098E+02  0.15587423436E+03  0.21421302175E+03  0.81550672906E+02 0.  0.
        -11    1    3    3    0    0  0.48178630911E+02  0.55037800503E+02 -0.35414182318E+03  0.36161688413E+03  0.00000000000E+00 0.  1.
         12    1    3    3    0    0  0.36334792712E+02 -0.24715961509E+02 -0.36418216456E+03  0.36682386086E+03  0.00000000000E+00 0. -1.
         13    1    5    5    0    0 -0.59669287354E+02  0.92629900925E+01  0.24415214788E+02  0.65133167833E+02  0.00000000000E+00 0. -1.
        -14    1    5    5    0    0 -0.44801233248E+02  0.54186516006E+02  0.13145901957E+03  0.14907985392E+03  0.00000000000E+00 0.  1.
          5    1    4    4  501    0 -0.38102700479E+02 -0.15294098244E+02 -0.23127960037E+02  0.47308563288E+02  0.41800000000E+01 0. -1.
         -5    1    4    4    0  501  0.58059797457E+02 -0.78477246848E+02  0.59631321275E+02  0.11446827172E+03  0.41800000000E+01 0. -1.
</event>
<event>
11    1  0.8299058E-009  0.2346617E+03  0.7561462E-02  0.1032403E+00
         22   -1    0    0    0    0  0.00000000000E+00  0.00000000000E+00  0.12935259269E+04  0.12935259269E+04  0.00000000000E+00 0.  1.
         22   -1    0    0    0    0 -0.00000000000E+00 -0.00000000000E+00 -0.23648648727E+03  0.23648648727E+03  0.00000000000E+00 0. -1.
        -24    2    1    2    0    0 -0.13099093860E+03  0.14358897386E+03 -0.91651805918E+02  0.22887195780E+03  0.78777535682E+02 0.  0.
         25    2    1    2    0    0  0.81931351736E+02 -0.20739102790E+03  0.15044938881E+03  0.29665938382E+03  0.12509191247E+03 0.  0.
         24    2    1    2    0    0  0.49059586868E+02  0.63802054045E+02  0.99824185673E+03  0.10044810725E+04  0.77574966244E+02 0.  0.
        -13    1    5    5    0    0  0.17630308182E+02  0.72699992232E+02  0.55209086624E+03  0.55713592706E+03  0.00000000000E+00 0.  1.
         14    1    5    5    0    0  0.31429278686E+02 -0.88979381873E+01  0.44615099049E+03  0.44734514547E+03  0.00000000000E+00 0. -1.
         13    1    3    3    0    0 -0.12101655352E+03  0.10637082037E+03 -0.42904121654E+02  0.16673488329E+03  0.00000000000E+00 0. -1.
        -14    1    3    3    0    0 -0.99743850843E+01  0.37218153486E+02 -0.48747684263E+02  0.62137074503E+02  0.00000000000E+00 0.  1.
          5    1    4    4  501    0  0.31582224978E+02 -0.20048021385E+03  0.10595742373E+03  0.22898515481E+03  0.41800000000E+01 0.  1.
         -5    1    4    4    0  501  0.50349126759E+02 -0.69108140557E+01  0.44491965079E+02  0.67674229016E+02  0.41800000000E+01 0.  1.
</event>
<event>
11    1  0.8299058E-009  0.1299565E+03  0.7561462E-02  0.1119322E+00
         22   -1    0    0    0    0  0.00000000000E+00  0.00000000000E+00  0.89263840805E+03  0.89263840805E+03  0.00000000000E+00 0.  1.
         22   -1    0    0    0    0 -0.00000000000E+00 -0.00000000000E+00 -0.47235729362E+03  0.47235729362E+03  0.00000000000E+00 0. -1.
        -24    2    1    2    0    0 -0.29234976236E+02 -0.18214726509E+02 -0.43679644872E+03  0.44862369554E+03  0.96361934871E+02 0.  0.
         25    2    1    2    0    0  0.52852797835E+02  0.25599358629E+02  0.14840405231E+03  0.20278146453E+03  0.12509122356E+03 0.  0.
         24    2    1    2    0    0 -0.23617821599E+02 -0.73846321202E+01  0.70867351084E+03  0.71359054160E+03  0.79881047864E+02 0.  0.
        -11    1    5    5    0    0 -0.49905238697E+02  0.99512090824E+01  0.49507044411E+03  0.49767891662E+03  0.00000000000E+00 0.  1.
         12    1    5    5    0    0  0.26287417097E+02 -0.17335841203E+02  0.21360306673E+03  0.21591162498E+03  0.00000000000E+00 0. -1.
         11    1    3    3    0    0 -0.40284067382E+02  0.12611003140E+02 -0.38524770610E+03  0.38755340089E+03  0.00000000000E+00 0. -1.
        -12    1    3    3    0    0  0.11049091146E+02 -0.30825729650E+02 -0.51548742619E+02  0.61070294655E+02  0.00000000000E+00 0.  1.
          5    1    4    4  501    0  0.77235425374E+02 -0.59544760086E+01  0.40172311863E+02  0.87361626345E+02  0.41800000000E+01 0. -1.
         -5    1    4    4    0  501 -0.24382627539E+02  0.31553834638E+02  0.10823174045E+03  0.11541983818E+03  0.41800000000E+01 0. -1.
</event>
<event>
11    1  0.8299058E-009  0.1698281E+03  0.7561462E-02  0.1078181E+00
         22   -1    0    0    0    0  0.00000000000E+00  0.00000000000E+00  0.23845867127E+03  0.23845867127E+03  0.00000000000E+00 0. -1.
         22   -1    0    0    0    0 -0.00000000000E+00 -0.00000000000E+00 -0.15332680497E+04  0.15332680497E+04  0.00000000000E+00 0.  1.
         24    2    1    2    0    0 -0.11983334140E+03  0.19398549084E+02 -0.12951913858E+04  0.13032980363E+04  0.79553202507E+02 0.  0.
         25    2    1    2    0    0  0.49603923999E+02 -0.88088154128E+02 -0.18403433806E+03  0.24440895488E+03  0.12508807884E+03 0.  0.
        -24    2    1    2    0    0  0.70229417402E+02  0.68689605044E+02  0.18441634545E+03  0.22401972982E+03  0.80777583335E+02 0.  0.
        -11    1    3    3    0    0 -0.11707658179E+03  0.38241936623E+02 -0.10120313778E+04  0.10194983479E+04  0.00000000000E+00 0.  1.
         12    1    3    3    0    0 -0.27567596105E+01 -0.18843387539E+02 -0.28316000803E+03  0.28379968838E+03  0.00000000000E+00 0. -1.
         11    1    5    5    0    0  0.80100932723E+02  0.46383185010E+02  0.17481010220E+03  0.19780326364E+03  0.00000000000E+00 0. -1.
        -12    1    5    5    0    0 -0.98715153209E+01  0.22306420034E+02  0.96062432426E+01  0.26216466175E+02  0.00000000000E+00 0.  1.
          5    1    4    4  501    0 -0.10987088092E+02 -0.97366210751E+02 -0.97592622998E+02  0.13835710160E+03  0.41800000000E+01 0.  1.
         -5    1    4    4    0  501  0.60591012091E+02  0.92780566232E+01 -0.86441715060E+02  0.10605185328E+03  0.41800000000E+01 0.  1.
</event>
<event>
11    1  0.8299058E-009  0.1410906E+03  0.7561462E-02  0.1106347E+00
         22   -1    0    0    0    0  0.00000000000E+00  0.00000000000E+00  0.30596492206E+03  0.30596492206E+03  0.00000000000E+00 0.  1.
         22   -1    0    0    0    0 -0.00000000000E+00 -0.00000000000E+00 -0.80580854734E+03  0.80580854734E+03  0.00000000000E+00 0.  1.
         24    2    1    2    0    0 -0.47734332075E+02 -0.48009171659E+02 -0.70950561079E+03  0.71723328728E+03  0.80261632342E+02 0.  0.
         25    2    1    2    0    0  0.44937017578E+02 -0.23910833378E+00 -0.31435533966E+02  0.13658400465E+03  0.12509038656E+03 0.  0.
        -24    2    1    2    0    0  0.27973144975E+01  0.48248279993E+02  0.24109751948E+03  0.25795617747E+03  0.77959310579E+02 0.  0.
        -11    1    3    3    0    0 -0.22351060129E+01 -0.19588003510E+02 -0.51746310206E+03  0.51783853427E+03  0.00000000000E+00 0.  1.
         12    1    3    3    0    0 -0.45499226062E+02 -0.28421168149E+02 -0.19204250873E+03  0.19939475301E+03  0.00000000000E+00 0. -1.
         11    1    5    5    0    0  0.31012624560E+02  0.49990699434E+02  0.12055236035E+03  0.13414068920E+03  0.00000000000E+00 0. -1.
        -12    1    5    5    0    0 -0.28215310062E+02 -0.17424194413E+01  0.12054515912E+03  0.12381548827E+03  0.00000000000E+00 0.  1.
          5    1    4    4  501    0  0.57176164575E+01 -0.35136373960E+02 -0.64933649797E+02  0.74169449162E+02  0.41800000000E+01 0. -1.
         -5    1    4    4    0  501  0.39219401120E+02  0.34897265626E+02  0.33498115831E+02  0.62414555487E+02  0.41800000000E+01 0. -1.
</event>
<event>
11    1  0.8299058E-009  0.1595870E+03  0.7561462E-02  0.1087466E+00
         22   -1    0    0    0    0  0.00000000000E+00  0.00000000000E+00  0.20247898612E+03  0.20247898612E+03  0.00000000000E+00 0. -1.
         22   -1    0    0    0    0 -0.00000000000E+00 -0.00000000000E+00 -0.88605622319E+03  0.88605622319E+03  0.00000000000E+00 0. -1.
         24    2    1    2    0    0 -0.53676976352E+02 -0.10741930990E+02 -0.59827840945E+03  0.60609354198E+03  0.80098186898E+02 0.  0.
         25    2    1    2    0    0  0.14760413773E+03 -0.11788474799E+01 -0.22374262196E+03  0.29579859613E+03  0.12509067687E+03 0.  0.
        -24    2    1    2    0    0 -0.93927161378E+02  0.11920778470E+02  0.13844379434E+03  0.18664307119E+03  0.81881226359E+02 0.  0.
        -11    1    3    3    0    0 -0.30503159276E+02  0.21280296930E+02 -0.10800912684E+03  0.11423338060E+03  0.00000000000E+00 0.  1.
         12    1    3    3    0    0 -0.23173817076E+02 -0.32022227920E+02 -0.49026928262E+03  0.49186016138E+03  0.00000000000E+00 0. -1.
         13    1    5    5    0    0 -0.94750555857E+02 -0.87387913659E+01  0.78892114588E+02  0.12360420727E+03  0.00000000000E+00 0. -1.
        -14    1    5    5    0    0  0.82339447885E+00  0.20659569836E+02  0.59551679749E+02  0.63038863927E+02  0.00000000000E+00 0.  1.
          5    1    4    4  501    0  0.15224648206E+03 -0.22170285179E+02 -0.13607628086E+03  0.20543792118E+03  0.41800000000E+01 0.  1.
         -5    1    4    4    0  501 -0.46423443318E+01  0.20991437699E+02 -0.87666341094E+02  0.90360674955E+02  0.41800000000E+01 0.  1.
</event>
<event>
11    1  0.8299058E-009  0.1875373E+03  0.7561462E-02  0.1063704E+00
         22   -1    0    0    0    0  0.00000000000E+00  0.00000000000E+00  0.85935544681E+03  0.85935544681E+03  0.00000000000E+00 0.  1.
         22   -1    0    0    0    0 -0.00000000000E+00 -0.00000000000E+00 -0.19785257864E+03  0.19785257864E+03  0.00000000000E+00 0.  1.
         24    2    1    2    0    0 -0.77944640066E+01 -0.76098603829E+02 -0.13865795639E+03  0.17736774256E+03  0.79884516990E+02 0.  0.
         25    2    1    2    0    0 -0.10991075150E+03 -0.29059931954E+02  0.24539645832E+03  0.29797933689E+03  0.12508960994E+03 0.  0.
        -24    2    1    2    0    0  0.11770521551E+03  0.10515853578E+03  0.55476436624E+03  0.58186094601E+03  0.76719117780E+02 0.  0.
        -11    1    3    3    0    0 -0.20776333256E+02 -0.86850132971E+02 -0.94100593933E+02  0.12972865296E+03  0.00000000000E+00 0.  1.
         12    1    3    3    0    0  0.12981869249E+02  0.10751529142E+02 -0.44557362459E+02  0.47639089595E+02  0.00000000000E+00 0. -1.
         11    1    5    5    0    0  0.23142409895E+01  0.44966125102E+02  0.15851819438E+03  0.16478873161E+03  0.00000000000E+00 0. -1.
        -12    1    5    5    0    0  0.11539097452E+03  0.60192410682E+02  0.39624617187E+03  0.41707221440E+03  0.00000000000E+00 0.  1.
          5    1    4    4  501    0 -0.58843515734E+02 -0.34252705028E+02  0.23595870516E+03  0.24562123297E+03  0.41800000000E+01 0. -1.
         -5    1    4    4    0  501 -0.51067235765E+02  0.51927730733E+01  0.94377531597E+01  0.52358103915E+02  0.41800000000E+01 0. -1.
</event>
<event>
11    1  0.8299058E-009  0.1428706E+03  0.7561462E-02  0.1104395E+00
         22   -1    0    0    0    0  0.00000000000E+00  0.00000000000E+00  0.14478917727E+04  0.14478917727E+04  0.00000000000E+00 0. -1.
         22   -1    0    0    0    0 -0.00000000000E+00 -0.00000000000E+00 -0.25207545645E+03  0.25207545645E+03  0.00000000000E+00 0.  1.
         24    2    1    2    0    0  0.29739448439E+02 -0.60493009018E+02 -0.20699722650E+03  0.23210406459E+03  0.80502211685E+02 0.  0.
         25    2    1    2    0    0 -0.33874849570E+02  0.88503671018E+02  0.16650181937E+03  0.22880451634E+03  0.12509294795E+03 0.  0.
        -24    2    1    2    0    0  0.41354011313E+01 -0.28010662000E+02  0.12363117234E+04  0.12390586483E+04  0.77446482558E+02 0.  0.
        -13    1    3    3    0    0  0.32431809719E+02  0.64781575784E+01 -0.10474728041E+03  0.10984435151E+03  0.00000000000E+00 0.  1.
         14    1    3    3    0    0 -0.26923612802E+01 -0.66971166597E+02 -0.10224994609E+03  0.12225971307E+03  0.00000000000E+00 0. -1.
         11    1    5    5    0    0 -0.11281871259E+01  0.64540335558E+01  0.10147065130E+04  0.10147276654E+04  0.00000000000E+00 0. -1.
        -12    1    5    5    0    0  0.52635882572E+01 -0.34464695555E+02  0.22160521041E+03  0.22433098288E+03  0.00000000000E+00 0.  1.
          5    1    4    4  501    0  0.19353310816E+02 -0.21899929628E+02  0.12814643851E+02  0.32184546824E+02  0.41800000000E+01 0.  1.
         -5    1    4    4    0  501 -0.53228160386E+02  0.11040360065E+03  0.15368717551E+03  0.19661996951E+03  0.41800000000E+01 0.  1.
</event>
<event>
11    1  0.8299058E-009  0.1450308E+03  0.7561462E-02  0.1102067E+00
         22   -1    0    0    0    0  0.00000000000E+00  0.00000000000E+00  0.10524672829E+03  0.10524672829E+03  0.00000000000E+00 0.  1.
         22   -1    0    0    0    0 -0.00000000000E+00 -0.00000000000E+00 -0.43006927795E+03  0.43006927795E+03  0.00000000000E+00 0.  1.
         24    2    1    2    0    0  0.37923995698E+02 -0.24999904850E+02 -0.24624660171E+03  0.26302403136E+03  0.80504829228E+02 0.  0.
         25    2    1    2    0    0  0.36939655829E+02  0.56564330668E+02 -0.66636074590E+02  0.15701222505E+03  0.12509360775E+03 0.  0.
        -24    2    1    2    0    0 -0.74863651527E+02 -0.31564425818E+02 -0.11939873362E+02  0.11527974983E+03  0.80907236061E+02 0.  0.
        -13    1    3    3    0    0  0.97919505025E+01 -0.19528754302E+02 -0.22801103060E+03  0.22905519993E+03  0.00000000000E+00 0.  1.
         14    1    3    3    0    0  0.28132045196E+02 -0.54711505484E+01 -0.18235571105E+02  0.33968831430E+02  0.00000000000E+00 0. -1.
         13    1    5    5    0    0 -0.50558810952E+02  0.22260298393E+02 -0.12129000198E+01  0.55255636598E+02  0.00000000000E+00 0. -1.
        -14    1    5    5    0    0 -0.24304840575E+02 -0.53824724211E+02 -0.10726973342E+02  0.60024113229E+02  0.00000000000E+00 0.  1.
          5    1    4    4  501    0  0.50642682504E+02  0.33576707751E+02 -0.98116176846E+02  0.11548304271E+03  0.41800000000E+01 0. -1.
         -5    1    4    4    0  501 -0.13703026675E+02  0.22987622917E+02  0.31480102256E+02  0.41529182336E+02  0.41800000000E+01 0. -1.
</event>
<event>
11    1  0.8299058E-009  0.1300076E+03  0.7561462E-02  0.1119260E+00
         22   -1    0    0    0    0  0.00000000000E+00  0.00000000000E+00  0.43478827430E+03  0.43478827430E+03  0.00000000000E+00 0.  1.
         22   -1    0    0    0    0 -0.00000000000E+00 -0.00000000000E+00 -0.22912205437E+03  0.22912205437E+03  0.00000000000E+00 0.  1.
         24    2    1    2    0    0 -0.17636338655E+01 -0.29143290686E+02 -0.16018458103E+03  0.18087566326E+03  0.78768418572E+02 0.  0.
         25    2    1    2    0    0 -0.33710632500E+02  0.23990621193E+02  0.28470778575E+02  0.13480220108E+03  0.12509632903E+03 0.  0.
        -24    2    1    2    0    0  0.35474266365E+02  0.51526694936E+01  0.33738002238E+03  0.34823246432E+03  0.78457607223E+02 0.  0.
        -13    1    3    3    0    0 -0.24499064556E+01  0.18413993843E+02 -0.11066962093E+03  0.11221783373E+03  0.00000000000E+00 0.  1.
         14    1    3    3    0    0  0.68627259008E+00 -0.47557284530E+02 -0.49514960098E+02  0.68657829527E+02  0.00000000000E+00 0. -1.
         13    1    5    5    0    0  0.38751752486E+02 -0.13769584834E+02  0.78313082579E+02  0.88454726783E+02  0.00000000000E+00 0. -1.
        -14    1    5    5    0    0 -0.32774861211E+01  0.18922254328E+02  0.25906693980E+03  0.25977773754E+03  0.00000000000E+00 0.  1.
          5    1    4    4  501    0 -0.12313637210E+02  0.74263037522E+02  0.61805828242E+01  0.75645861800E+02  0.41800000000E+01 0. -1.
         -5    1    4    4    0  501 -0.21396995289E+02 -0.50272416329E+02  0.22290195751E+02  0.59156339285E+02  0.41800000000E+01 0. -1.
</event>
<event>
11    1  0.8299058E-009  0.1676072E+03  0.7561462E-02  0.1080133E+00
         22   -1    0    0    0    0  0.00000000000E+00  0.00000000000E+00  0.16451765830E+03  0.16451765830E+03  0.00000000000E+00 0. -1.
         22   -1    0    0    0    0 -0.00000000000E+00 -0.00000000000E+00 -0.16963969450E+04  0.16963969450E+04  0.00000000000E+00 0.  1.
         24    2    1    2    0    0 -0.16479498382E+02  0.28975496132E+02 -0.15400279614E+04  0.15424519996E+04  0.79755224524E+02 0.  0.
         25    2    1    2    0    0  0.34870408657E+02 -0.12869900626E+03 -0.26095894540E+02  0.18468102702E+03  0.12508679554E+03 0.  0.
        -24    2    1    2    0    0 -0.18390910275E+02  0.99723510131E+02  0.34244569256E+02  0.13378157670E+03  0.80260922543E+02 0.  0.
        -11    1    3    3    0    0 -0.64882695143E+01  0.10105271160E+02 -0.14451993991E+04  0.14452492925E+04  0.00000000000E+00 0.  1.
         12    1    3    3    0    0 -0.99912288680E+01  0.18870224972E+02 -0.94828562275E+02  0.97202707102E+02  0.00000000000E+00 0. -1.
         13    1    5    5    0    0 -0.37078779941E+02  0.10172144666E+03  0.37754037181E+02  0.11466235631E+03  0.00000000000E+00 0. -1.
        -14    1    5    5    0    0  0.18687869667E+02 -0.19979365273E+01 -0.35094679243E+01  0.19119220386E+02  0.00000000000E+00 0.  1.
          5    1    4    4  501    0  0.38931316832E+02 -0.87618587078E+02  0.42145405860E+02  0.10481589511E+03  0.41800000000E+01 0. -1.
         -5    1    4    4    0  501 -0.40609081756E+01 -0.41080419185E+02 -0.68241300401E+02  0.79865131916E+02  0.41800000000E+01 0. -1.
</event>
<event>
11    1  0.8299058E-009  0.1273285E+03  0.7561462E-02  0.1122596E+00
         22   -1    0    0    0    0  0.00000000000E+00  0.00000000000E+00  0.12522129564E+03  0.12522129564E+03  0.00000000000E+00 0. -1.
         22   -1    0    0    0    0 -0.00000000000E+00 -0.00000000000E+00 -0.64885032802E+03  0.64885032802E+03  0.00000000000E+00 0.  1.
         24    2    1    2    0    0 -0.20230700225E+02  0.23851060052E+02 -0.28960864220E+03  0.30263343926E+03  0.82071180203E+02 0.  0.
         25    2    1    2    0    0  0.84369519373E+01 -0.68344944619E+01 -0.32433482995E+03  0.34778010568E+03  0.12506009560E+03 0.  0.
        -24    2    1    2    0    0  0.11793748288E+02 -0.17016565590E+02  0.90314439769E+02  0.12365807873E+03  0.81889965199E+02 0.  0.
        -13    1    3    3    0    0 -0.26985444415E+02 -0.15927610592E+02 -0.21964615103E+03  0.22187008507E+03  0.00000000000E+00 0.  1.
         14    1    3    3    0    0  0.67547441891E+01  0.39778670644E+02 -0.69962491175E+02  0.80763354181E+02  0.00000000000E+00 0. -1.
         11    1    5    5    0    0 -0.10839751024E+02  0.13359073996E+02  0.83394390615E+02  0.85150393107E+02  0.00000000000E+00 0. -1.
        -12    1    5    5    0    0  0.22633499313E+02 -0.30375639587E+02  0.69200491541E+01  0.38507685619E+02  0.00000000000E+00 0.  1.
          5    1    4    4  501    0  0.21135397542E+02 -0.43371777595E+02 -0.29527269975E+03  0.29921773968E+03  0.41800000000E+01 0.  1.
         -5    1    4    4    0  501 -0.12698445605E+02  0.36537283133E+02 -0.29062130207E+02  0.48562366002E+02  0.41800000000E+01 0.  1.
</event>
<event>
11    1  0.8299058E-009  0.1894898E+03  0.7561462E-02  0.1062215E+00
         22   -1    0    0    0    0  0.00000000000E+00  0.00000000000E+00  0.19679152499E+03  0.19679152499E+03  0.00000000000E+00 0. -1.
         22   -1    0    0    0    0 -0.00000000000E+00 -0.00000000000E+00 -0.21627258427E+04  0.21627258427E+04  0.00000000000E+00 0.  1.
        -24    2    1    2    0    0  0.53028099720E+02  0.10429762821E+03 -0.16054308128E+04  0.16116753242E+04  0.79995509333E+02 0.  0.
         25    2    1    2    0    0 -0.43756041400E+02 -0.23932167745E+03 -0.47967591540E+03  0.55220182124E+03  0.12509360938E+03 0.  0.
         24    2    1    2    0    0 -0.92720583196E+01  0.13502404924E+03  0.11917241046E+03  0.19564022222E+03  0.75865461144E+02 0.  0.
        -11    1    5    5    0    0 -0.41081500013E+01  0.13693765294E+03  0.85433652692E+02  0.16145496803E+03  0.00000000000E+00 0.  1.
         12    1    5    5    0    0 -0.51639083182E+01 -0.19136036943E+01  0.33738757769E+02  0.34185254189E+02  0.00000000000E+00 0. -1.
         11    1    3    3    0    0 -0.67022413235E+01 -0.10395054503E+02 -0.15323550303E+03  0.15373384984E+03  0.00000000000E+00 0. -1.
        -12    1    3    3    0    0  0.59730341043E+02  0.11469268271E+03 -0.14521953097E+04  0.14579414744E+04  0.00000000000E+00 0.  1.
          5    1    4    4  501    0 -0.37295225126E+02 -0.92492066567E+02 -0.85262181956E+02  0.13127386742E+03  0.41800000000E+01 0. -1.
         -5    1    4    4    0  501 -0.64608162743E+01 -0.14682961088E+03 -0.39441373344E+03  0.42092795382E+03  0.41800000000E+01 0. -1.
</event>
<event>
11    1  0.8299058E-009  0.1834607E+03  0.7561462E-02  0.1066877E+00
         22   -1    0    0    0    0  0.00000000000E+00  0.00000000000E+00  0.11256286461E+04  0.11256286461E+04  0.00000000000E+00 0. -1.
         22   -1    0    0    0    0 -0.00000000000E+00 -0.00000000000E+00 -0.14369469912E+03  0.14369469912E+03  0.00000000000E+00 0. -1.
        -24    2    1    2    0    0 -0.24728019441E+02 -0.45988626569E+01 -0.10131181117E+03  0.13000418297E+03  0.77487934693E+02 0.  0.
         25    2    1    2    0    0  0.13790437394E+03 -0.53990877141E+02  0.48571316182E+03  0.52296978647E+03  0.12508993099E+03 0.  0.
         24    2    1    2    0    0 -0.11317635450E+03  0.58589739798E+02  0.59753259633E+03  0.61634937577E+03  0.81238565401E+02 0.  0.
        -13    1    5    5    0    0  0.46061992111E+01  0.96672805600E+01  0.85128603216E+01  0.13679991793E+02  0.00000000000E+00 0.  1.
         14    1    5    5    0    0 -0.11778255371E+03  0.48922459238E+02  0.58901973600E+03  0.60266938397E+03  0.00000000000E+00 0. -1.
         13    1    3    3    0    0 -0.26779761246E+02 -0.21076123681E+02 -0.10712229052E+03  0.11241238245E+03  0.00000000000E+00 0. -1.
        -14    1    3    3    0    0  0.20517418046E+01  0.16477261024E+02  0.58104793462E+01  0.17591800519E+02  0.00000000000E+00 0.  1.
          5    1    4    4  501    0  0.20333200418E+02  0.25007263297E+02  0.21468284978E+03  0.21712899541E+03  0.41800000000E+01 0.  1.
         -5    1    4    4    0  501  0.11757117353E+03 -0.78998140437E+02  0.27103031204E+03  0.30584079107E+03  0.41800000000E+01 0.  1.
</event>
<event>
11    1  0.8299058E-009  0.1346666E+03  0.7561462E-02  0.1113665E+00
         22   -1    0    0    0    0  0.00000000000E+00  0.00000000000E+00  0.22752587444E+03  0.22752587444E+03  0.00000000000E+00 0. -1.
         22   -1    0    0    0    0 -0.00000000000E+00 -0.00000000000E+00 -0.50763834564E+03  0.50763834564E+03  0.00000000000E+00 0.  1.
        -24    2    1    2    0    0 -0.46771814244E+02 -0.31829348984E+02 -0.26442669969E+03  0.28243206050E+03  0.81521035494E+02 0.  0.
         25    2    1    2    0    0  0.35327759674E+02  0.11095871163E+02 -0.20620740848E+03  0.24400797543E+03  0.12508887959E+03 0.  0.
         24    2    1    2    0    0  0.11444054570E+02  0.20733477821E+02  0.19052163697E+03  0.20872418415E+03  0.81892902054E+02 0.  0.
        -13    1    5    5    0    0  0.42798213620E+02  0.18909421806E+02  0.70148529677E+02  0.84321228276E+02  0.00000000000E+00 0.  1.
         14    1    5    5    0    0 -0.31354159051E+02  0.18240560144E+01  0.12037310730E+03  0.12440295588E+03  0.00000000000E+00 0. -1.
         13    1    3    3    0    0  0.19671076220E+02 -0.88313475659E+01 -0.25601235108E+02  0.33471886391E+02  0.00000000000E+00 0. -1.
        -14    1    3    3    0    0 -0.66442890464E+02 -0.22998001418E+02 -0.23882546458E+03  0.24896017411E+03  0.00000000000E+00 0.  1.
          5    1    4    4  501    0  0.20190707016E+02 -0.40128409029E+02 -0.18426987525E+02  0.48733767864E+02  0.41800000000E+01 0.  1.
         -5    1    4    4    0  501  0.15137052658E+02  0.51224280191E+02 -0.18778042096E+03  0.19527420756E+03  0.41800000000E+01 0.  1.
</event>
<event>
11    1  0.8299058E-009  0.1436992E+03  0.7561462E-02  0.1103497E+00
         22   -1    0    0    0    0  0.00000000000E+00  0.00000000000E+00  0.16845122004E+04  0.16845122004E+04  0.00000000000E+00 0. -1.
         22   -1    0    0    0    0 -0.00000000000E+00 -0.00000000000E+00 -0.96764033645E+03  0.96764033645E+03  0.00000000000E+00 0.  1.
        -24    2    1    2    0    0  0.94394822511E+01  0.67727890147E+02 -0.95088822277E+03  0.95682414401E+03  0.81534406388E+02 0.  0.
         25    2    1    2    0    0  0.62847382409E+02 -0.60259942486E+02  0.50470631847E+03  0.52721571098E+03  0.12508750481E+03 0.  0.
         24    2    1    2    0    0 -0.72286864660E+02 -0.74679476615E+01  0.11630537683E+04  0.11681126818E+04  0.80697017306E+02 0.  0.
        -11    1    5    5    0    0 -0.57928800362E+01 -0.94479929295E+01  0.18068401198E+02  0.21196441950E+02  0.00000000000E+00 0.  1.
         12    1    5    5    0    0 -0.66493984624E+02  0.19800452681E+01  0.11449853671E+04  0.11469162399E+04  0.00000000000E+00 0. -1.
         11    1    3    3    0    0  0.29978212096E+02  0.72529886078E+02 -0.85748223846E+03  0.86106623836E+03  0.00000000000E+00 0. -1.
        -12    1    3    3    0    0 -0.20538729845E+02 -0.48019959305E+01 -0.93405984313E+02  0.95757905647E+02  0.00000000000E+00 0.  1.
          5    1    4    4  501    0  0.43278604076E+02  0.34419082107E+02  0.19643201774E+03  0.20410958032E+03  0.41800000000E+01 0. -1.
         -5    1    4    4    0  501  0.19568778334E+02 -0.94679024593E+02  0.30827430073E+03  0.32310613067E+03  0.41800000000E+01 0. -1.
</event>
<event>
11    1  0.1865981E-008  0.1688963E+03  0.7561462E-02  0.1078996E+00
         22   -1    0    0    0    0  0.00000000000E+00  0.00000000000E+00  0.10857879609E+04  0.10857879609E+04  0.00000000000E+00 0. -1.
         22   -1    0    0    0    0 -0.00000000000E+00 -0.00000000000E+00 -0.13289497472E+04  0.13289497472E+04  0.00000000000E+00 0. -1.
         24    2    1    2    0    0 -0.91792457797E+02  0.67794984776E+02 -0.11258590394E+04  0.11345849391E+04  0.81868138711E+02 0.  0.
         25    2    1    2    0    0  0.13628308889E+03  0.94503477433E+01 -0.15167355018E+03  0.23940499696E+03  0.12508995706E+03 0.  0.
        -24    2    1    2    0    0 -0.44490631090E+02 -0.77245332520E+02  0.10343708032E+04  0.10407477720E+04  0.72709757321E+02 0.  0.
        -11    1    3    3    0    0 -0.23521316707E+01  0.81775130495E+01 -0.83613350710E+01  0.11929633994E+02  0.00000000000E+00 0.  1.
         12    1    3    3    0    0 -0.89440326126E+02  0.59617471727E+02 -0.11174977043E+04  0.11226553051E+04  0.00000000000E+00 0. -1.
         11    1    5    5    0    0 -0.26220205989E+02 -0.83682006519E+02  0.64995958312E+03  0.65584879134E+03  0.00000000000E+00 0. -1.
        -12    1    5    5    0    0 -0.18270425101E+02  0.64366739995E+01  0.38441122009E+03  0.38489898070E+03  0.00000000000E+00 0.  1.
          5    1    4    4  501    0  0.33117502655E+02  0.52451783661E+02 -0.17222096336E+02  0.64513809325E+02  0.41800000000E+01 0.  1.
         -5    1    4    4    0  501  0.10316558623E+03 -0.43001435918E+02 -0.13445145384E+03  0.17489118764E+03  0.41800000000E+01 0.  1.
</event>
<event>
11    1  0.8299058E-009  0.1813233E+03  0.7561462E-02  0.1068577E+00
         22   -1    0    0    0    0  0.00000000000E+00  0.00000000000E+00  0.25206330785E+04  0.25206330785E+04  0.00000000000E+00 0. -1.
         22   -1    0    0    0    0 -0.00000000000E+00 -0.00000000000E+00 -0.56201303111E+03  0.56201303111E+03  0.00000000000E+00 0. -1.
        -24    2    1    2    0    0 -0.20864200980E+02 -0.75603167991E+01 -0.53449306179E+03  0.54096547935E+03  0.80426012454E+02 0.  0.
         25    2    1    2    0    0 -0.34664176438E+02 -0.11335344842E+03  0.32417903461E+03  0.36713687110E+03  0.12508727451E+03 0.  0.
         24    2    1    2    0    0  0.55528377418E+02  0.12091376522E+03  0.21689340745E+04  0.21745437591E+04  0.81621083896E+02 0.  0.
        -11    1    5    5    0    0 -0.16668473558E+02  0.79562670728E+01  0.14446787574E+03  0.14564376855E+03  0.00000000000E+00 0.  1.
         12    1    5    5    0    0  0.72196850976E+02  0.11295749815E+03  0.20244661988E+04  0.20288999906E+04  0.00000000000E+00 0. -1.
         13    1    3    3    0    0 -0.22311142635E+02 -0.11052354127E+02 -0.53622845847E+03  0.53680620460E+03  0.00000000000E+00 0. -1.
        -14    1    3    3    0    0  0.14469416546E+01  0.34920373278E+01  0.17353966842E+01  0.41592747567E+01  0.00000000000E+00 0.  1.
          5    1    4    4  501    0  0.42719629661E+02 -0.51985703340E+02  0.86114618463E+02  0.10936489392E+03  0.41800000000E+01 0. -1.
         -5    1    4    4    0  501 -0.77383806098E+02 -0.61367745080E+02  0.23806441615E+03  0.25777197718E+03  0.41800000000E+01 0. -1.
</event>
<event>
11    1  0.8299058E-009  0.1631091E+03  0.7561462E-02  0.1084189E+00
         22   -1    0    0    0    0  0.00000000000E+00  0.00000000000E+00  0.11982137062E+04  0.11982137062E+04  0.00000000000E+00 0.  1.
         22   -1    0    0    0    0 -0.00000000000E+00 -0.00000000000E+00 -0.27535566773E+03  0.27535566773E+03  0.00000000000E+00 0. -1.
        -24    2    1    2    0    0  0.40058624340E+02  0.27399920373E+02 -0.24328481924E+03  0.26100617278E+03  0.81125026563E+02 0.  0.
         25    2    1    2    0    0 -0.11669763181E+03 -0.78302158251E+02  0.49887881068E+03  0.53317635545E+03  0.12508953996E+03 0.  0.
         24    2    1    2    0    0  0.76639007471E+02  0.50902237877E+02  0.66726404704E+03  0.67938684571E+03  0.88660038172E+02 0.  0.
        -11    1    5    5    0    0  0.62891196219E+02  0.66582130639E+01  0.54468572072E+03  0.54834493589E+03  0.00000000000E+00 0.  1.
         12    1    5    5    0    0  0.13747811252E+02  0.44244024814E+02  0.12257832632E+03  0.13104190982E+03  0.00000000000E+00 0. -1.
         13    1    3    3    0    0  0.43804589541E+02  0.28728885659E+02 -0.24877368274E+03  0.25422929839E+03  0.00000000000E+00 0. -1.
        -14    1    3    3    0    0 -0.37459652009E+01 -0.13289652854E+01  0.54888634966E+01  0.67768743903E+01  0.00000000000E+00 0.  1.
          5    1    4    4  501    0 -0.48728307721E+02  0.20815823483E+02  0.26404714415E+03  0.26934385683E+03  0.41800000000E+01 0. -1.
         -5    1    4    4    0  501 -0.67969324091E+02 -0.99117981733E+02  0.23483166653E+03  0.26383249861E+03  0.41800000000E+01 0. -1.
</event>
<event>
11    1  0.8299058E-009  0.2468716E+03  0.7561462E-02  0.1025579E+00
         22   -1    0    0    0    0  0.00000000000E+00  0.00000000000E+00  0.31851043465E+03  0.31851043465E+03  0.00000000000E+00 0. -1.
         22   -1    0    0    0    0 -0.00000000000E+00 -0.00000000000E+00 -0.15676110714E+04  0.15676110714E+04  0.00000000000E+00 0. -1.
         24    2    1    2    0    0  0.20492187920E+03  0.59448430168E+02 -0.14088370911E+04  0.14271856010E+04  0.80682700060E+02 0.  0.
         25    2    1    2    0    0 -0.21043717729E+03 -0.14516799471E+02 -0.31197231516E+02  0.24721454566E+03  0.12508885354E+03 0.  0.
        -24    2    1    2    0    0  0.55152980933E+01 -0.44931630697E+02  0.19093368585E+03  0.21172135939E+03  0.79504664521E+02 0.  0.
        -13    1    3    3    0    0  0.54985778141E+02  0.50915223087E+02 -0.58399757918E+03  0.58878601226E+03  0.00000000000E+00 0.  1.
         14    1    3    3    0    0  0.14993610105E+03  0.85332070808E+01 -0.82483951188E+03  0.83839958873E+03  0.00000000000E+00 0. -1.
         13    1    5    5    0    0  0.29756595312E+02 -0.13815354950E+02  0.15476699313E+03  0.15820600861E+03  0.00000000000E+00 0. -1.
        -14    1    5    5    0    0 -0.24241297219E+02 -0.31116275747E+02  0.36166692714E+02  0.53515350780E+02  0.00000000000E+00 0.  1.
          5    1    4    4  501    0 -0.13551288663E+03  0.50657677288E+02 -0.30032949246E+02  0.14781540228E+03  0.41800000000E+01 0.  1.
         -5    1    4    4    0  501 -0.74924290656E+02 -0.65174476759E+02 -0.11642822701E+01  0.99399143378E+02  0.41800000000E+01 0.  1.
</event>
<event>
11    1  0.8299058E-009  0.1302525E+03  0.7561462E-02  0.1118959E+00
         22   -1    0    0    0    0  0.00000000000E+00  0.00000000000E+00  0.95609220081E+03  0.95609220081E+03  0.00000000000E+00 0.  1.
         22   -1    0    0    0    0 -0.00000000000E+00 -0.00000000000E+00 -0.74022356931E+03  0.74022356931E+03  0.00000000000E+00 0.  1.
        -24    2    1    2    0    0  0.35421480254E+02 -0.72379820951E+01 -0.55628334903E+03  0.56320904115E+03  0.80288168350E+02 0.  0.
         25    2    1    2    0    0 -0.28020071880E+02  0.40403905186E+02 -0.15313654462E+03  0.20375385754E+03  0.12508890111E+03 0.  0.
         24    2    1    2    0    0 -0.74014083738E+01 -0.33165923091E+02  0.92528852515E+03  0.92935287143E+03  0.79894590332E+02 0.  0.
        -13    1    5    5    0    0  0.42580809534E+01 -0.45619312813E+02  0.87596519761E+03  0.87716263052E+03  0.00000000000E+00 0.  1.
         14    1    5    5    0    0 -0.11659489327E+02  0.12453389722E+02  0.49323327539E+02  0.52190240912E+02  0.00000000000E+00 0. -1.
         11    1    3    3    0    0  0.18262549911E+01 -0.46476542642E+00  0.26358067990E+01  0.32401684641E+01  0.00000000000E+00 0. -1.
        -12    1    3    3    0    0  0.33595225263E+02 -0.67732166686E+01 -0.55891915583E+03  0.55996887269E+03  0.00000000000E+00 0.  1.
          5    1    4    4  501    0  0.46296589085E+02  0.31569935328E+02 -0.44063042352E+02  0.71407696216E+02  0.41800000000E+01 0.  1.
         -5    1    4    4    0  501 -0.74316660965E+02  0.88339698574E+01 -0.10907350227E+03  0.13234616132E+03  0.41800000000E+01 0.  1.
</event>
<event>
11    1  0.8299058E-009  0.1527927E+03  0.7561462E-02  0.1094059E+00
         22   -1    0    0    0    0  0.00000000000E+00  0.00000000000E+00  0.41125714228E+04  0.41125714228E+04  0.00000000000E+00 0. -1.
         22   -1    0    0    0    0 -0.00000000000E+00 -0.00000000000E+00 -0.89627881992E+02  0.89627881992E+02  0.00000000000E+00 0. -1.
         24    2    1    2    0    0 -0.83120889811E+02  0.17386425724E+02 -0.39586225871E+02  0.12357722937E+03  0.80578484828E+02 0.  0.
         25    2    1    2    0    0 -0.13793910260E+02  0.78699136422E+01  0.57194325419E+03  0.58567897838E+03  0.12509425327E+03 0.  0.
        -24    2    1    2    0    0  0.96914800071E+02 -0.25256339366E+02  0.34905865125E+04  0.34929430971E+04  0.80168053906E+02 0.  0.
        -11    1    3    3    0    0 -0.26560775079E+02 -0.15198022370E+02  0.18871405392E+02  0.35952532570E+02  0.00000000000E+00 0.  1.
         12    1    3    3    0    0 -0.56560114732E+02  0.32584448093E+02 -0.58457631263E+02  0.87624696798E+02  0.00000000000E+00 0. -1.
         13    1    5    5    0    0  0.55941777094E+02 -0.47205932445E+02  0.26994896277E+04  0.27004818334E+04  0.00000000000E+00 0. -1.
        -14    1    5    5    0    0  0.40973022977E+02  0.21949593079E+02  0.79109688489E+03  0.79246126374E+03  0.00000000000E+00 0.  1.
          5    1    4    4  501    0 -0.15098647837E+02  0.48584860082E+01  0.29559505301E+01  0.16666856222E+02  0.41800000000E+01 0.  1.
         -5    1    4    4    0  501  0.13047375763E+01  0.30114276341E+01  0.56898730366E+03  0.56901212215E+03  0.41800000000E+01 0.  1.
</event>
<event>
11    1  0.8299058E-009  0.1413808E+03  0.7561462E-02  0.1106026E+00
         22   -1    0    0    0    0  0.00000000000E+00  0.00000000000E+00  0.29682121436E+03  0.29682121436E+03  0.00000000000E+00 0.  1.
         22   -1    0    0    0    0 -0.00000000000E+00 -0.00000000000E+00 -0.20488276198E+04  0.20488276198E+04  0.00000000000E+00 0. -1.
         24    2    1    2    0    0 -0.65263834891E+02 -0.12434460845E+02 -0.19677298265E+04  0.19704714419E+04  0.79893988722E+02 0.  0.
         25    2    1    2    0    0  0.44550206138E+02 -0.18192237098E+02 -0.83219472455E+01  0.13428585434E+03  0.12509099693E+03 0.  0.
        -24    2    1    2    0    0  0.20713628753E+02  0.30626697942E+02  0.22404536832E+03  0.24089153787E+03  0.80407443124E+02 0.  0.
        -11    1    3    3    0    0  0.13779277756E+02  0.14799027630E+02 -0.35266152282E+03  0.35324075273E+03  0.00000000000E+00 0.  1.
         12    1    3    3    0    0 -0.79043112647E+02 -0.27233488475E+02 -0.16150683037E+04  0.16172306892E+04  0.00000000000E+00 0. -1.
         13    1    5    5    0    0  0.20860979882E+02 -0.22961826612E+02  0.11886056335E+03  0.12284241728E+03  0.00000000000E+00 0. -1.
        -14    1    5    5    0    0 -0.14735112933E+00  0.53588524554E+02  0.10518480497E+03  0.11804912059E+03  0.00000000000E+00 0.  1.
          5    1    4    4  501    0  0.17926102983E+01 -0.59093853742E+01 -0.63131654554E+02  0.63570531647E+02  0.41800000000E+01 0. -1.
         -5    1    4    4    0  501  0.42757595839E+02 -0.12282851723E+02  0.54809707308E+02  0.70715322694E+02  0.41800000000E+01 0. -1.
</event>
<event>
11    1  0.8299058E-009  0.1327828E+03  0.7561462E-02  0.1115896E+00
         22   -1    0    0    0    0  0.00000000000E+00  0.00000000000E+00  0.12225773194E+04  0.12225773194E+04  0.00000000000E+00 0. -1.
         22   -1    0    0    0    0 -0.00000000000E+00 -0.00000000000E+00 -0.76457023786E+02  0.76457023786E+02  0.00000000000E+00 0. -1.
        -24    2    1    2    0    0 -0.55164441801E+01  0.46363482944E+02 -0.18262525737E+02  0.96558878408E+02  0.82523290325E+02 0.  0.
         25    2    1    2    0    0 -0.25794305871E+02 -0.32339271163E+02  0.23950324455E+03  0.27335249304E+03  0.12509439086E+03 0.  0.
         24    2    1    2    0    0  0.31310750051E+02 -0.14024211781E+02  0.92487957683E+03  0.92912297177E+03  0.81793786105E+02 0.  0.
        -13    1    5    5    0    0  0.27959797982E+02 -0.15143924042E+01  0.92559512460E+02  0.96702156307E+02  0.00000000000E+00 0.  1.
         14    1    5    5    0    0  0.33509520688E+01 -0.12509819377E+02  0.83232006437E+03  0.83242081546E+03  0.00000000000E+00 0. -1.
         13    1    3    3    0    0 -0.10415274169E+02  0.68056689364E+02 -0.17707103574E+01  0.68871810767E+02  0.00000000000E+00 0. -1.
        -14    1    3    3    0    0  0.48988299885E+01 -0.21693206420E+02 -0.16491815380E+02  0.27687067641E+02  0.00000000000E+00 0.  1.
          5    1    4    4  501    0 -0.40889086391E+02 -0.56504801212E+02  0.61647492122E+02  0.93180446612E+02  0.41800000000E+01 0. -1.
         -5    1    4    4    0  501  0.15094780520E+02  0.24165530050E+02  0.17785575243E+03  0.18017204643E+03  0.41800000000E+01 0. -1.
</event>
<event>
11    1  0.8299058E-009  0.2397883E+03  0.7561462E-02  0.1029484E+00
         22   -1    0    0    0    0  0.00000000000E+00  0.00000000000E+00  0.46258723389E+03  0.46258723389E+03  0.00000000000E+00 0. -1.
         22   -1    0    0    0    0 -0.00000000000E+00 -0.00000000000E+00 -0.12617346782E+04  0.12617346782E+04  0.00000000000E+00 0. -1.
        -24    2    1    2    0    0  0.20525331546E+02 -0.37521130270E+02 -0.97512729840E+03  0.97937739790E+03  0.80484252985E+02 0.  0.
         25    2    1    2    0    0 -0.22292840884E+03  0.31322468542E+02 -0.18928940240E+03  0.31961429405E+03  0.12507856170E+03 0.  0.
         24    2    1    2    0    0  0.20240307729E+03  0.61986617272E+01  0.36526925649E+03  0.42533022015E+03  0.80490604029E+02 0.  0.
        -11    1    5    5    0    0  0.68995219145E+02  0.22237719673E+02  0.19751137861E+03  0.21039391893E+03  0.00000000000E+00 0.  1.
         12    1    5    5    0    0  0.13340785815E+03 -0.16039057945E+02  0.16775787788E+03  0.21493630123E+03  0.00000000000E+00 0. -1.
         11    1    3    3    0    0  0.33351733886E+02 -0.28299044982E+02 -0.93812227244E+03  0.93914140157E+03  0.00000000000E+00 0. -1.
        -12    1    3    3    0    0 -0.12826402340E+02 -0.92220852878E+01 -0.37005025959E+02  0.40235996325E+02  0.00000000000E+00 0.  1.
          5    1    4    4  501    0 -0.70105075574E+02  0.19397179974E+02  0.38996918439E+01  0.72963362098E+02  0.41800000000E+01 0. -1.
         -5    1    4    4    0  501 -0.15282333326E+03  0.11925288568E+02 -0.19318909425E+03  0.24665093195E+03  0.41800000000E+01 0. -1.
</event>
<event>
11    1  0.8299058E-009  0.1372113E+03  0.7561462E-02  0.1110713E+00
         22   -1    0    0    0    0  0.00000000000E+00  0.00000000000E+00  0.19164814258E+03  0.19164814258E+03  0.00000000000E+00 0.  1.
         22   -1    0    0    0    0 -0.00000000000E+00 -0.00000000000E+00 -0.29910096671E+03  0.29910096671E+03  0.00000000000E+00 0.  1.
        -24    2    1    2    0    0 -0.40173639058E+02  0.37699478789E+02 -0.18259859446E+03  0.20993462201E+03  0.87721872102E+02 0.  0.
         25    2    1    2    0    0  0.66094324163E+02 -0.17544505986E+02 -0.28859130755E+02  0.14544782948E+03  0.12508378110E+03 0.  0.
         24    2    1    2    0    0 -0.25920685105E+02 -0.20154972802E+02  0.10400490108E+03  0.13536665780E+03  0.80181093472E+02 0.  0.
        -13    1    5    5    0    0  0.16067448890E+02  0.18997250270E+02  0.13826278621E+02  0.28464441189E+02  0.00000000000E+00 0.  1.
         14    1    5    5    0    0 -0.41988133995E+02 -0.39152223072E+02  0.90178622461E+02  0.10690221661E+03  0.00000000000E+00 0. -1.
         13    1    3    3    0    0 -0.13620145784E+02  0.58506717386E+02 -0.69257047239E+02  0.91679239431E+02  0.00000000000E+00 0. -1.
        -14    1    3    3    0    0 -0.26553493273E+02 -0.20807238598E+02 -0.11334154722E+03  0.11825538258E+03  0.00000000000E+00 0.  1.
          5    1    4    4  501    0  0.94672598669E+02 -0.36799047250E+02 -0.39618928171E+02  0.10910638243E+03  0.41800000000E+01 0.  1.
         -5    1    4    4    0  501 -0.28578274507E+02  0.19254541264E+02  0.10759797416E+02  0.36341447047E+02  0.41800000000E+01 0.  1.
</event>
<event>
11    1  0.8299058E-009  0.1718171E+03  0.7561462E-02  0.1076461E+00
         22   -1    0    0    0    0  0.00000000000E+00  0.00000000000E+00  0.35204881197E+03  0.35204881197E+03  0.00000000000E+00 0.  1.
         22   -1    0    0    0    0 -0.00000000000E+00 -0.00000000000E+00 -0.54697991030E+03  0.54697991030E+03  0.00000000000E+00 0. -1.
         24    2    1    2    0    0 -0.86344790407E+01 -0.12138862881E+03 -0.49165487945E+03  0.51301860127E+03  0.81570897544E+02 0.  0.
         25    2    1    2    0    0 -0.10386298978E+02  0.60281731571E+02  0.12894711272E+03  0.18978110502E+03  0.12509095721E+03 0.  0.
        -24    2    1    2    0    0  0.19020778019E+02  0.61106897241E+02  0.16777666840E+03  0.19622901599E+03  0.79126312744E+02 0.  0.
        -13    1    3    3    0    0 -0.40645749445E+02 -0.39907543735E+02 -0.15391768141E+03  0.16411990021E+03  0.00000000000E+00 0.  1.
         14    1    3    3    0    0  0.32011270404E+02 -0.81481085076E+02 -0.33773719805E+03  0.34889870106E+03  0.00000000000E+00 0. -1.
         13    1    5    5    0    0 -0.25313702761E+02  0.61604558220E+01  0.21399423063E+02  0.33714537975E+02  0.00000000000E+00 0. -1.
        -14    1    5    5    0    0  0.44334480780E+02  0.54946441419E+02  0.14637724534E+03  0.16251447801E+03  0.00000000000E+00 0.  1.
          5    1    4    4  501    0 -0.57040373028E+02  0.26726566424E+01  0.26076956441E+02  0.62914444335E+02  0.41800000000E+01 0. -1.
         -5    1    4    4    0  501  0.46654074051E+02  0.57609074928E+02  0.10287015628E+03  0.12686666068E+03  0.41800000000E+01 0. -1.
</event>
<event>
11    1  0.8299058E-009  0.1341979E+03  0.7561462E-02  0.1114216E+00
         22   -1    0    0    0    0  0.00000000000E+00  0.00000000000E+00  0.15954454318E+04  0.15954454318E+04  0.00000000000E+00 0.  1.
         22   -1    0    0    0    0 -0.00000000000E+00 -0.00000000000E+00 -0.68311260449E+03  0.68311260449E+03  0.00000000000E+00 0.  1.
        -24    2    1    2    0    0  0.30313735804E+02  0.39088379784E+02 -0.65491592078E+03  0.66219691205E+03  0.84516643443E+02 0.  0.
         25    2    1    2    0    0 -0.11485123277E+02 -0.95158131521E+00  0.14785555616E+03  0.19401424129E+03  0.12508975487E+03 0.  0.
         24    2    1    2    0    0 -0.18828612527E+02 -0.38136798469E+02  0.14193931919E+04  0.14223468829E+04  0.81146103199E+02 0.  0.
        -11    1    5    5    0    0  0.29841883548E+01 -0.21131293469E+02  0.12830064056E+04  0.12831838815E+04  0.00000000000E+00 0.  1.
         12    1    5    5    0    0 -0.21812800882E+02 -0.17005505000E+02  0.13638678627E+03  0.13916300138E+03  0.00000000000E+00 0. -1.
         13    1    3    3    0    0  0.18682972797E+02 -0.18595116278E+02 -0.78979787945E+02  0.83262468891E+02  0.00000000000E+00 0. -1.
        -14    1    3    3    0    0  0.11630763007E+02  0.57683496062E+02 -0.57593613284E+03  0.57893444316E+03  0.00000000000E+00 0.  1.
          5    1    4    4  501    0  0.92572917960E+01  0.57959124805E+02  0.96602478060E+02  0.11311263752E+03  0.41800000000E+01 0. -1.
         -5    1    4    4    0  501 -0.20742415073E+02 -0.58910706120E+02  0.51253078096E+02  0.80901603772E+02  0.41800000000E+01 0. -1.
</event>
<event>
11    1  0.8299058E-009  0.1499879E+03  0.7561462E-02  0.1096891E+00
         22   -1    0    0    0    0  0.00000000000E+00  0.00000000000E+00  0.15711245765E+03  0.15711245765E+03  0.00000000000E+00 0. -1.
         22   -1    0    0    0    0 -0.00000000000E+00 -0.00000000000E+00 -0.29094014387E+04  0.29094014387E+04  0.00000000000E+00 0. -1.
         24    2    1    2    0    0  0.27817718833E+02 -0.78518788649E+02 -0.23496184988E+04  0.23524575633E+04  0.80065421897E+02 0.  0.
         25    2    1    2    0    0 -0.60469065546E+02  0.61039176051E+02 -0.53039198335E+03  0.55167523486E+03  0.12509044670E+03 0.  0.
        -24    2    1    2    0    0  0.32651346713E+02  0.17479612598E+02  0.12772150107E+03  0.16238109817E+03  0.93183646156E+02 0.  0.
        -13    1    3    3    0    0 -0.19050113175E+02  0.22322378426E+01 -0.23611015468E+03  0.23688793731E+03  0.00000000000E+00 0.  1.
         14    1    3    3    0    0  0.46867832008E+02 -0.80751026492E+02 -0.21135083441E+04  0.21155696260E+04  0.00000000000E+00 0. -1.
         11    1    5    5    0    0  0.20934255031E+02  0.16076615353E+02  0.14167141283E+03  0.14410929813E+03  0.00000000000E+00 0. -1.
        -12    1    5    5    0    0  0.11717091682E+02  0.14029972448E+01 -0.13949911761E+02  0.18271800045E+02  0.00000000000E+00 0.  1.
          5    1    4    4  501    0 -0.34896143833E+01  0.49448049554E+02 -0.61166527469E+02  0.78842269728E+02  0.41800000000E+01 0. -1.
         -5    1    4    4    0  501 -0.56979451163E+02  0.11591126497E+02 -0.46922545589E+03  0.47283296514E+03  0.41800000000E+01 0. -1.
</event>
<event>
11    1  0.8299058E-009  0.1285504E+03  0.7561462E-02  0.1121063E+00
         22   -1    0    0    0    0  0.00000000000E+00  0.00000000000E+00  0.45420127106E+03  0.45420127106E+03  0.00000000000E+00 0. -1.
         22   -1    0    0    0    0 -0.00000000000E+00 -0.00000000000E+00 -0.29454864090E+03  0.29454864090E+03  0.00000000000E+00 0. -1.
         24    2    1    2    0    0  0.79469367565E+00  0.30477043329E+02 -0.16976107877E+03  0.19037965954E+03  0.80598444108E+02 0.  0.
         25    2    1    2    0    0  0.18712312042E+02 -0.51549138225E+02 -0.67296611743E+02  0.15226268385E+03  0.12509047393E+03 0.  0.
        -24    2    1    2    0    0 -0.19507005717E+02  0.21072094896E+02  0.39671032068E+03  0.40610756857E+03  0.81973912069E+02 0.  0.
        -13    1    3    3    0    0 -0.38702541299E+02  0.65565635566E+01 -0.65697160591E+02  0.76530988093E+02  0.00000000000E+00 0.  1.
         14    1    3    3    0    0  0.39497234975E+02  0.23920479772E+02 -0.10406391818E+03  0.11384867145E+03  0.00000000000E+00 0. -1.
         11    1    5    5    0    0 -0.31201166943E+02  0.30575736174E+01  0.51934521853E+02  0.60663466230E+02  0.00000000000E+00 0. -1.
        -12    1    5    5    0    0  0.11694161226E+02  0.18014521279E+02  0.34477579882E+03  0.34544410233E+03  0.00000000000E+00 0.  1.
          5    1    4    4  501    0 -0.81110515602E+01  0.69551300347E+01 -0.84689219022E+02  0.85462852806E+02  0.41800000000E+01 0. -1.
         -5    1    4    4    0  501  0.26823363602E+02 -0.58504268260E+02  0.17392607280E+02  0.66799831044E+02  0.41800000000E+01 0. -1.
</event>
<event>
11    1  0.8299058E-009  0.1380419E+03  0.7561462E-02  0.1109765E+00
         22   -1    0    0    0    0  0.00000000000E+00  0.00000000000E+00  0.19696111149E+04  0.19696111149E+04  0.00000000000E+00 0.  1.
         22   -1    0    0    0    0 -0.00000000000E+00 -0.00000000000E+00 -0.37938301471E+03  0.37938301471E+03  0.00000000000E+00 0. -1.
        -24    2    1    2    0    0  0.18766830441E+02  0.23084580186E+02 -0.32447594190E+03  0.33530642450E+03  0.79124393679E+02 0.  0.
         25    2    1    2    0    0  0.37492660944E+02 -0.39877648247E+02  0.48655678284E+02  0.14493969146E+03  0.12507682710E+03 0.  0.
         24    2    1    2    0    0 -0.56259491385E+02  0.16793068062E+02  0.18660483638E+04  0.18687480136E+04  0.81458608572E+02 0.  0.
        -11    1    5    5    0    0 -0.30439574286E+01  0.16562849348E+02  0.13211269092E+04  0.13212342351E+04  0.00000000000E+00 0.  1.
         12    1    5    5    0    0 -0.53215533956E+02  0.23021871332E+00  0.54492145459E+03  0.54751377858E+03  0.00000000000E+00 0. -1.
         11    1    3    3    0    0 -0.12773780219E+02  0.30040905290E+02 -0.27006854657E+03  0.27203427229E+03  0.00000000000E+00 0. -1.
        -12    1    3    3    0    0  0.31540610660E+02 -0.69563251047E+01 -0.54407395329E+02  0.63272152218E+02  0.00000000000E+00 0.  1.
          5    1    4    4  501    0 -0.26595486760E+02  0.56478405008E+01 -0.24971178198E+02  0.37151718115E+02  0.41800000000E+01 0.  1.
         -5    1    4    4    0  501  0.64088147704E+02 -0.45525488748E+02  0.73626856482E+02  0.10778797334E+03  0.41800000000E+01 0.  1.
</event>
<event>
11    1  0.8299058E-009  0.1454832E+03  0.7561462E-02  0.1101585E+00
         22   -1    0    0    0    0  0.00000000000E+00  0.00000000000E+00  0.11727377959E+04  0.11727377959E+04  0.00000000000E+00 0.  1.
         22   -1    0    0    0    0 -0.00000000000E+00 -0.00000000000E+00 -0.29176512376E+03  0.29176512376E+03  0.00000000000E+00 0. -1.
        -24    2    1    2    0    0 -0.19497664418E+01  0.19957712877E+02 -0.26501091579E+03  0.27712239762E+03  0.78510673674E+02 0.  0.
         25    2    1    2    0    0  0.41071590637E+02 -0.79552317949E+02  0.32621213796E+03  0.36066191139E+03  0.12508880256E+03 0.  0.
         24    2    1    2    0    0 -0.39121824195E+02  0.59594605072E+02  0.81977144999E+03  0.82671861068E+03  0.79727015167E+02 0.  0.
        -11    1    5    5    0    0 -0.49813289421E+02  0.29751223805E+02  0.71256800669E+03  0.71492633416E+03  0.00000000000E+00 0.  1.
         12    1    5    5    0    0  0.10691465226E+02  0.29843381266E+02  0.10720344330E+03  0.11179227652E+03  0.00000000000E+00 0. -1.
         11    1    3    3    0    0 -0.85799758221E+01 -0.27841956687E+02 -0.14254055807E+03  0.14548746074E+03  0.00000000000E+00 0. -1.
        -12    1    3    3    0    0  0.66302093803E+01  0.47799669564E+02 -0.12247035772E+03  0.13163493688E+03  0.00000000000E+00 0.  1.
          5    1    4    4  501    0  0.28793698472E+02 -0.16988988089E+02  0.27947631237E+03  0.28149988341E+03  0.41800000000E+01 0.  1.
         -5    1    4    4    0  501  0.12277892165E+02 -0.62563329860E+02  0.46735825595E+02  0.79162027976E+02  0.41800000000E+01 0.  1.
</event>
<event>
11    1  0.8299058E-009  0.1322708E+03  0.7561462E-02  0.1116510E+00
         22   -1    0    0    0    0  0.00000000000E+00  0.00000000000E+00  0.14519539824E+04  0.14519539824E+04  0.00000000000E+00 0. -1.
         22   -1    0    0    0    0 -0.00000000000E+00 -0.00000000000E+00 -0.12691702938E+04  0.12691702938E+04  0.00000000000E+00 0. -1.
         24    2    1    2    0    0 -0.43408184557E+02 -0.45944086584E+01 -0.12160862173E+04  0.12194252788E+04  0.78910985011E+02 0.  0.
         25    2    1    2    0    0  0.13177328808E+02 -0.11609009859E+02  0.29776123483E+02  0.12977511804E+03  0.12508618081E+03 0.  0.
        -24    2    1    2    0    0  0.30230855749E+02  0.16203418518E+02  0.13690937824E+04  0.13719238793E+04  0.81122685636E+02 0.  0.
        -13    1    3    3    0    0 -0.70243452523E+01 -0.13022594412E+02 -0.38475516960E+02  0.41222503524E+02  0.00000000000E+00 0.  1.
         14    1    3    3    0    0 -0.36383839304E+02  0.84281857534E+01 -0.11776107004E+04  0.11782027753E+04  0.00000000000E+00 0. -1.
         13    1    5    5    0    0  0.37558332724E+02  0.28097250875E+02  0.13212497195E+04  0.13220820342E+04  0.00000000000E+00 0. -1.
        -14    1    5    5    0    0 -0.73274769754E+01 -0.11893832357E+02  0.47844062952E+02  0.49841845138E+02  0.00000000000E+00 0.  1.
          5    1    4    4  501    0 -0.41940647869E+02 -0.31951170144E+02  0.44434362979E+02  0.69078073442E+02  0.41800000000E+01 0.  1.
         -5    1    4    4    0  501  0.55117976676E+02  0.20342160285E+02 -0.14658239496E+02  0.60697044599E+02  0.41800000000E+01 0.  1.
</event>
<event>
11    1  0.8299058E-009  0.1326234E+03  0.7561462E-02  0.1116087E+00
         22   -1    0    0    0    0  0.00000000000E+00  0.00000000000E+00  0.42990496716E+03  0.42990496716E+03  0.00000000000E+00 0. -1.
         22   -1    0    0    0    0 -0.00000000000E+00 -0.00000000000E+00 -0.91662359299E+03  0.91662359299E+03  0.00000000000E+00 0.  1.
         24    2    1    2    0    0 -0.31969560751E+02  0.31019113386E+02 -0.70392569077E+03  0.70997086938E+03  0.81012462156E+02 0.  0.
         25    2    1    2    0    0  0.53787130786E+02  0.89962432276E-02 -0.18210626549E+03  0.22738280916E+03  0.12508874632E+03 0.  0.
        -24    2    1    2    0    0 -0.21817570035E+02 -0.31028109629E+02  0.39931333043E+03  0.40917488161E+03  0.80834385802E+02 0.  0.
        -11    1    3    3    0    0 -0.30412809579E+02  0.31203420010E+02 -0.15407020487E+03  0.16011314885E+03  0.00000000000E+00 0.  1.
         12    1    3    3    0    0 -0.15567511722E+01 -0.18430662417E+00 -0.54985548590E+03  0.54985772053E+03  0.00000000000E+00 0. -1.
         11    1    5    5    0    0 -0.48444528273E+02 -0.33818661206E+02  0.32152795231E+03  0.32691099443E+03  0.00000000000E+00 0. -1.
        -12    1    5    5    0    0  0.26626958239E+02  0.27905515772E+01  0.77785378120E+02  0.82263887171E+02  0.00000000000E+00 0.  1.
          5    1    4    4  501    0 -0.33646540326E+02 -0.28032257439E+02 -0.52564646378E+02  0.68544960295E+02  0.41800000000E+01 0. -1.
         -5    1    4    4    0  501  0.87433671112E+02  0.28041253682E+02 -0.12954161911E+03  0.15883784887E+03  0.41800000000E+01 0. -1.
</event>
<event>
11    1  0.8299058E-009  0.1360627E+03  0.7561462E-02  0.1112036E+00
         22   -1    0    0    0    0  0.00000000000E+00  0.00000000000E+00  0.10690575180E+04  0.10690575180E+04  0.00000000000E+00 0. -1.
         22   -1    0    0    0    0 -0.00000000000E+00 -0.00000000000E+00 -0.93455447884E+02  0.93455447884E+02  0.00000000000E+00 0. -1.
         24    2    1    2    0    0  0.91485144017E+01  0.54601848501E+02 -0.27658690156E+02  0.10280868762E+03  0.82094859359E+02 0.  0.
         25    2    1    2    0    0 -0.52066539293E+02 -0.32879739175E+02  0.16245192022E+03  0.21408081508E+03  0.12509183522E+03 0.  0.
        -24    2    1    2    0    0  0.42918024892E+02 -0.21722109327E+02  0.84080884005E+03  0.84562346318E+03  0.76195335099E+02 0.  0.
        -13    1    3    3    0    0 -0.30440677072E+02  0.45606671385E+02 -0.21762085944E+01  0.54875670194E+02  0.00000000000E+00 0.  1.
         14    1    3    3    0    0  0.39589191474E+02  0.89951771166E+01 -0.25482481561E+02  0.47933017424E+02  0.00000000000E+00 0. -1.
         13    1    5    5    0    0  0.14024674864E+02 -0.41006033604E+02  0.66529420971E+03  0.66670426110E+03  0.00000000000E+00 0. -1.
        -14    1    5    5    0    0  0.28893350027E+02  0.19283924278E+02  0.17551463034E+03  0.17891920208E+03  0.00000000000E+00 0.  1.
          5    1    4    4  501    0 -0.89155148451E+02 -0.24420390705E+02  0.14502162296E+03  0.17202831018E+03  0.41800000000E+01 0.  1.
         -5    1    4    4    0  501  0.37088609158E+02 -0.84593484702E+01  0.17430297265E+02  0.42052504903E+02  0.41800000000E+01 0.  1.
</event>
<event>
11    1  0.8299058E-009  0.1641377E+03  0.7561462E-02  0.1083249E+00
         22   -1    0    0    0    0  0.00000000000E+00  0.00000000000E+00  0.13871458691E+03  0.13871458691E+03  0.00000000000E+00 0.  1.
         22   -1    0    0    0    0 -0.00000000000E+00 -0.00000000000E+00 -0.10067638506E+04  0.10067638506E+04  0.00000000000E+00 0. -1.
         24    2    1    2    0    0  0.80277996478E+01 -0.10209806174E+02 -0.74363794256E+03  0.74810170981E+03  0.80561112865E+02 0.  0.
         25    2    1    2    0    0 -0.16615406282E+02 -0.97199954526E+02 -0.19002235065E+03  0.24796917102E+03  0.12512518988E+03 0.  0.
        -24    2    1    2    0    0  0.85876066339E+01  0.10740976070E+03  0.65611029542E+02  0.14940755666E+03  0.80045031745E+02 0.  0.
        -13    1    3    3    0    0 -0.29150023619E+02  0.27803126968E+00 -0.12907529286E+03  0.13232623476E+03  0.00000000000E+00 0.  1.
         14    1    3    3    0    0  0.37177823266E+02 -0.10487837444E+02 -0.61456264969E+03  0.61577547505E+03  0.00000000000E+00 0. -1.
         13    1    5    5    0    0 -0.15251252796E+02  0.97728109449E+01 -0.12592947830E+02  0.22061071612E+02  0.00000000000E+00 0. -1.
        -14    1    5    5    0    0  0.23838859430E+02  0.97636949755E+02  0.78203977372E+02  0.12734648504E+03  0.00000000000E+00 0.  1.
          5    1    4    4  501    0 -0.14142875281E+02 -0.71337531662E+01  0.16104071779E+02  0.22972263348E+02  0.41800000000E+01 0. -1.
         -5    1    4    4    0  501 -0.24725310003E+01 -0.90066201360E+02 -0.20612642243E+03  0.22499690767E+03  0.41800000000E+01 0. -1.
</event>
<event>
11    1  0.8299058E-009  0.1393834E+03  0.7561462E-02  0.1108249E+00
         22   -1    0    0    0    0  0.00000000000E+00  0.00000000000E+00  0.71255138202E+03  0.71255138202E+03  0.00000000000E+00 0. -1.
         22   -1    0    0    0    0 -0.00000000000E+00 -0.00000000000E+00 -0.92304079627E+03  0.92304079627E+03  0.00000000000E+00 0. -1.
        -24    2    1    2    0    0  0.35582102772E+02  0.50641661560E+02 -0.89114413320E+03  0.89692408859E+03  0.80649182447E+02 0.  0.
         25    2    1    2    0    0 -0.14126920499E+02 -0.36048026640E+02  0.14149831071E+03  0.19279201413E+03  0.12509180098E+03 0.  0.
         24    2    1    2    0    0 -0.21455182273E+02 -0.14593634920E+02  0.53915640825E+03  0.54587607557E+03  0.81349605383E+02 0.  0.
        -11    1    5    5    0    0 -0.33027358266E+02 -0.30012235008E+02  0.15660941927E+03  0.16284363926E+03  0.00000000000E+00 0.  1.
         12    1    5    5    0    0  0.11572175992E+02  0.15418600088E+02  0.38254698898E+03  0.38303243631E+03  0.00000000000E+00 0. -1.
         11    1    3    3    0    0  0.20541156011E+02  0.66153825815E+02 -0.45475865804E+03  0.46000402696E+03  0.00000000000E+00 0. -1.
        -12    1    3    3    0    0  0.15040946761E+02 -0.15512164255E+02 -0.43638547516E+03  0.43692006163E+03  0.00000000000E+00 0.  1.
          5    1    4    4  501    0  0.41550686181E+02 -0.40714337221E+02  0.24871720707E+02  0.63404981416E+02  0.41800000000E+01 0. -1.
         -5    1    4    4    0  501 -0.55677606680E+02  0.46663105815E+01  0.11662659000E+03  0.12938703272E+03  0.41800000000E+01 0. -1.
</event>
<event>
11    1  0.8299058E-009  0.2127916E+03  0.7561462E-02  0.1045829E+00
         22   -1    0    0    0    0  0.00000000000E+00  0.00000000000E+00  0.33170829826E+03  0.33170829826E+03  0.00000000000E+00 0. -1.
         22   -1    0    0    0    0 -0.00000000000E+00 -0.00000000000E+00 -0.24596931289E+03  0.24596931289E+03  0.00000000000E+00 0.  1.
         24    2    1    2    0    0 -0.84817335369E+02  0.12688930865E+02 -0.62892522786E+02  0.13178893272E+03  0.77832281341E+02 0.  0.
         25    2    1    2    0    0 -0.67222688703E+01  0.15355033967E+03  0.13044873436E+02  0.19859616717E+03  0.12508946071E+03 0.  0.
        -24    2    1    2    0    0  0.91539604240E+02 -0.16623927053E+03  0.13558663472E+03  0.24729251126E+03  0.82187933413E+02 0.  0.
        -13    1    3    3    0    0 -0.47856339705E+00  0.28598175431E+02 -0.72594129626E+01  0.29509045012E+02  0.00000000000E+00 0.  1.
         14    1    3    3    0    0 -0.84338771972E+02 -0.15909244566E+02 -0.55633109823E+02  0.10227988771E+03  0.00000000000E+00 0. -1.
         13    1    5    5    0    0  0.65065029498E+02 -0.10795313711E+03  0.13297782073E+03  0.18322237495E+03  0.00000000000E+00 0. -1.
        -14    1    5    5    0    0  0.26474574742E+02 -0.58286133419E+02  0.26088139959E+01  0.64070136313E+02  0.00000000000E+00 0.  1.
          5    1    4    4  501    0  0.54328672367E+02  0.48582961079E+02 -0.13468401193E+02  0.74234621161E+02  0.41800000000E+01 0. -1.
         -5    1    4    4    0  501 -0.61050941237E+02  0.10496737859E+03  0.26513274629E+02  0.12436154601E+03  0.41800000000E+01 0. -1.
</event>
<event>
11    1  0.8299058E-009  0.1389123E+03  0.7561462E-02  0.1108779E+00
         22   -1    0    0    0    0  0.00000000000E+00  0.00000000000E+00  0.11710963176E+03  0.11710963176E+03  0.00000000000E+00 0.  1.
         22   -1    0    0    0    0 -0.00000000000E+00 -0.00000000000E+00 -0.12035408787E+04  0.12035408787E+04  0.00000000000E+00 0. -1.
         24    2    1    2    0    0 -0.66424129192E+01  0.59916774298E+02 -0.10605363884E+04  0.10653683796E+04  0.81475221582E+02 0.  0.
         25    2    1    2    0    0 -0.27325849225E+01 -0.62898037081E+02 -0.72056410851E+02  0.15749764604E+03  0.12509896911E+03 0.  0.
        -24    2    1    2    0    0  0.93749978417E+01  0.29812627831E+01  0.46161552296E+02  0.97784484804E+02  0.85639582237E+02 0.  0.
        -13    1    3    3    0    0  0.16852957303E+02  0.62650306402E+02 -0.48175679961E+03  0.48610564390E+03  0.00000000000E+00 0.  1.
         14    1    3    3    0    0 -0.23495370222E+02 -0.27335321038E+01 -0.57877958880E+03  0.57926273575E+03  0.00000000000E+00 0. -1.
         11    1    5    5    0    0 -0.67737198373E+01 -0.38590113362E+02  0.10178720284E+02  0.40480692636E+02  0.00000000000E+00 0. -1.
        -12    1    5    5    0    0  0.16148717679E+02  0.41571376145E+02  0.35982832012E+02  0.57303792168E+02  0.00000000000E+00 0.  1.
          5    1    4    4  501    0 -0.28199808873E+02 -0.30479913120E+02 -0.99431591780E+02  0.10783491164E+03  0.41800000000E+01 0. -1.
         -5    1    4    4    0  501  0.25467223951E+02 -0.32418123962E+02  0.27375180929E+02  0.49662734398E+02  0.41800000000E+01 0. -1.
</event>
<event>
11    1  0.8299058E-009  0.1543818E+03  0.7561462E-02  0.1092484E+00
         22   -1    0    0    0    0  0.00000000000E+00  0.00000000000E+00  0.84086041909E+03  0.84086041909E+03  0.00000000000E+00 0. -1.
         22   -1    0    0    0    0 -0.00000000000E+00 -0.00000000000E+00 -0.25391055495E+03  0.25391055495E+03  0.00000000000E+00 0. -1.
        -24    2    1    2    0    0 -0.16695770650E+02 -0.59303282256E+01 -0.22103912924E+03  0.23540284873E+03  0.79008145068E+02 0.  0.
         25    2    1    2    0    0  0.15550384719E+02 -0.86150492013E+02  0.29766915114E+03  0.33454197191E+03  0.12509070984E+03 0.  0.
         24    2    1    2    0    0  0.11453859311E+01  0.92080820239E+02  0.51031984224E+03  0.52482615340E+03  0.80845287722E+02 0.  0.
        -11    1    5    5    0    0 -0.19834447818E+02 -0.58560591461E+01  0.12512498610E+03  0.12682255673E+03  0.00000000000E+00 0.  1.
         12    1    5    5    0    0  0.20979833749E+02  0.97936879385E+02  0.38519485614E+03  0.39800359667E+03  0.00000000000E+00 0. -1.
         11    1    3    3    0    0 -0.29505038929E+02  0.30077172279E+02 -0.10130809594E+03  0.10972016185E+03  0.00000000000E+00 0. -1.
        -12    1    3    3    0    0  0.12809268279E+02 -0.36007500504E+02 -0.11973103330E+03  0.12568268688E+03  0.00000000000E+00 0.  1.
          5    1    4    4  501    0  0.41026396579E+02 -0.74075695271E+02  0.85290148194E+02  0.12025911868E+03  0.41800000000E+01 0.  1.
         -5    1    4    4    0  501 -0.25476011860E+02 -0.12074796742E+02  0.21237900294E+03  0.21428285323E+03  0.41800000000E+01 0.  1.
</event>
<event>
11    1  0.8299058E-009  0.1309522E+03  0.7561462E-02  0.1118105E+00
         22   -1    0    0    0    0  0.00000000000E+00  0.00000000000E+00  0.16907824137E+04  0.16907824137E+04  0.00000000000E+00 0.  1.
         22   -1    0    0    0    0 -0.00000000000E+00 -0.00000000000E+00 -0.30915550618E+03  0.30915550618E+03  0.00000000000E+00 0.  1.
        -24    2    1    2    0    0 -0.34491632277E+02  0.17626311582E+02 -0.27719822454E+03  0.29086769948E+03  0.79150510796E+02 0.  0.
         25    2    1    2    0    0  0.22298578242E+02 -0.41917572219E+02  0.16202736233E+03  0.21012813144E+03  0.12508659410E+03 0.  0.
         24    2    1    2    0    0  0.12193054035E+02  0.24291260638E+02  0.14967977697E+04  0.14989420889E+04  0.75399514063E+02 0.  0.
        -13    1    5    5    0    0  0.18540239882E+01  0.13610177976E+02  0.14446918311E+04  0.14447571288E+04  0.00000000000E+00 0.  1.
         14    1    5    5    0    0  0.10339030046E+02  0.10681082662E+02  0.52105938554E+02  0.54184960106E+02  0.00000000000E+00 0. -1.
         13    1    3    3    0    0  0.20603071744E+02  0.25048063122E+02 -0.95700545424E+02  0.10104695159E+03  0.00000000000E+00 0. -1.
        -14    1    3    3    0    0 -0.55094704020E+02 -0.74217515402E+01 -0.18149767911E+03  0.18982074789E+03  0.00000000000E+00 0.  1.
          5    1    4    4  501    0 -0.40207244510E+02  0.14390333506E+02  0.26116521000E+02  0.50231954756E+02  0.41800000000E+01 0.  1.
         -5    1    4    4    0  501  0.62505822752E+02 -0.56307905726E+02  0.13591084133E+03  0.15989617668E+03  0.41800000000E+01 0.  1.
</event>
<event>
11    1  0.8299058E-009  0.1565104E+03  0.7561462E-02  0.1090406E+00
         22   -1    0    0    0    0  0.00000000000E+00  0.00000000000E+00  0.50154661573E+03  0.50154661573E+03  0.00000000000E+00 0. -1.
         22   -1    0    0    0    0 -0.00000000000E+00 -0.00000000000E+00 -0.35371107467E+03  0.35371107467E+03  0.00000000000E+00 0.  1.
         24    2    1    2    0    0 -0.83029280726E+00 -0.38460234513E+02 -0.28424905094E+03  0.29830747343E+03  0.81914264422E+02 0.  0.
         25    2    1    2    0    0  0.54103310870E+02  0.10951398515E+03  0.94635954271E+02  0.19880687305E+03  0.12509087793E+03 0.  0.
        -24    2    1    2    0    0 -0.53273018063E+02 -0.71053750632E+02  0.33744863773E+03  0.35814334393E+03  0.80674790098E+02 0.  0.
        -11    1    3    3    0    0  0.22898940456E+02 -0.52015702722E+02 -0.23705068191E+03  0.24376837489E+03  0.00000000000E+00 0.  1.
         12    1    3    3    0    0 -0.23729233264E+02  0.13555468209E+02 -0.47198369033E+02  0.54539098535E+02  0.00000000000E+00 0. -1.
         11    1    5    5    0    0 -0.21752887375E+02 -0.54704623583E+02  0.30301674135E+03  0.30868257076E+03  0.00000000000E+00 0. -1.
        -12    1    5    5    0    0 -0.31520130688E+02 -0.16349127050E+02  0.34431896384E+02  0.49460773169E+02  0.00000000000E+00 0.  1.
          5    1    4    4  501    0  0.85858446823E+02  0.33331678896E+02  0.49925781842E+02  0.10484621978E+03  0.41800000000E+01 0. -1.
         -5    1    4    4    0  501 -0.31755135953E+02  0.76182306250E+02  0.44710172429E+02  0.93960653274E+02  0.41800000000E+01 0. -1.
</event>
<event>
11    1  0.8299058E-009  0.1421549E+03  0.7561462E-02  0.1105176E+00
         22   -1    0    0    0    0  0.00000000000E+00  0.00000000000E+00  0.79419742359E+02  0.79419742359E+02  0.00000000000E+00 0. -1.
         22   -1    0    0    0    0 -0.00000000000E+00 -0.00000000000E+00 -0.16730717745E+04  0.16730717745E+04  0.00000000000E+00 0.  1.
         24    2    1    2    0    0  0.42876184983E+02  0.53109251264E+02 -0.12802235732E+04  0.12844909080E+04  0.79281368406E+02 0.  0.
         25    2    1    2    0    0 -0.51995559894E+02 -0.38595311771E+02 -0.35044744913E+03  0.37769444318E+03  0.12508613622E+03 0.  0.
        -24    2    1    2    0    0  0.91193749109E+01 -0.14513939493E+02  0.37018990176E+02  0.90306165751E+02  0.80566621504E+02 0.  0.
        -13    1    3    3    0    0  0.10347930106E+02 -0.74780130738E+01 -0.71296870100E+03  0.71308300285E+03  0.00000000000E+00 0.  1.
         14    1    3    3    0    0  0.32528254876E+02  0.60587264338E+02 -0.56725487224E+03  0.57140790513E+03  0.00000000000E+00 0. -1.
         11    1    5    5    0    0 -0.13075447231E+02 -0.41639345985E+02  0.33622773048E+02  0.55093496184E+02  0.00000000000E+00 0. -1.
        -12    1    5    5    0    0  0.22194822142E+02  0.27125406492E+02  0.33962171275E+01  0.35212669567E+02  0.00000000000E+00 0.  1.
          5    1    4    4  501    0 -0.79708611397E+02 -0.31107749477E+02 -0.13221179275E+03  0.15753915498E+03  0.41800000000E+01 0. -1.
         -5    1    4    4    0  501  0.27713051503E+02 -0.74875622945E+01 -0.21823565637E+03  0.22015528821E+03  0.41800000000E+01 0. -1.
</event>
<event>
11    1  0.8299058E-009  0.1466813E+03  0.7561462E-02  0.1100319E+00
         22   -1    0    0    0    0  0.00000000000E+00  0.00000000000E+00  0.18648225992E+04  0.18648225992E+04  0.00000000000E+00 0. -1.
         22   -1    0    0    0    0 -0.00000000000E+00 -0.00000000000E+00 -0.11823634749E+03  0.11823634749E+03  0.00000000000E+00 0.  1.
        -24    2    1    2    0    0  0.11270380087E+02 -0.10916551835E+02 -0.31683255279E+02  0.87549799616E+02  0.80093359128E+02 0.  0.
         25    2    1    2    0    0 -0.73399633365E+02 -0.33745074311E+02  0.40663728225E+02  0.15436126749E+03  0.12509047082E+03 0.  0.
         24    2    1    2    0    0  0.62129253279E+02  0.44661626146E+02  0.17376057788E+04  0.17411478796E+04  0.80420092099E+02 0.  0.
        -11    1    5    5    0    0  0.55447189234E+01  0.12185757816E+02  0.37983041499E+02  0.40273416084E+02  0.00000000000E+00 0.  1.
         12    1    5    5    0    0  0.56584534355E+02  0.32475868330E+02  0.16996227373E+04  0.17008744635E+04  0.00000000000E+00 0. -1.
         13    1    3    3    0    0 -0.15689288054E+02  0.20521146580E+02  0.11000757542E+02  0.28076464932E+02  0.00000000000E+00 0. -1.
        -14    1    3    3    0    0  0.26959668141E+02 -0.31437698415E+02 -0.42684012820E+02  0.59473334683E+02  0.00000000000E+00 0.  1.
          5    1    4    4  501    0 -0.64203717324E+02  0.50444283835E+01  0.76854242926E+02  0.10035741443E+03  0.41800000000E+01 0.  1.
         -5    1    4    4    0  501 -0.91959160418E+01 -0.38789502694E+02 -0.36190514701E+02  0.54003853061E+02  0.41800000000E+01 0.  1.
</event>
<event>
11    1  0.8299058E-009  0.2193463E+03  0.7561462E-02  0.1041628E+00
         22   -1    0    0    0    0  0.00000000000E+00  0.00000000000E+00  0.18172991647E+03  0.18172991647E+03  0.00000000000E+00 0.  1.
         22   -1    0    0    0    0 -0.00000000000E+00 -0.00000000000E+00 -0.53018569256E+03  0.53018569256E+03  0.00000000000E+00 0.  1.
         24    2    1    2    0    0 -0.16290658117E+02 -0.23683665696E+02 -0.96880256132E+02  0.12919864359E+03  0.80499713752E+02 0.  0.
         25    2    1    2    0    0 -0.72128320044E+02  0.17804631868E+03 -0.30405831866E+03  0.38079032639E+03  0.12508727106E+03 0.  0.
        -24    2    1    2    0    0  0.88418978161E+02 -0.15436265298E+03  0.52482798698E+02  0.20192663905E+03  0.79838456038E+02 0.  0.
        -13    1    3    3    0    0 -0.20804743525E+02  0.24302859052E+02 -0.17861055065E+02  0.36639918113E+02  0.00000000000E+00 0.  1.
         14    1    3    3    0    0  0.45140854082E+01 -0.47986524748E+02 -0.79019201067E+02  0.92558725476E+02  0.00000000000E+00 0. -1.
         13    1    5    5    0    0  0.19119166005E+02 -0.18729530473E+02  0.41288270613E+02  0.49204259070E+02  0.00000000000E+00 0. -1.
        -14    1    5    5    0    0  0.69299812156E+02 -0.13563312251E+03  0.11194528085E+02  0.15272237998E+03  0.00000000000E+00 0.  1.
          5    1    4    4  501    0  0.20207478172E+02  0.11538319210E+03 -0.16627803815E+03  0.20343913480E+03  0.41800000000E+01 0.  1.
         -5    1    4    4    0  501 -0.92335798217E+02  0.62663126575E+02 -0.13778028050E+03  0.17735119159E+03  0.41800000000E+01 0.  1.
</event>
<event>
11    1  0.8299058E-009  0.1591097E+03  0.7561462E-02  0.1087918E+00
         22   -1    0    0    0    0  0.00000000000E+00  0.00000000000E+00  0.15642625382E+03  0.15642625382E+03  0.00000000000E+00 0. -1.
         22   -1    0    0    0    0 -0.00000000000E+00 -0.00000000000E+00 -0.14843996031E+04  0.14843996031E+04  0.00000000000E+00 0. -1.
        -24    2    1    2    0    0 -0.16074917282E+02  0.20580131042E+02 -0.93048843157E+03  0.93493111973E+03  0.87209704776E+02 0.  0.
         25    2    1    2    0    0 -0.22499666337E+02 -0.11031505301E+03 -0.50993295166E+03  0.53698740004E+03  0.12509279238E+03 0.  0.
         24    2    1    2    0    0  0.38574583619E+02  0.89734921969E+02  0.11244803396E+03  0.16890733713E+03  0.79654086337E+02 0.  0.
        -13    1    5    5    0    0 -0.11379729008E+02  0.55190702291E+02  0.23170144248E+02  0.60929200193E+02  0.00000000000E+00 0.  1.
         14    1    5    5    0    0  0.49954312627E+02  0.34544219678E+02  0.89277889716E+02  0.10797813693E+03  0.00000000000E+00 0. -1.
         11    1    3    3    0    0  0.89469201358E+01  0.23419163027E+02 -0.85471776077E+03  0.85508534963E+03  0.00000000000E+00 0. -1.
        -12    1    3    3    0    0 -0.25021837418E+02 -0.28390319846E+01 -0.75770670797E+02  0.79845770103E+02  0.00000000000E+00 0.  1.
          5    1    4    4  501    0 -0.17999083602E+02 -0.20324242310E+01 -0.30107442680E+03  0.30164777578E+03  0.41800000000E+01 0. -1.
         -5    1    4    4    0  501 -0.45005827352E+01 -0.10828262878E+03 -0.20885852486E+03  0.23533962426E+03  0.41800000000E+01 0. -1.
</event>
<event>
11    1  0.8299058E-009  0.1538683E+03  0.7561462E-02  0.1092990E+00
         22   -1    0    0    0    0  0.00000000000E+00  0.00000000000E+00  0.25007757977E+03  0.25007757977E+03  0.00000000000E+00 0.  1.
         22   -1    0    0    0    0 -0.00000000000E+00 -0.00000000000E+00 -0.60112992342E+03  0.60112992342E+03  0.00000000000E+00 0.  1.
         24    2    1    2    0    0  0.11615580748E+02  0.86672255367E+02 -0.38637223654E+03  0.40497000610E+03  0.84084476003E+02 0.  0.
         25    2    1    2    0    0 -0.56494185464E+01 -0.96977347570E+02 -0.16715393051E+03  0.23026728312E+03  0.12508422490E+03 0.  0.
        -24    2    1    2    0    0 -0.59661622021E+01  0.10305092202E+02  0.20247382340E+03  0.21597021397E+03  0.74200364866E+02 0.  0.
        -13    1    3    3    0    0  0.21544866257E+02  0.61757806450E+02 -0.11519118793E+03  0.13246591145E+03  0.00000000000E+00 0.  1.
         14    1    3    3    0    0 -0.99292855090E+01  0.24914448918E+02 -0.27118104861E+03  0.27250409465E+03  0.00000000000E+00 0. -1.
         13    1    5    5    0    0  0.38921754346E+01 -0.21920747083E+02  0.18533461416E+02  0.28968213172E+02  0.00000000000E+00 0. -1.
        -14    1    5    5    0    0 -0.98583376368E+01  0.32225839285E+02  0.18394036198E+03  0.18700200080E+03  0.00000000000E+00 0.  1.
          5    1    4    4  501    0 -0.64540092161E+02 -0.61831537250E+02 -0.10011593624E+03  0.13427298904E+03  0.41800000000E+01 0. -1.
         -5    1    4    4    0  501  0.58890673614E+02 -0.35145810319E+02 -0.67037994264E+02  0.95994294084E+02  0.41800000000E+01 0. -1.
</event>
<event>
11    1  0.8299058E-009  0.1441842E+03  0.7561462E-02  0.1102974E+00
         22   -1    0    0    0    0  0.00000000000E+00  0.00000000000E+00  0.81958452802E+03  0.81958452802E+03  0.00000000000E+00 0. -1.
         22   -1    0    0    0    0 -0.00000000000E+00 -0.00000000000E+00 -0.20117454330E+03  0.20117454330E+03  0.00000000000E+00 0. -1.
        -24    2    1    2    0    0  0.27625638329E+02 -0.31010344378E+02 -0.14611854139E+03  0.17203793856E+03  0.80756466084E+02 0.  0.
         25    2    1    2    0    0 -0.96381142979E+02  0.26292874688E+02  0.13264969978E+03  0.20790489925E+03  0.12509142376E+03 0.  0.
         24    2    1    2    0    0  0.68755504650E+02  0.47174696902E+01  0.63187882633E+03  0.64081623352E+03  0.81394226107E+02 0.  0.
        -13    1    5    5    0    0 -0.98298024333E+01  0.23017475048E+02  0.18861934507E+03  0.19027266359E+03  0.00000000000E+00 0.  1.
         14    1    5    5    0    0  0.78585307084E+02 -0.18300005358E+02  0.44325948126E+03  0.45054356993E+03  0.00000000000E+00 0. -1.
         13    1    3    3    0    0 -0.53701461307E+01  0.25110495916E+02 -0.39376471577E+02  0.47009381920E+02  0.00000000000E+00 0. -1.
        -14    1    3    3    0    0  0.32995784460E+02 -0.56120840294E+02 -0.10674206981E+03  0.12502855664E+03  0.00000000000E+00 0.  1.
          5    1    4    4  501    0 -0.80609660595E+02  0.68272675358E+02  0.57637997691E+02  0.12041049273E+03  0.41800000000E+01 0. -1.
         -5    1    4    4    0  501 -0.15771482384E+02 -0.41979800670E+02  0.75011702093E+02  0.87494406517E+02  0.41800000000E+01 0. -1.
</event>
<event>
11    1  0.8299058E-009  0.1560745E+03  0.7561462E-02  0.1090829E+00
         22   -1    0    0    0    0  0.00000000000E+00  0.00000000000E+00  0.47776978785E+03  0.47776978785E+03  0.00000000000E+00 0. -1.
         22   -1    0    0    0    0 -0.00000000000E+00 -0.00000000000E+00 -0.13322596341E+04  0.13322596341E+04  0.00000000000E+00 0. -1.
         24    2    1    2    0    0  0.20011896366E+02 -0.20141933861E+02 -0.12178609743E+04  0.12206819502E+04  0.77928796434E+02 0.  0.
         25    2    1    2    0    0 -0.91130552734E+02  0.76975031073E+02 -0.31816921508E+02  0.17575558114E+03  0.12509106586E+03 0.  0.
        -24    2    1    2    0    0  0.71118656368E+02 -0.56833097212E+02  0.39518804958E+03  0.41359189059E+03  0.81220645176E+02 0.  0.
        -11    1    3    3    0    0  0.62888196471E+01  0.30118409963E+02 -0.42787046346E+03  0.42897529226E+03  0.00000000000E+00 0.  1.
         12    1    3    3    0    0  0.13723076719E+02 -0.50260343824E+02 -0.78999051089E+03  0.79170665798E+03  0.00000000000E+00 0. -1.
         13    1    5    5    0    0  0.53999421185E+02 -0.64910131702E+02  0.38015697071E+03  0.38942083286E+03  0.00000000000E+00 0. -1.
        -14    1    5    5    0    0  0.17119235184E+02  0.80770344901E+01  0.15031078868E+02  0.24171057721E+02  0.00000000000E+00 0.  1.
          5    1    4    4  501    0 -0.50613837233E+02  0.10091915268E+03  0.89766462992E+01  0.11333352759E+03  0.41800000000E+01 0.  1.
         -5    1    4    4    0  501 -0.40516715501E+02 -0.23944121610E+02 -0.40793567807E+02  0.62422053548E+02  0.41800000000E+01 0.  1.
</event>
<event>
11    1  0.8299058E-009  0.1618096E+03  0.7561462E-02  0.1085387E+00
         22   -1    0    0    0    0  0.00000000000E+00  0.00000000000E+00  0.29118085145E+04  0.29118085145E+04  0.00000000000E+00 0.  1.
         22   -1    0    0    0    0 -0.00000000000E+00 -0.00000000000E+00 -0.70638632574E+03  0.70638632574E+03  0.00000000000E+00 0. -1.
         24    2    1    2    0    0 -0.75488089950E+02 -0.70640874772E+02 -0.63405723841E+03  0.64746982193E+03  0.80622601186E+02 0.  0.
         25    2    1    2    0    0  0.22043303819E+02  0.10753818324E+03  0.42397422318E+02  0.17174216935E+03  0.12508982060E+03 0.  0.
        -24    2    1    2    0    0  0.53444786131E+02 -0.36897308464E+02  0.27970820048E+04  0.27989828489E+04  0.80121721720E+02 0.  0.
        -13    1    3    3    0    0 -0.30377159716E+02  0.17664088437E+01 -0.61759294610E+02  0.68848402329E+02  0.00000000000E+00 0.  1.
         14    1    3    3    0    0 -0.45110930235E+02 -0.72407283616E+02 -0.57229794380E+03  0.57862141960E+03  0.00000000000E+00 0. -1.
         11    1    5    5    0    0  0.26477545191E+02 -0.58525887306E+02  0.13995913789E+04  0.14010647265E+04  0.00000000000E+00 0. -1.
        -12    1    5    5    0    0  0.26967240940E+02  0.21628578842E+02  0.13974906259E+04  0.13979181224E+04  0.00000000000E+00 0.  1.
          5    1    4    4  501    0  0.49414671246E+02  0.10531311201E+03  0.67279628581E+02  0.13444955232E+03  0.41800000000E+01 0. -1.
         -5    1    4    4    0  501 -0.27371367427E+02  0.22250712257E+01 -0.24882206264E+02  0.37292617035E+02  0.41800000000E+01 0. -1.
</event>
<event>
11    1  0.8299058E-009  0.1569881E+03  0.7561462E-02  0.1089945E+00
         22   -1    0    0    0    0  0.00000000000E+00  0.00000000000E+00  0.54992496525E+03  0.54992496525E+03  0.00000000000E+00 0. -1.
         22   -1    0    0    0    0 -0.00000000000E+00 -0.00000000000E+00 -0.33341218817E+03  0.33341218817E+03  0.00000000000E+00 0. -1.
        -24    2    1    2    0    0 -0.15304629927E+02 -0.14190479031E+02 -0.20850371355E+03  0.22468291821E+03  0.81074125208E+02 0.  0.
         25    2    1    2    0    0  0.50082354445E+02  0.10098175691E+03 -0.43070068647E+02  0.17380529949E+03  0.12509074252E+03 0.  0.
         24    2    1    2    0    0 -0.34777724518E+02 -0.86791277878E+02  0.46808655928E+03  0.48484893571E+03  0.85036741739E+02 0.  0.
        -13    1    5    5    0    0  0.24156925225E+02 -0.41598931883E+02  0.12783137348E+03  0.13658289870E+03  0.00000000000E+00 0.  1.
         14    1    5    5    0    0 -0.58934649743E+02 -0.45192345995E+02  0.34025518579E+03  0.34826603701E+03  0.00000000000E+00 0. -1.
         11    1    3    3    0    0  0.19348094895E+02 -0.24504573666E+02 -0.16586928820E+03  0.16878223744E+03  0.00000000000E+00 0. -1.
        -12    1    3    3    0    0 -0.34652724822E+02  0.10314094635E+02 -0.42634425354E+02  0.55900680774E+02  0.00000000000E+00 0.  1.
          5    1    4    4  501    0 -0.38713571822E+02  0.83310582292E+01 -0.69440462774E+01  0.40420778730E+02  0.41800000000E+01 0.  1.
         -5    1    4    4    0  501  0.88795926267E+02  0.92650698680E+02 -0.36126022369E+02  0.13338452076E+03  0.41800000000E+01 0.  1.
</event>
<event>
11    1  0.8299058E-009  0.1522857E+03  0.7561462E-02  0.1094566E+00
         22   -1    0    0    0    0  0.00000000000E+00  0.00000000000E+00  0.35236030267E+02  0.35236030267E+02  0.00000000000E+00 0. -1.
         22   -1    0    0    0    0 -0.00000000000E+00 -0.00000000000E+00 -0.25641840011E+04  0.25641840011E+04  0.00000000000E+00 0.  1.
        -24    2    1    2    0    0 -0.71714594685E+02 -0.26952048858E+02 -0.16013453775E+04  0.16051956794E+04  0.80478290334E+02 0.  0.
         25    2    1    2    0    0  0.13156577473E+03  0.61299969304E+02 -0.83072547688E+03  0.85253776099E+03  0.12509427108E+03 0.  0.
         24    2    1    2    0    0 -0.59851180041E+02 -0.34347920446E+02 -0.96877116497E+02  0.14168659099E+03  0.76993317716E+02 0.  0.
        -13    1    5    5    0    0 -0.57877876779E+01  0.11669218885E+02 -0.60552329986E+02  0.61937499322E+02  0.00000000000E+00 0.  1.
         14    1    5    5    0    0 -0.54063392363E+02 -0.46017139330E+02 -0.36324786512E+02  0.79749091663E+02  0.00000000000E+00 0. -1.
         11    1    3    3    0    0 -0.99797283916E+01  0.26834789747E+02 -0.49237112306E+03  0.49320282212E+03  0.00000000000E+00 0. -1.
        -12    1    3    3    0    0 -0.61734866293E+02 -0.53786838605E+02 -0.11089742544E+04  0.11119928573E+04  0.00000000000E+00 0.  1.
          5    1    4    4  501    0  0.63772901442E+02  0.92997720432E+02 -0.57886287916E+03  0.58975864913E+03  0.41800000000E+01 0. -1.
         -5    1    4    4    0  501  0.67792873284E+02 -0.31697751128E+02 -0.25186259772E+03  0.26277911185E+03  0.41800000000E+01 0. -1.
</event>
<event>
11    1  0.8299058E-009  0.1553760E+03  0.7561462E-02  0.1091509E+00
         22   -1    0    0    0    0  0.00000000000E+00  0.00000000000E+00  0.82262948530E+03  0.82262948530E+03  0.00000000000E+00 0. -1.
         22   -1    0    0    0    0 -0.00000000000E+00 -0.00000000000E+00 -0.12053190040E+04  0.12053190040E+04  0.00000000000E+00 0. -1.
         24    2    1    2    0    0 -0.55502654493E+02  0.74545205156E+02 -0.94266302156E+03  0.95058834562E+03  0.79794099672E+02 0.  0.
         25    2    1    2    0    0  0.86535578966E+02 -0.42744907197E+02 -0.23157769556E+03  0.28034007817E+03  0.12508715695E+03 0.  0.
        -24    2    1    2    0    0 -0.31032924473E+02 -0.31800297958E+02  0.79155119837E+03  0.79702006555E+03  0.81935242147E+02 0.  0.
        -13    1    3    3    0    0  0.76353704892E+01  0.41155678165E+02 -0.19063754499E+03  0.19517879569E+03  0.00000000000E+00 0.  1.
         14    1    3    3    0    0 -0.63138024982E+02  0.33389526991E+02 -0.75202547658E+03  0.75540954993E+03  0.00000000000E+00 0. -1.
         13    1    5    5    0    0 -0.50239794687E+02 -0.41876545251E+01  0.62946739445E+03  0.63148299589E+03  0.00000000000E+00 0. -1.
        -14    1    5    5    0    0  0.19206870214E+02 -0.27612643433E+02  0.16208380392E+03  0.16553706966E+03  0.00000000000E+00 0.  1.
          5    1    4    4  501    0  0.11130314081E+03 -0.31344951213E+02 -0.12535262154E+03  0.17059204919E+03  0.41800000000E+01 0.  1.
         -5    1    4    4    0  501 -0.24767561842E+02 -0.11399955984E+02 -0.10622507401E+03  0.10974802898E+03  0.41800000000E+01 0.  1.
</event>
<event>
11    1  0.8299058E-009  0.1423271E+03  0.7561462E-02  0.1104987E+00
         22   -1    0    0    0    0  0.00000000000E+00  0.00000000000E+00  0.94557757953E+03  0.94557757953E+03  0.00000000000E+00 0. -1.
         22   -1    0    0    0    0 -0.00000000000E+00 -0.00000000000E+00 -0.65354439445E+03  0.65354439445E+03  0.00000000000E+00 0. -1.
        -24    2    1    2    0    0 -0.54378499528E+02 -0.40753141646E+02 -0.61493932702E+03  0.62392559718E+03  0.80715148087E+02 0.  0.
         25    2    1    2    0    0  0.32960986002E+02  0.65258939592E+02  0.13401921680E+03  0.19736640649E+03  0.12508873708E+03 0.  0.
         24    2    1    2    0    0  0.21417513526E+02 -0.24505797946E+02  0.77295329530E+03  0.77782997030E+03  0.80643796803E+02 0.  0.
        -13    1    5    5    0    0  0.58552450525E+01 -0.35112945933E+01  0.30405444145E+01  0.74738206215E+01  0.00000000000E+00 0.  1.
         14    1    5    5    0    0  0.15562268474E+02 -0.20994503352E+02  0.76991275089E+03  0.77035614968E+03  0.00000000000E+00 0. -1.
         11    1    3    3    0    0 -0.26948849791E+02 -0.60937309940E+02 -0.48676585658E+03  0.49130499222E+03  0.00000000000E+00 0. -1.
        -12    1    3    3    0    0 -0.27429649737E+02  0.20184168294E+02 -0.12817347045E+03  0.13262060496E+03  0.00000000000E+00 0.  1.
          5    1    4    4  501    0  0.37767241590E+02  0.45769529506E+02  0.15620986909E+03  0.16715325295E+03  0.41800000000E+01 0.  1.
         -5    1    4    4    0  501 -0.48062555882E+01  0.19489410086E+02 -0.22190652288E+02  0.30213153547E+02  0.41800000000E+01 0.  1.
</event>
<event>
11    1  0.8299058E-009  0.1406747E+03  0.7561462E-02  0.1106807E+00
         22   -1    0    0    0    0  0.00000000000E+00  0.00000000000E+00  0.12146900318E+03  0.12146900318E+03  0.00000000000E+00 0. -1.
         22   -1    0    0    0    0 -0.00000000000E+00 -0.00000000000E+00 -0.13231207226E+04  0.13231207226E+04  0.00000000000E+00 0.  1.
        -24    2    1    2    0    0 -0.73573928579E+02  0.16997695008E+02 -0.96086749679E+03  0.96714860771E+03  0.80050224264E+02 0.  0.
         25    2    1    2    0    0  0.20216863035E+02 -0.94936121303E+01 -0.32611474698E+03  0.34999870101E+03  0.12509761103E+03 0.  0.
         24    2    1    2    0    0  0.53357065544E+02 -0.75040828782E+01  0.85330524354E+02  0.12744241707E+03  0.77826625126E+02 0.  0.
        -11    1    5    5    0    0  0.20355582405E+02  0.13542971096E+02 -0.84123903998E+01  0.25855949284E+02  0.00000000000E+00 0.  1.
         12    1    5    5    0    0  0.33001483139E+02 -0.21047053975E+02  0.93742914754E+02  0.10158646778E+03  0.00000000000E+00 0. -1.
         11    1    3    3    0    0 -0.29945599347E+02  0.32411629432E+02 -0.19703665802E+03  0.20191755062E+03  0.00000000000E+00 0. -1.
        -12    1    3    3    0    0 -0.43628329232E+02 -0.15413934423E+02 -0.76383083876E+03  0.76523105709E+03  0.00000000000E+00 0.  1.
          5    1    4    4  501    0 -0.33541963985E+02  0.23087541923E+02 -0.23906011011E+03  0.24253928875E+03  0.41800000000E+01 0. -1.
         -5    1    4    4    0  501  0.53758827020E+02 -0.32581154053E+02 -0.87054636871E+02  0.10745941226E+03  0.41800000000E+01 0. -1.
</event>
<event>
11    1  0.8299058E-009  0.1669135E+03  0.7561462E-02  0.1080749E+00
         22   -1    0    0    0    0  0.00000000000E+00  0.00000000000E+00  0.28221486236E+04  0.28221486236E+04  0.00000000000E+00 0. -1.
         22   -1    0    0    0    0 -0.00000000000E+00 -0.00000000000E+00 -0.22655961437E+03  0.22655961437E+03  0.00000000000E+00 0.  1.
         24    2    1    2    0    0  0.15315344579E+02  0.10574102956E+03 -0.16527290719E+03  0.21272695835E+03  0.80758280354E+02 0.  0.
         25    2    1    2    0    0 -0.47213055364E+02 -0.14644455100E+03  0.23151036758E+03  0.30482734511E+03  0.12509029103E+03 0.  0.
        -24    2    1    2    0    0  0.31897710785E+02  0.40703521442E+02  0.25293515489E+04  0.25311539346E+04  0.80291606224E+02 0.  0.
        -13    1    3    3    0    0 -0.17156646700E+02  0.33698817913E+02 -0.10993052936E+03  0.11625266508E+03  0.00000000000E+00 0.  1.
         14    1    3    3    0    0  0.32471991279E+02  0.72042211650E+02 -0.55342377835E+02  0.96474293267E+02  0.00000000000E+00 0. -1.
         13    1    5    5    0    0  0.54972967811E+02  0.15690391401E+02  0.19217214028E+04  0.19225715502E+04  0.00000000000E+00 0. -1.
        -14    1    5    5    0    0 -0.23075257027E+02  0.25013130041E+02  0.60763014607E+03  0.60858238438E+03  0.00000000000E+00 0.  1.
          5    1    4    4  501    0 -0.13494602622E+02 -0.15605779822E+03  0.15424224016E+03  0.21987333112E+03  0.41800000000E+01 0. -1.
         -5    1    4    4    0  501 -0.33718452742E+02  0.96132472186E+01  0.77268127424E+02  0.84954013990E+02  0.41800000000E+01 0. -1.
</event>
<event>
11    1  0.8508615E-009  0.1567645E+03  0.7561462E-02  0.1090161E+00
         22   -1    0    0    0    0  0.00000000000E+00  0.00000000000E+00  0.36745361675E+03  0.36745361675E+03  0.00000000000E+00 0. -1.
         22   -1    0    0    0    0 -0.00000000000E+00 -0.00000000000E+00 -0.16992368035E+04  0.16992368035E+04  0.00000000000E+00 0.  1.
         24    2    1    2    0    0  0.94769474887E+02 -0.16998917949E+02 -0.13348449411E+04  0.13407728090E+04  0.81181846540E+02 0.  0.
         25    2    1    2    0    0 -0.90780621980E+02 -0.60625726329E+02 -0.33284745998E+03  0.37195580858E+03  0.12508833640E+03 0.  0.
        -24    2    1    2    0    0 -0.39888529066E+01  0.77624644278E+02  0.33590921427E+03  0.35396180265E+03  0.80077844351E+02 0.  0.
        -11    1    3    3    0    0  0.32446326098E+02  0.21668677595E+02 -0.21378345214E+03  0.21731465683E+03  0.00000000000E+00 0.  1.
         12    1    3    3    0    0  0.62323148789E+02 -0.38667595544E+02 -0.11210614889E+04  0.11234581522E+04  0.00000000000E+00 0. -1.
         13    1    5    5    0    0 -0.16329548276E+02  0.26207161804E+02  0.25776787580E+03  0.25961076108E+03  0.00000000000E+00 0. -1.
        -14    1    5    5    0    0  0.12340695369E+02  0.51417482474E+02  0.78141338469E+02  0.94351041562E+02  0.00000000000E+00 0.  1.
          5    1    4    4  501    0 -0.11895918324E+03 -0.62863859870E+02 -0.29723761232E+03  0.32629867106E+03  0.41800000000E+01 0.  1.
         -5    1    4    4    0  501  0.28178561264E+02  0.22381335411E+01 -0.35609847658E+02  0.45657137524E+02  0.41800000000E+01 0.  1.
</event>
<event>
11    1  0.8299058E-009  0.1300219E+03  0.7561462E-02  0.1119242E+00
         22   -1    0    0    0    0  0.00000000000E+00  0.00000000000E+00  0.15431993005E+04  0.15431993005E+04  0.00000000000E+00 0.  1.
         22   -1    0    0    0    0 -0.00000000000E+00 -0.00000000000E+00 -0.42488187985E+03  0.42488187985E+03  0.00000000000E+00 0. -1.
         24    2    1    2    0    0 -0.30191015179E+02  0.18813632275E+02 -0.41248928473E+03  0.42156137885E+03  0.79379694889E+02 0.  0.
         25    2    1    2    0    0  0.32382044384E+02 -0.24885656706E+01  0.72805121738E+03  0.73942989653E+03  0.12507280673E+03 0.  0.
        -24    2    1    2    0    0 -0.21910292049E+01 -0.16325066604E+02  0.80275548804E+03  0.80708990502E+03  0.81892812828E+02 0.  0.
        -11    1    3    3    0    0  0.23458394184E+02 -0.90513255403E+01 -0.15813278042E+03  0.16011932737E+03  0.00000000000E+00 0.  1.
         12    1    3    3    0    0 -0.53649409363E+02  0.27864957815E+02 -0.25435650431E+03  0.26144205148E+03  0.00000000000E+00 0. -1.
         13    1    5    5    0    0  0.37549842811E+02  0.38120275828E+01  0.30014480721E+03  0.30250855781E+03  0.00000000000E+00 0. -1.
        -14    1    5    5    0    0 -0.39740872015E+02 -0.20137094187E+02  0.50261068083E+03  0.50458134721E+03  0.00000000000E+00 0.  1.
          5    1    4    4  501    0  0.19159299122E+02  0.58961330687E+02  0.45394767291E+03  0.45818061875E+03  0.41800000000E+01 0. -1.
         -5    1    4    4    0  501  0.13222745262E+02 -0.61449896357E+02  0.27410354447E+03  0.28124927777E+03  0.41800000000E+01 0. -1.
</event>
<event>
11    1  0.8299058E-009  0.1371113E+03  0.7561462E-02  0.1110828E+00
         22   -1    0    0    0    0  0.00000000000E+00  0.00000000000E+00  0.38283853481E+03  0.38283853481E+03  0.00000000000E+00 0. -1.
         22   -1    0    0    0    0 -0.00000000000E+00 -0.00000000000E+00 -0.19624659637E+04  0.19624659637E+04  0.00000000000E+00 0. -1.
        -24    2    1    2    0    0  0.52373941584E+02 -0.16198875649E+02 -0.17979824463E+04  0.18005827298E+04  0.79698534386E+02 0.  0.
         25    2    1    2    0    0 -0.94026783493E+02  0.21608726980E+02 -0.11752998001E+03  0.19690000142E+03  0.12509333021E+03 0.  0.
         24    2    1    2    0    0  0.41652841909E+02 -0.54098513310E+01  0.33588499747E+03  0.34782176721E+03  0.79981400885E+02 0.  0.
        -11    1    5    5    0    0  0.33859214056E+02  0.33484998840E+02  0.22687038491E+03  0.23181428574E+03  0.00000000000E+00 0.  1.
         12    1    5    5    0    0  0.77936278522E+01 -0.38894850171E+02  0.10901461257E+03  0.11600748148E+03  0.00000000000E+00 0. -1.
         11    1    3    3    0    0  0.58266745202E+02 -0.16759417778E+01 -0.68095644858E+03  0.68344678449E+03  0.00000000000E+00 0. -1.
        -12    1    3    3    0    0 -0.58928036175E+01 -0.14522933871E+02 -0.11170259977E+04  0.11171359453E+04  0.00000000000E+00 0.  1.
          5    1    4    4  501    0 -0.92373513014E+01 -0.41893889569E+02 -0.68617701883E+01  0.43646110164E+02  0.41800000000E+01 0. -1.
         -5    1    4    4    0  501 -0.84789432192E+02  0.63502616549E+02 -0.11066820982E+03  0.15325389125E+03  0.41800000000E+01 0. -1.
</event>
<event>
11    1  0.8299058E-009  0.1403788E+03  0.7561462E-02  0.1107136E+00
         22   -1    0    0    0    0  0.00000000000E+00  0.00000000000E+00  0.13636649683E+03  0.13636649683E+03  0.00000000000E+00 0. -1.
         22   -1    0    0    0    0 -0.00000000000E+00 -0.00000000000E+00 -0.32578979136E+03  0.32578979136E+03  0.00000000000E+00 0. -1.
         24    2    1    2    0    0  0.76453691259E+02 -0.23542259879E+01 -0.19985675929E+03  0.22751487344E+03  0.77263083782E+02 0.  0.
         25    2    1    2    0    0 -0.12444632900E+02 -0.12232928814E+02 -0.16140327471E+02  0.12732964712E+03  0.12509122843E+03 0.  0.
        -24    2    1    2    0    0 -0.64009058359E+02  0.14587154802E+02  0.26573792238E+02  0.10731176762E+03  0.80620744224E+02 0.  0.
        -13    1    3    3    0    0  0.22096152244E+02 -0.31556256362E+02 -0.37221982745E+02  0.53567837917E+02  0.00000000000E+00 0.  1.
         14    1    3    3    0    0  0.54357539015E+02  0.29202030374E+02 -0.16263477655E+03  0.17394703553E+03  0.00000000000E+00 0. -1.
         13    1    5    5    0    0 -0.25799504373E+02 -0.12467904541E+01  0.52491116703E+02  0.58502019154E+02  0.00000000000E+00 0. -1.
        -14    1    5    5    0    0 -0.38209553986E+02  0.15833945256E+02 -0.25917324465E+02  0.48809748470E+02  0.00000000000E+00 0.  1.
          5    1    4    4  501    0  0.22171098473E+02  0.68970975722E+01  0.47068440946E+02  0.52650148105E+02  0.41800000000E+01 0. -1.
         -5    1    4    4    0  501 -0.34615731373E+02 -0.19130026386E+02 -0.63208768417E+02  0.74679499013E+02  0.41800000000E+01 0. -1.
</event>
<event>
11    1  0.8299058E-009  0.3900366E+03  0.7561462E-02  0.9679622E-01
         22   -1    0    0    0    0  0.00000000000E+00  0.00000000000E+00  0.23747140749E+04  0.23747140749E+04  0.00000000000E+00 0.  1.
         22   -1    0    0    0    0 -0.00000000000E+00 -0.00000000000E+00 -0.30543103353E+03  0.30543103353E+03  0.00000000000E+00 0. -1.
        -24    2    1    2    0    0  0.61692722820E+01 -0.10751563239E+03 -0.11530101137E+03  0.17659564773E+03  0.79334913146E+02 0.  0.
         25    2    1    2    0    0 -0.32625956976E+03  0.27910244842E+03  0.20964394199E+03  0.49390400677E+03  0.12508837640E+03 0.  0.
         24    2    1    2    0    0  0.32009029748E+03 -0.17158681603E+03  0.19749401107E+04  0.20096454539E+04  0.79916052614E+02 0.  0.
        -11    1    5    5    0    0  0.30359191586E+03 -0.17037650801E+03  0.19399801744E+04  0.19709691228E+04  0.00000000000E+00 0.  1.
         12    1    5    5    0    0  0.16498381625E+02 -0.12103080165E+01  0.34959936300E+02  0.38676331106E+02  0.00000000000E+00 0. -1.
         13    1    3    3    0    0  0.19090097369E+02 -0.55731916738E+02 -0.10760041596E+03  0.12267162620E+03  0.00000000000E+00 0. -1.
        -14    1    3    3    0    0 -0.12920825087E+02 -0.51783715652E+02 -0.77005954143E+01  0.53924021525E+02  0.00000000000E+00 0.  1.
          5    1    4    4  501    0 -0.32882556513E+02  0.90760063542E+02  0.64905679175E+02  0.11639961875E+03  0.41800000000E+01 0. -1.
         -5    1    4    4    0  501 -0.29337701325E+03  0.18834238488E+03  0.14473826282E+03  0.37750438801E+03  0.41800000000E+01 0. -1.
</event>
<event>
11    1  0.8299058E-009  0.1440602E+03  0.7561462E-02  0.1103107E+00
         22   -1    0    0    0    0  0.00000000000E+00  0.00000000000E+00  0.18590571858E+03  0.18590571858E+03  0.00000000000E+00 0.  1.
         22   -1    0    0    0    0 -0.00000000000E+00 -0.00000000000E+00 -0.87627117920E+03  0.87627117920E+03  0.00000000000E+00 0.  1.
         24    2    1    2    0    0 -0.48097827166E+02 -0.49985525510E+02 -0.71402046887E+03  0.72196107704E+03  0.81182590899E+02 0.  0.
         25    2    1    2    0    0  0.39188283872E+02  0.93833216647E+02 -0.97018974790E+02  0.18814605884E+03  0.12508342755E+03 0.  0.
        -24    2    1    2    0    0  0.89095432939E+01 -0.43847691138E+02  0.12067398305E+03  0.15206976190E+03  0.81000014322E+02 0.  0.
        -11    1    3    3    0    0 -0.50632460051E+02 -0.41346720546E+02 -0.70826579506E+03  0.71127606017E+03  0.00000000000E+00 0.  1.
         12    1    3    3    0    0  0.25346328847E+01 -0.86388049632E+01 -0.57546738053E+01  0.10685016877E+02  0.00000000000E+00 0. -1.
         11    1    5    5    0    0  0.29020033137E+02  0.22018796221E+01  0.10433478776E+02  0.30917116238E+02  0.00000000000E+00 0. -1.
        -12    1    5    5    0    0 -0.20110489843E+02 -0.46049570760E+02  0.11024050427E+03  0.12115264566E+03  0.00000000000E+00 0.  1.
          5    1    4    4  501    0  0.77499752280E+01  0.10903737998E+02 -0.98355429308E+02  0.99348963219E+02  0.41800000000E+01 0. -1.
         -5    1    4    4    0  501  0.31438308644E+02  0.82929478650E+02  0.13364545171E+01  0.88797095618E+02  0.41800000000E+01 0. -1.
</event>
<event>
11    1  0.8299058E-009  0.6632855E+03  0.7561462E-02  0.9088229E-01
         22   -1    0    0    0    0  0.00000000000E+00  0.00000000000E+00  0.82530168962E+03  0.82530168962E+03  0.00000000000E+00 0.  1.
         22   -1    0    0    0    0 -0.00000000000E+00 -0.00000000000E+00 -0.79992839342E+03  0.79992839342E+03  0.00000000000E+00 0.  1.
        -24    2    1    2    0    0 -0.57774221115E+03  0.26298316885E+03 -0.31848393104E+03  0.71477679142E+03  0.80793796729E+02 0.  0.
         25    2    1    2    0    0  0.66219058250E+03 -0.21334375242E+03  0.23604511915E+03  0.74523582037E+03  0.12508879022E+03 0.  0.
         24    2    1    2    0    0 -0.84448371358E+02 -0.49639416428E+02  0.10781210808E+03  0.16521747125E+03  0.77960009411E+02 0.  0.
        -13    1    5    5    0    0 -0.91959650005E+02 -0.45551586410E+02  0.64813515605E+02  0.12137675255E+03  0.00000000000E+00 0.  1.
         14    1    5    5    0    0  0.75112786464E+01 -0.40878300181E+01  0.42998592476E+02  0.43840718699E+02  0.00000000000E+00 0. -1.
         11    1    3    3    0    0 -0.24921804888E+03  0.88360481996E+02 -0.16904365259E+03  0.31383589206E+03  0.00000000000E+00 0. -1.
        -12    1    3    3    0    0 -0.32852416227E+03  0.17462268685E+03 -0.14944027844E+03  0.40094089936E+03  0.00000000000E+00 0.  1.
          5    1    4    4  501    0  0.19199671099E+03 -0.11849751963E+03  0.52877840700E+02  0.23177130458E+03  0.41800000000E+01 0.  1.
         -5    1    4    4    0  501  0.47019387151E+03 -0.94846232786E+02  0.18316727845E+03  0.51346451579E+03  0.41800000000E+01 0.  1.
</event>
<event>
11    1  0.8299058E-009  0.1318479E+03  0.7561462E-02  0.1117019E+00
         22   -1    0    0    0    0  0.00000000000E+00  0.00000000000E+00  0.24335856787E+03  0.24335856787E+03  0.00000000000E+00 0. -1.
         22   -1    0    0    0    0 -0.00000000000E+00 -0.00000000000E+00 -0.10536521387E+04  0.10536521387E+04  0.00000000000E+00 0.  1.
         24    2    1    2    0    0 -0.41007450160E+02 -0.46607967663E+01 -0.82143972089E+03  0.82630131140E+03  0.79418563143E+02 0.  0.
         25    2    1    2    0    0  0.45801531630E+02 -0.60206639351E+01 -0.20207651997E+03  0.24210758147E+03  0.12508849822E+03 0.  0.
        -24    2    1    2    0    0 -0.47940814706E+01  0.10681460701E+02  0.21322267002E+03  0.22860181371E+03  0.81595376096E+02 0.  0.
        -13    1    3    3    0    0 -0.44333228585E+02 -0.17143132840E+02 -0.79897282745E+03  0.80038547036E+03  0.00000000000E+00 0.  1.
         14    1    3    3    0    0  0.33257784251E+01  0.12482336074E+02 -0.22466893439E+02  0.25915841040E+02  0.00000000000E+00 0. -1.
         13    1    5    5    0    0  0.71597732484E+01  0.42487760091E+02  0.15794136024E+03  0.16371299699E+03  0.00000000000E+00 0. -1.
        -14    1    5    5    0    0 -0.11953854719E+02 -0.31806299389E+02  0.55281309779E+02  0.64888816713E+02  0.00000000000E+00 0.  1.
          5    1    4    4  501    0  0.83980139156E+02  0.66637409992E+01 -0.17244338419E+03  0.19196682622E+03  0.41800000000E+01 0. -1.
         -5    1    4    4    0  501 -0.38178607526E+02 -0.12684404934E+02 -0.29633135780E+02  0.50140755253E+02  0.41800000000E+01 0. -1.
</event>
<event>
11    1  0.8299058E-009  0.1426049E+03  0.7561462E-02  0.1104684E+00
         22   -1    0    0    0    0  0.00000000000E+00  0.00000000000E+00  0.10836597873E+04  0.10836597873E+04  0.00000000000E+00 0. -1.
         22   -1    0    0    0    0 -0.00000000000E+00 -0.00000000000E+00 -0.42535696001E+03  0.42535696001E+03  0.00000000000E+00 0. -1.
        -24    2    1    2    0    0 -0.27310920469E+02  0.66452591833E+02 -0.30572098625E+03  0.32434924466E+03  0.81088086278E+02 0.  0.
         25    2    1    2    0    0  0.26114467574E+01 -0.55534570669E+02 -0.65408492376E+02  0.15171558379E+03  0.12509372205E+03 0.  0.
         24    2    1    2    0    0  0.24699473712E+02 -0.10918021164E+02  0.10294323059E+04  0.10329519188E+04  0.80805488720E+02 0.  0.
        -11    1    5    5    0    0  0.34046048091E+02  0.41643420361E+01  0.17469089670E+03  0.17802635907E+03  0.00000000000E+00 0.  1.
         12    1    5    5    0    0 -0.93465743797E+01 -0.15082363200E+02  0.85474140919E+03  0.85492555975E+03  0.00000000000E+00 0. -1.
         13    1    3    3    0    0  0.75367860916E+01  0.25399203384E+02 -0.22950561654E+03  0.23102976150E+03  0.00000000000E+00 0. -1.
        -14    1    3    3    0    0 -0.34847706561E+02  0.41053388448E+02 -0.76215369715E+02  0.93319483156E+02  0.00000000000E+00 0.  1.
          5    1    4    4  501    0  0.93973715580E+01 -0.72710927217E+02 -0.92847085713E+02  0.11837754540E+03  0.41800000000E+01 0. -1.
         -5    1    4    4    0  501 -0.67859248006E+01  0.17176356548E+02  0.27438593336E+02  0.33338038394E+02  0.41800000000E+01 0. -1.
</event>
<event>
11    1  0.8299058E-009  0.1532517E+03  0.7561462E-02  0.1093602E+00
         22   -1    0    0    0    0  0.00000000000E+00  0.00000000000E+00  0.25020133567E+03  0.25020133567E+03  0.00000000000E+00 0. -1.
         22   -1    0    0    0    0 -0.00000000000E+00 -0.00000000000E+00 -0.12256412224E+04  0.12256412224E+04  0.00000000000E+00 0. -1.
        -24    2    1    2    0    0 -0.72903497427E+02  0.51071127104E+02 -0.89778573903E+03  0.90574169367E+03  0.80159855933E+02 0.  0.
         25    2    1    2    0    0  0.10233258513E+03  0.18160716196E+01 -0.29177988902E+03  0.33355307150E+03  0.12508753646E+03 0.  0.
         24    2    1    2    0    0 -0.29429087701E+02 -0.52887198724E+02  0.21412574129E+03  0.23654779292E+03  0.80261436935E+02 0.  0.
        -11    1    5    5    0    0 -0.14931020622E+02  0.85463867906E+01  0.47259706530E+01  0.17841269646E+02  0.00000000000E+00 0.  1.
         12    1    5    5    0    0 -0.14498067080E+02 -0.61433585514E+02  0.20939977064E+03  0.21870652327E+03  0.00000000000E+00 0. -1.
         11    1    3    3    0    0 -0.64497655920E+02  0.53025724503E+02 -0.89061740152E+03  0.89452279511E+03  0.00000000000E+00 0. -1.
        -12    1    3    3    0    0 -0.84058415070E+01 -0.19545973987E+01 -0.71683375021E+01  0.11218898563E+02  0.00000000000E+00 0.  1.
          5    1    4    4  501    0  0.23955232191E+02 -0.58031019062E+02 -0.11298354606E+03  0.12932210331E+03  0.41800000000E+01 0.  1.
         -5    1    4    4    0  501  0.78377352937E+02  0.59847090682E+02 -0.17879634295E+03  0.20423096820E+03  0.41800000000E+01 0.  1.
</event>
<event>
11    1  0.8299058E-009  0.2270805E+03  0.7561462E-02  0.1036871E+00
         22   -1    0    0    0    0  0.00000000000E+00  0.00000000000E+00  0.14413975482E+04  0.14413975482E+04  0.00000000000E+00 0. -1.
         22   -1    0    0    0    0 -0.00000000000E+00 -0.00000000000E+00 -0.12905125839E+03  0.12905125839E+03  0.00000000000E+00 0. -1.
         24    2    1    2    0    0  0.14767487952E+03  0.12826356792E+03 -0.31673646694E+01  0.21267644025E+03  0.83437540359E+02 0.  0.
         25    2    1    2    0    0 -0.12067439174E+03 -0.10188477190E+03  0.52608853330E+03  0.56334601404E+03  0.12508705407E+03 0.  0.
        -24    2    1    2    0    0 -0.27000487781E+02 -0.26378796018E+02  0.78942512115E+03  0.79442635227E+03  0.80599876228E+02 0.  0.
        -13    1    3    3    0    0 -0.47116265363E+01 -0.56636636540E+01  0.61369669842E+01  0.95884761234E+01  0.00000000000E+00 0.  1.
         14    1    3    3    0    0  0.15238650606E+03  0.13392723157E+03 -0.93043316537E+01  0.20308796413E+03  0.00000000000E+00 0. -1.
         13    1    5    5    0    0 -0.16341341211E+02  0.25881093082E+02  0.42725503382E+03  0.42835001382E+03  0.00000000000E+00 0. -1.
        -14    1    5    5    0    0 -0.10659146570E+02 -0.52259889100E+02  0.36217008733E+03  0.36607633845E+03  0.00000000000E+00 0.  1.
          5    1    4    4  501    0 -0.17468164674E+02 -0.94110918003E+02  0.21269741148E+03  0.23328022401E+03  0.41800000000E+01 0. -1.
         -5    1    4    4    0  501 -0.10320622707E+03 -0.77738538959E+01  0.31339112182E+03  0.33006579003E+03  0.41800000000E+01 0. -1.
</event>
<event>
11    1  0.8299058E-009  0.1331925E+03  0.7561462E-02  0.1115407E+00
         22   -1    0    0    0    0  0.00000000000E+00  0.00000000000E+00  0.81978210159E+02  0.81978210159E+02  0.00000000000E+00 0.  1.
         22   -1    0    0    0    0 -0.00000000000E+00 -0.00000000000E+00 -0.80448368044E+03  0.80448368044E+03  0.00000000000E+00 0. -1.
         24    2    1    2    0    0  0.36030979278E+02  0.27183201229E+02 -0.42646797662E+03  0.43657181128E+03  0.81748721232E+02 0.  0.
         25    2    1    2    0    0 -0.86122207340E+01 -0.58873065911E+02 -0.32643581576E+03  0.35460972831E+03  0.12509000505E+03 0.  0.
        -24    2    1    2    0    0 -0.27418758544E+02  0.31689864682E+02  0.30398322101E+02  0.95280351012E+02  0.79989070870E+02 0.  0.
        -13    1    3    3    0    0  0.54323412398E+01  0.11475095638E+02 -0.49089750418E+01  0.13611986894E+02  0.00000000000E+00 0.  1.
         14    1    3    3    0    0  0.30598638038E+02  0.15708105591E+02 -0.42155900158E+03  0.42295982439E+03  0.00000000000E+00 0. -1.
         13    1    5    5    0    0  0.22233910268E+02  0.31164048829E+02  0.25936026257E+01  0.38370189989E+02  0.00000000000E+00 0. -1.
        -14    1    5    5    0    0 -0.49652668812E+02  0.52581585250E+00  0.27804719475E+02  0.56910161022E+02  0.00000000000E+00 0.  1.
          5    1    4    4  501    0 -0.55559234850E+02  0.80949988440E+01 -0.12116980582E+03  0.13361119648E+03  0.41800000000E+01 0.  1.
         -5    1    4    4    0  501  0.46947014116E+02 -0.66968064755E+02 -0.20526600994E+03  0.22099853182E+03  0.41800000000E+01 0.  1.
</event>
<event>
11    1  0.8299058E-009  0.1888841E+03  0.7561462E-02  0.1062675E+00
         22   -1    0    0    0    0  0.00000000000E+00  0.00000000000E+00  0.63856810319E+03  0.63856810319E+03  0.00000000000E+00 0.  1.
         22   -1    0    0    0    0 -0.00000000000E+00 -0.00000000000E+00 -0.33832749777E+03  0.33832749777E+03  0.00000000000E+00 0.  1.
         24    2    1    2    0    0  0.27609308548E+02  0.13651106471E+03 -0.27171725290E+03  0.31488245984E+03  0.76962024946E+02 0.  0.
         25    2    1    2    0    0 -0.88104582536E+02 -0.16818210448E+03  0.36319649727E+03  0.42849355262E+03  0.12508953307E+03 0.  0.
        -24    2    1    2    0    0  0.60495273988E+02  0.31671039767E+02  0.20876136105E+03  0.23351958850E+03  0.79292871104E+02 0.  0.
        -13    1    3    3    0    0  0.43444116126E+02  0.13319778096E+03 -0.22118806259E+03  0.26182665852E+03  0.00000000000E+00 0.  1.
         14    1    3    3    0    0 -0.15834807578E+02  0.33132837487E+01 -0.50529190311E+02  0.53055801320E+02  0.00000000000E+00 0. -1.
         11    1    5    5    0    0  0.54046345622E+02 -0.11075832965E+02  0.15504443946E+03  0.16456749302E+03  0.00000000000E+00 0. -1.
        -12    1    5    5    0    0  0.64489283667E+01  0.42746872732E+02  0.53716921597E+02  0.68952095482E+02  0.00000000000E+00 0.  1.
          5    1    4    4  501    0 -0.22397193576E+02 -0.14136663458E+03  0.16793982446E+03  0.22069756838E+03  0.41800000000E+01 0.  1.
         -5    1    4    4    0  501 -0.65707388960E+02 -0.26815469901E+02  0.19525667281E+03  0.20779598424E+03  0.41800000000E+01 0.  1.
</event>
<event>
11    1  0.8299058E-009  0.1451150E+03  0.7561462E-02  0.1101977E+00
         22   -1    0    0    0    0  0.00000000000E+00  0.00000000000E+00  0.16577085841E+04  0.16577085841E+04  0.00000000000E+00 0. -1.
         22   -1    0    0    0    0 -0.00000000000E+00 -0.00000000000E+00 -0.38816881607E+03  0.38816881607E+03  0.00000000000E+00 0. -1.
        -24    2    1    2    0    0 -0.50020107830E+02  0.54193904957E+01 -0.35607540892E+03  0.36853861476E+03  0.80620299859E+02 0.  0.
         25    2    1    2    0    0  0.62388436193E+02  0.66720128759E+02  0.22875104902E+03  0.27625760257E+03  0.12508928011E+03 0.  0.
         24    2    1    2    0    0 -0.12368328363E+02 -0.72139519255E+02  0.13968641279E+04  0.14010811828E+04  0.80262090930E+02 0.  0.
        -13    1    5    5    0    0 -0.33161141156E+02 -0.28187745339E+02  0.30007011824E+03  0.30320997037E+03  0.00000000000E+00 0.  1.
         14    1    5    5    0    0  0.20792812793E+02 -0.43951773916E+02  0.10967940097E+04  0.10978712125E+04  0.00000000000E+00 0. -1.
         11    1    3    3    0    0 -0.72074514273E+02  0.36475723876E+01 -0.29056228010E+03  0.29939017855E+03  0.00000000000E+00 0. -1.
        -12    1    3    3    0    0  0.22054406443E+02  0.17718181082E+01 -0.65513128814E+02  0.69148436207E+02  0.00000000000E+00 0.  1.
          5    1    4    4  501    0 -0.38386857943E+02  0.22934430335E+02  0.64152026000E+02  0.78310240693E+02  0.41800000000E+01 0. -1.
         -5    1    4    4    0  501  0.10077529414E+03  0.43785698424E+02  0.16459902302E+03  0.19794736188E+03  0.41800000000E+01 0. -1.
</event>
<event>
11    1  0.8299058E-009  0.1732375E+03  0.7561462E-02  0.1075248E+00
         22   -1    0    0    0    0  0.00000000000E+00  0.00000000000E+00  0.68517351898E+03  0.68517351898E+03  0.00000000000E+00 0. -1.
         22   -1    0    0    0    0 -0.00000000000E+00 -0.00000000000E+00 -0.16050355785E+04  0.16050355785E+04  0.00000000000E+00 0. -1.
         24    2    1    2    0    0 -0.30615845962E+02 -0.40939047513E+02 -0.14597707735E+04  0.14628680773E+04  0.80243160502E+02 0.  0.
         25    2    1    2    0    0  0.65183074233E+02  0.15273937104E+03 -0.55415436333E+02  0.21516576470E+03  0.12508911657E+03 0.  0.
        -24    2    1    2    0    0 -0.34567228271E+02 -0.11180032353E+03  0.59532415033E+03  0.61217525544E+03  0.81568951142E+02 0.  0.
        -11    1    3    3    0    0  0.14762489944E+02 -0.58869253732E+01 -0.64842135601E+02  0.66761437589E+02  0.00000000000E+00 0.  1.
         12    1    3    3    0    0 -0.45378335906E+02 -0.35052122140E+02 -0.13949286379E+04  0.13961066398E+04  0.00000000000E+00 0. -1.
         13    1    5    5    0    0 -0.82494424748E+01 -0.11492130899E+03  0.45431472145E+03  0.46869694546E+03  0.00000000000E+00 0. -1.
        -14    1    5    5    0    0 -0.26317785796E+02  0.31209854591E+01  0.14100942889E+03  0.14347830998E+03  0.00000000000E+00 0.  1.
          5    1    4    4  501    0  0.61289037112E+02  0.64549363052E+02  0.28239282338E+02  0.93476712648E+02  0.41800000000E+01 0.  1.
         -5    1    4    4    0  501  0.38940371207E+01  0.88190007989E+02 -0.83654718671E+02  0.12168905206E+03  0.41800000000E+01 0.  1.
</event>
<event>
11    1  0.8299058E-009  0.1393124E+03  0.7561462E-02  0.1108329E+00
         22   -1    0    0    0    0  0.00000000000E+00  0.00000000000E+00  0.88000373133E+03  0.88000373133E+03  0.00000000000E+00 0. -1.
         22   -1    0    0    0    0 -0.00000000000E+00 -0.00000000000E+00 -0.50970060072E+03  0.50970060072E+03  0.00000000000E+00 0.  1.
        -24    2    1    2    0    0 -0.60369455220E+02  0.51910673105E+01 -0.45203150955E+03  0.46302855370E+03  0.79947092572E+02 0.  0.
         25    2    1    2    0    0  0.72692667147E+02 -0.49732496476E+02  0.69082990773E+02  0.16785657010E+03  0.12508326607E+03 0.  0.
         24    2    1    2    0    0 -0.12323211927E+02  0.44541429165E+02  0.75325164939E+03  0.75881920824E+03  0.79263756029E+02 0.  0.
        -11    1    5    5    0    0 -0.84851767663E+00  0.30300460732E+02  0.83733462350E+02  0.89051280844E+02  0.00000000000E+00 0.  1.
         12    1    5    5    0    0 -0.11474694250E+02  0.14240968433E+02  0.66951818704E+03  0.66976792740E+03  0.00000000000E+00 0. -1.
         11    1    3    3    0    0  0.61177366873E+01 -0.25986753706E+01 -0.61462268218E+00  0.66751462080E+01  0.00000000000E+00 0. -1.
        -12    1    3    3    0    0 -0.66487191907E+02  0.77897426811E+01 -0.45141688687E+03  0.45635340749E+03  0.00000000000E+00 0.  1.
          5    1    4    4  501    0 -0.33300505004E+01 -0.63004126946E+02  0.64670205381E+02  0.90445105520E+02  0.41800000000E+01 0. -1.
         -5    1    4    4    0  501  0.76022717647E+02  0.13271630470E+02  0.44127853917E+01  0.77411464582E+02  0.41800000000E+01 0. -1.
</event>
<event>
11    1  0.8299058E-009  0.2016362E+03  0.7561462E-02  0.1053373E+00
         22   -1    0    0    0    0  0.00000000000E+00  0.00000000000E+00  0.53964264595E+03  0.53964264595E+03  0.00000000000E+00 0. -1.
         22   -1    0    0    0    0 -0.00000000000E+00 -0.00000000000E+00 -0.49648109782E+03  0.49648109782E+03  0.00000000000E+00 0. -1.
         24    2    1    2    0    0 -0.18918091601E+02 -0.21083023076E+02 -0.27523579457E+03  0.28742591571E+03  0.77823687631E+02 0.  0.
         25    2    1    2    0    0 -0.72914658151E+02  0.14924635723E+03 -0.14448839783E+03  0.25320974277E+03  0.12508898515E+03 0.  0.
        -24    2    1    2    0    0  0.91832749752E+02 -0.12816333416E+03  0.46288574053E+03  0.49548808529E+03  0.79913326382E+02 0.  0.
        -13    1    3    3    0    0  0.41077181916E+01 -0.32776404937E+02 -0.45409594795E+02  0.56153338002E+02  0.00000000000E+00 0.  1.
         14    1    3    3    0    0 -0.23025809792E+02  0.11693381861E+02 -0.22982619978E+03  0.23127257771E+03  0.00000000000E+00 0. -1.
         11    1    5    5    0    0  0.10470744454E+03 -0.11759960590E+03  0.38720119491E+03  0.41799292050E+03  0.00000000000E+00 0. -1.
        -12    1    5    5    0    0 -0.12874694787E+02 -0.10563728256E+02  0.75684545616E+02  0.77495164789E+02  0.00000000000E+00 0.  1.
          5    1    4    4  501    0  0.13867948791E+02  0.90898805828E+02 -0.10907673025E+03  0.14272392366E+03  0.41800000000E+01 0.  1.
         -5    1    4    4    0  501 -0.86782606941E+02  0.58347551407E+02 -0.35411667584E+02  0.11048581911E+03  0.41800000000E+01 0.  1.
</event>
<event>
11    1  0.8299058E-009  0.1752469E+03  0.7561462E-02  0.1073554E+00
         22   -1    0    0    0    0  0.00000000000E+00  0.00000000000E+00  0.69063724612E+02  0.69063724612E+02  0.00000000000E+00 0.  1.
         22   -1    0    0    0    0 -0.00000000000E+00 -0.00000000000E+00 -0.17392438139E+04  0.17392438139E+04  0.00000000000E+00 0.  1.
         24    2    1    2    0    0 -0.11156453621E+03 -0.44010592792E+02 -0.12962171299E+04  0.13041751012E+04  0.79437199444E+02 0.  0.
         25    2    1    2    0    0  0.13074124495E+03  0.44698273123E+02 -0.37780265899E+03  0.42127627828E+03  0.12509054618E+03 0.  0.
        -24    2    1    2    0    0 -0.19176708741E+02 -0.68768033111E+00  0.38396996511E+01  0.82856159016E+02  0.80511991225E+02 0.  0.
        -13    1    3    3    0    0 -0.11535083235E+03 -0.41904253123E+02 -0.12929170201E+04  0.12987286868E+04  0.00000000000E+00 0.  1.
         14    1    3    3    0    0  0.37862961344E+01 -0.21063396688E+01 -0.33001097922E+01  0.54464144039E+01  0.00000000000E+00 0. -1.
         13    1    5    5    0    0 -0.30672799805E+02 -0.46667933766E+01 -0.32262073420E+02  0.44759814450E+02  0.00000000000E+00 0. -1.
        -14    1    5    5    0    0  0.11496091064E+02  0.39791130455E+01  0.36101773071E+02  0.38096344565E+02  0.00000000000E+00 0.  1.
          5    1    4    4  501    0  0.10417064907E+02  0.42956034610E+02 -0.30958685474E+02  0.54126229843E+02  0.41800000000E+01 0. -1.
         -5    1    4    4    0  501  0.12032418005E+03  0.17422385129E+01 -0.34684397352E+03  0.36715004844E+03  0.41800000000E+01 0. -1.
</event>
<event>
11    1  0.8299058E-009  0.1632740E+03  0.7561462E-02  0.1084038E+00
         22   -1    0    0    0    0  0.00000000000E+00  0.00000000000E+00  0.51798234860E+03  0.51798234860E+03  0.00000000000E+00 0. -1.
         22   -1    0    0    0    0 -0.00000000000E+00 -0.00000000000E+00 -0.54434591668E+03  0.54434591668E+03  0.00000000000E+00 0. -1.
         24    2    1    2    0    0  0.85813410956E+02  0.14543804716E+02 -0.47754901280E+03  0.49173858097E+03  0.78602217707E+02 0.  0.
         25    2    1    2    0    0 -0.52916940964E+02  0.92748751174E+02  0.99614492414E+02  0.19228420969E+03  0.12509051407E+03 0.  0.
        -24    2    1    2    0    0 -0.32896469992E+02 -0.10729255589E+03  0.35157095231E+03  0.37830547464E+03  0.83180690951E+02 0.  0.
        -11    1    3    3    0    0  0.32806432596E+02  0.12916790282E+02 -0.51566294167E+02  0.62467497029E+02  0.00000000000E+00 0.  1.
         12    1    3    3    0    0  0.53006978360E+02  0.16270144337E+01 -0.42598271863E+03  0.42927108394E+03  0.00000000000E+00 0. -1.
         11    1    5    5    0    0  0.23673430555E+02 -0.63881373879E+02  0.18320736375E+03  0.19546406160E+03  0.00000000000E+00 0. -1.
        -12    1    5    5    0    0 -0.56569900547E+02 -0.43411182012E+02  0.16836358855E+03  0.18284141304E+03  0.00000000000E+00 0.  1.
          5    1    4    4  501    0  0.39341295483E+02  0.46872177248E+02  0.36004218047E+02  0.71123235637E+02  0.41800000000E+01 0.  1.
         -5    1    4    4    0  501 -0.92258236447E+02  0.45876573926E+02  0.63610274367E+02  0.12116097405E+03  0.41800000000E+01 0.  1.
</event>
<event>
11    1  0.8299058E-009  0.1658607E+03  0.7561462E-02  0.1081691E+00
         22   -1    0    0    0    0  0.00000000000E+00  0.00000000000E+00  0.34876908854E+03  0.34876908854E+03  0.00000000000E+00 0.  1.
         22   -1    0    0    0    0 -0.00000000000E+00 -0.00000000000E+00 -0.93487283999E+03  0.93487283999E+03  0.00000000000E+00 0.  1.
         24    2    1    2    0    0  0.91690606173E+01 -0.66479696416E+02 -0.78559445007E+03  0.79250490402E+03  0.80011006820E+02 0.  0.
         25    2    1    2    0    0 -0.75819735689E+02 -0.26313341924E+02 -0.86810543023E+02  0.17211720415E+03  0.12508891758E+03 0.  0.
        -24    2    1    2    0    0  0.66650675071E+02  0.92793038339E+02  0.28630124164E+03  0.31901982035E+03  0.82172893101E+02 0.  0.
        -11    1    3    3    0    0 -0.33326316997E+02 -0.47099976484E+02 -0.42549000078E+03  0.42938420087E+03  0.00000000000E+00 0.  1.
         12    1    3    3    0    0  0.42495377615E+02 -0.19379719932E+02 -0.36010444929E+03  0.36312070316E+03  0.00000000000E+00 0. -1.
         13    1    5    5    0    0  0.14858311751E+01 -0.97045146088E+01  0.72215578889E+02  0.72879867812E+02  0.00000000000E+00 0. -1.
        -14    1    5    5    0    0  0.65164843896E+02  0.10249755295E+03  0.21408566275E+03  0.24613995254E+03  0.00000000000E+00 0.  1.
          5    1    4    4  501    0 -0.80359161760E+02 -0.59465129995E+02 -0.94392605898E+02  0.13755410940E+03  0.41800000000E+01 0. -1.
         -5    1    4    4    0  501  0.45394260718E+01  0.33151788071E+02  0.75820628745E+01  0.34563094752E+02  0.41800000000E+01 0. -1.
</event>
<event>
11    1  0.8299058E-009  0.1854425E+03  0.7561462E-02  0.1065324E+00
         22   -1    0    0    0    0  0.00000000000E+00  0.00000000000E+00  0.16947809606E+04  0.16947809606E+04  0.00000000000E+00 0.  1.
         22   -1    0    0    0    0 -0.00000000000E+00 -0.00000000000E+00 -0.11507945777E+04  0.11507945777E+04  0.00000000000E+00 0.  1.
        -24    2    1    2    0    0  0.29056954474E+02  0.72306590696E+02 -0.10408905223E+04  0.10465750143E+04  0.76115907271E+02 0.  0.
         25    2    1    2    0    0 -0.12944892797E+03  0.22264974539E+02 -0.23329539865E+02  0.18288020604E+03  0.12509255888E+03 0.  0.
         24    2    1    2    0    0  0.10039197349E+03 -0.94571565235E+02  0.16082064451E+04  0.16161203180E+04  0.80588975539E+02 0.  0.
        -13    1    5    5    0    0  0.88014672932E+02 -0.77310050524E+02  0.89958082747E+03  0.90717643914E+03  0.00000000000E+00 0.  1.
         14    1    5    5    0    0  0.12377300560E+02 -0.17261514711E+02  0.70862561758E+03  0.70894387884E+03  0.00000000000E+00 0. -1.
         13    1    3    3    0    0 -0.10895170876E+02  0.22786584053E+02 -0.65399102247E+03  0.65447856392E+03  0.00000000000E+00 0. -1.
        -14    1    3    3    0    0  0.39952125350E+02  0.49520006643E+02 -0.38689949986E+03  0.39209645034E+03  0.00000000000E+00 0.  1.
          5    1    4    4  501    0 -0.11639345792E+03 -0.32897129597E+02 -0.32481224028E+02  0.12530826188E+03  0.41800000000E+01 0. -1.
         -5    1    4    4    0  501 -0.13055470049E+02  0.55162104136E+02  0.91516841626E+01  0.57571944156E+02  0.41800000000E+01 0. -1.
</event>
<event>
11    1  0.8299058E-009  0.1449489E+03  0.7561462E-02  0.1102155E+00
         22   -1    0    0    0    0  0.00000000000E+00  0.00000000000E+00  0.40882770424E+02  0.40882770424E+02  0.00000000000E+00 0. -1.
         22   -1    0    0    0    0 -0.00000000000E+00 -0.00000000000E+00 -0.14977040578E+04  0.14977040578E+04  0.00000000000E+00 0. -1.
         24    2    1    2    0    0  0.23001279419E+02 -0.62492359733E+02 -0.98285699674E+03  0.98843488090E+03  0.81001752268E+02 0.  0.
         25    2    1    2    0    0 -0.38716124598E+02  0.11235023113E+03 -0.37009397829E+03  0.40833486140E+03  0.12508514512E+03 0.  0.
        -24    2    1    2    0    0  0.15714845179E+02 -0.49857871400E+02 -0.10387031233E+03  0.14181708590E+03  0.81180541821E+02 0.  0.
        -11    1    3    3    0    0 -0.17852834718E+02 -0.47100095383E+02 -0.30132166899E+03  0.30550268558E+03  0.00000000000E+00 0.  1.
         12    1    3    3    0    0  0.40854114136E+02 -0.15392264350E+02 -0.68153532775E+03  0.68293219533E+03  0.00000000000E+00 0. -1.
         11    1    5    5    0    0  0.47203533796E+02 -0.25948312152E+02 -0.41616414515E+02  0.68069188797E+02  0.00000000000E+00 0. -1.
        -12    1    5    5    0    0 -0.31488688616E+02 -0.23909559248E+02 -0.62253897812E+02  0.73747897102E+02  0.00000000000E+00 0.  1.
          5    1    4    4  501    0 -0.21517574337E+02 -0.79538977479E+01 -0.54451903889E+01  0.23945625761E+02  0.41800000000E+01 0. -1.
         -5    1    4    4    0  501 -0.17198550261E+02  0.12030412888E+03 -0.36464878790E+03  0.38438923564E+03  0.41800000000E+01 0. -1.
</event>
<event>
11    1  0.8299058E-009  0.1458272E+03  0.7561462E-02  0.1101220E+00
         22   -1    0    0    0    0  0.00000000000E+00  0.00000000000E+00  0.32654389118E+03  0.32654389118E+03  0.00000000000E+00 0. -1.
         22   -1    0    0    0    0 -0.00000000000E+00 -0.00000000000E+00 -0.57919270704E+03  0.57919270704E+03  0.00000000000E+00 0. -1.
        -24    2    1    2    0    0 -0.72448594243E+02  0.23007372056E+02 -0.50118084664E+03  0.51328575943E+03  0.80634309179E+02 0.  0.
         25    2    1    2    0    0  0.61425391323E+02 -0.10752229195E+02  0.98144735822E+01  0.14011557691E+03  0.12508941550E+03 0.  0.
         24    2    1    2    0    0  0.11023202920E+02 -0.12255142861E+02  0.23871755719E+03  0.25233526188E+03  0.80095647495E+02 0.  0.
        -11    1    5    5    0    0  0.69282280216E+01  0.30573329050E+02  0.51944493005E+02  0.60670908567E+02  0.00000000000E+00 0.  1.
         12    1    5    5    0    0  0.40949748980E+01 -0.42828471911E+02  0.18677306419E+03  0.19166435331E+03  0.00000000000E+00 0. -1.
         13    1    3    3    0    0 -0.69190791700E+02  0.40621101824E+02 -0.47393910089E+03  0.48068254693E+03  0.00000000000E+00 0. -1.
        -14    1    3    3    0    0 -0.32578025424E+01 -0.17613729769E+02 -0.27241745746E+02  0.32603212496E+02  0.00000000000E+00 0.  1.
          5    1    4    4  501    0 -0.19882088125E+02 -0.42320345998E+02  0.22185476974E+02  0.51922797519E+02  0.41800000000E+01 0. -1.
         -5    1    4    4    0  501  0.81307479448E+02  0.31568116803E+02 -0.12371003392E+02  0.88192779396E+02  0.41800000000E+01 0. -1.
</event>
<event>
11    1  0.8299058E-009  0.1336366E+03  0.7561462E-02  0.1114880E+00
         22   -1    0    0    0    0  0.00000000000E+00  0.00000000000E+00  0.72336372740E+03  0.72336372740E+03  0.00000000000E+00 0. -1.
         22   -1    0    0    0    0 -0.00000000000E+00 -0.00000000000E+00 -0.15619757143E+03  0.15619757143E+03  0.00000000000E+00 0. -1.
        -24    2    1    2    0    0 -0.15608806423E+02 -0.40204407624E+02 -0.10109232881E+03  0.13621148527E+03  0.80460428440E+02 0.  0.
         25    2    1    2    0    0  0.53524062085E+02  0.69938456282E+02  0.13769796619E+03  0.20582554024E+03  0.12508880938E+03 0.  0.
         24    2    1    2    0    0 -0.37915255662E+02 -0.29734048658E+02  0.53056051859E+03  0.53752427333E+03  0.71527618911E+02 0.  0.
        -13    1    5    5    0    0 -0.38349725710E+02  0.14205058491E+02  0.20776626615E+03  0.21175293740E+03  0.00000000000E+00 0.  1.
         14    1    5    5    0    0  0.43447004758E+00 -0.43939107148E+02  0.32279425244E+03  0.32577133592E+03  0.00000000000E+00 0. -1.
         13    1    3    3    0    0  0.29443204322E+02 -0.25671098657E+02 -0.68108475685E+02  0.78515425536E+02  0.00000000000E+00 0. -1.
        -14    1    3    3    0    0 -0.45052010745E+02 -0.14533308968E+02 -0.32983853121E+02  0.57696059730E+02  0.00000000000E+00 0.  1.
          5    1    4    4  501    0  0.34787599672E+02  0.60078747218E+01  0.13436896129E+03  0.13899194871E+03  0.41800000000E+01 0.  1.
         -5    1    4    4    0  501  0.18736462413E+02  0.63930581560E+02  0.33290049014E+01  0.66833591524E+02  0.41800000000E+01 0.  1.
</event>
<event>
11    1  0.8299058E-009  0.1365588E+03  0.7561462E-02  0.1111463E+00
         22   -1    0    0    0    0  0.00000000000E+00  0.00000000000E+00  0.25241432547E+03  0.25241432547E+03  0.00000000000E+00 0.  1.
         22   -1    0    0    0    0 -0.00000000000E+00 -0.00000000000E+00 -0.18931866781E+04  0.18931866781E+04  0.00000000000E+00 0.  1.
         24    2    1    2    0    0 -0.22248121419E+02 -0.59815827063E+02 -0.11407040192E+04  0.11452874038E+04  0.80029155797E+02 0.  0.
         25    2    1    2    0    0  0.40864947374E+02  0.15364696391E+02 -0.73522967980E+03  0.74707160883E+03  0.12508912361E+03 0.  0.
        -24    2    1    2    0    0 -0.18616825956E+02  0.44451130672E+02  0.23516134633E+03  0.25324199099E+03  0.80673155158E+02 0.  0.
        -13    1    3    3    0    0  0.18144195379E+02 -0.56439292143E+02 -0.54753922871E+03  0.55073933263E+03  0.00000000000E+00 0.  1.
         14    1    3    3    0    0 -0.40392316798E+02 -0.33765349198E+01 -0.59316479047E+03  0.59454807114E+03  0.00000000000E+00 0. -1.
         13    1    5    5    0    0 -0.12801868112E+02  0.40866244576E+02  0.42076704623E+02  0.60036545910E+02  0.00000000000E+00 0. -1.
        -14    1    5    5    0    0 -0.58149578440E+01  0.35848860963E+01  0.19308464171E+03  0.19320544508E+03  0.00000000000E+00 0.  1.
          5    1    4    4  501    0  0.58798552453E+02  0.59889888490E+02 -0.48996195471E+03  0.49711594018E+03  0.41800000000E+01 0.  1.
         -5    1    4    4    0  501 -0.17933605078E+02 -0.44525192099E+02 -0.24526772508E+03  0.24995566865E+03  0.41800000000E+01 0.  1.
</event>
<event>
11    1  0.8299058E-009  0.1752247E+03  0.7561462E-02  0.1073572E+00
         22   -1    0    0    0    0  0.00000000000E+00  0.00000000000E+00  0.31028453720E+04  0.31028453720E+04  0.00000000000E+00 0. -1.
         22   -1    0    0    0    0 -0.00000000000E+00 -0.00000000000E+00 -0.48436625269E+02  0.48436625269E+02  0.00000000000E+00 0. -1.
        -24    2    1    2    0    0 -0.12552053219E+03  0.20227404469E+02  0.95646390487E+02  0.17827146618E+03  0.80423452728E+02 0.  0.
         25    2    1    2    0    0  0.75752008062E+02 -0.65271731644E+02  0.11156039544E+04  0.11270396121E+04  0.12508932261E+03 0.  0.
         24    2    1    2    0    0  0.49768524131E+02  0.45044327175E+02  0.18431584019E+04  0.18459709190E+04  0.76614892938E+02 0.  0.
        -11    1    5    5    0    0  0.67084747437E+02  0.47040899453E+02  0.13336876432E+04  0.13362020577E+04  0.00000000000E+00 0.  1.
         12    1    5    5    0    0 -0.17316223306E+02 -0.19965722783E+01  0.50947075871E+03  0.50976886123E+03  0.00000000000E+00 0. -1.
         11    1    3    3    0    0 -0.10728427080E+03  0.44327462741E+02  0.91414174522E+02  0.14775449238E+03  0.00000000000E+00 0. -1.
        -12    1    3    3    0    0 -0.18236261389E+02 -0.24100058272E+02  0.42322159647E+01  0.30516973804E+02  0.00000000000E+00 0.  1.
          5    1    4    4  501    0 -0.79114690429E+01  0.31015659830E+02  0.20153263717E+03  0.20410154027E+03  0.41800000000E+01 0.  1.
         -5    1    4    4    0  501  0.83663477105E+02 -0.96287391474E+02  0.91407131718E+03  0.92293807184E+03  0.41800000000E+01 0.  1.
</event>
<event>
11    1  0.8299058E-009  0.1680731E+03  0.7561462E-02  0.1079721E+00
         22   -1    0    0    0    0  0.00000000000E+00  0.00000000000E+00  0.43391467957E+03  0.43391467957E+03  0.00000000000E+00 0. -1.
         22   -1    0    0    0    0 -0.00000000000E+00 -0.00000000000E+00 -0.61439981764E+03  0.61439981764E+03  0.00000000000E+00 0. -1.
        -24    2    1    2    0    0  0.43687904132E+02 -0.10508447107E+02 -0.38701443153E+03  0.39779685317E+03  0.80268958843E+02 0.  0.
         25    2    1    2    0    0  0.70789327998E+02  0.15786245055E+02 -0.18495112622E+03  0.23477118106E+03  0.12510097472E+03 0.  0.
         24    2    1    2    0    0 -0.11447723213E+03 -0.52777979483E+01  0.39148041968E+03  0.41574646297E+03  0.80344947887E+02 0.  0.
        -13    1    5    5    0    0  0.30367834930E+01 -0.18177349253E+02  0.90980789144E+02  0.92828562809E+02  0.00000000000E+00 0.  1.
         14    1    5    5    0    0 -0.11751401562E+03  0.12899551304E+02  0.30049963054E+03  0.32291790016E+03  0.00000000000E+00 0. -1.
         13    1    3    3    0    0  0.53522930337E+02 -0.23696994954E+02 -0.36811546799E+03  0.37274019024E+03  0.00000000000E+00 0. -1.
        -14    1    3    3    0    0 -0.98350262058E+01  0.13188547847E+02 -0.18898963540E+02  0.25056662939E+02  0.00000000000E+00 0.  1.
          5    1    4    4  501    0  0.19138499720E+02 -0.28073078368E+02 -0.15810228291E+03  0.16176583126E+03  0.41800000000E+01 0. -1.
         -5    1    4    4    0  501  0.51650828279E+02  0.43859323424E+02 -0.26848843308E+02  0.73005349804E+02  0.41800000000E+01 0. -1.
</event>
<event>
11    1  0.8299058E-009  0.1471607E+03  0.7561462E-02  0.1099816E+00
         22   -1    0    0    0    0  0.00000000000E+00  0.00000000000E+00  0.30722067322E+03  0.30722067322E+03  0.00000000000E+00 0.  1.
         22   -1    0    0    0    0 -0.00000000000E+00 -0.00000000000E+00 -0.28329950826E+03  0.28329950826E+03  0.00000000000E+00 0.  1.
         24    2    1    2    0    0  0.21759395939E+02 -0.67893956191E+01 -0.18501741202E+03  0.20292919755E+03  0.80182599506E+02 0.  0.
         25    2    1    2    0    0 -0.53490466390E+02 -0.63373753137E+02 -0.98222790055E+00  0.15008826997E+03  0.12509221170E+03 0.  0.
        -24    2    1    2    0    0  0.31731070451E+02  0.70163148756E+02  0.20992080488E+03  0.23750271396E+03  0.80069135995E+02 0.  0.
        -11    1    3    3    0    0  0.78864909187E-01  0.72109353174E+01 -0.17515115255E+03  0.17529954377E+03  0.00000000000E+00 0.  1.
         12    1    3    3    0    0  0.21680531030E+02 -0.14000330937E+02 -0.98662594760E+01  0.27629653782E+02  0.00000000000E+00 0. -1.
         11    1    5    5    0    0 -0.23639663242E+02  0.10466677921E+02  0.80970964167E+02  0.84998129762E+02  0.00000000000E+00 0. -1.
        -12    1    5    5    0    0  0.55370733693E+02  0.59696470835E+02  0.12894984071E+03  0.15250458419E+03  0.00000000000E+00 0.  1.
          5    1    4    4  501    0  0.40779026879E+02 -0.18175257619E+02  0.59302045595E+01  0.45231722815E+02  0.41800000000E+01 0.  1.
         -5    1    4    4    0  501 -0.94269493270E+02 -0.45198495518E+02 -0.69124324600E+01  0.10485654715E+03  0.41800000000E+01 0.  1.
</event>
<event>
11    1  0.8299058E-009  0.1392417E+03  0.7561462E-02  0.1108408E+00
         22   -1    0    0    0    0  0.00000000000E+00  0.00000000000E+00  0.52359851293E+03  0.52359851293E+03  0.00000000000E+00 0. -1.
         22   -1    0    0    0    0 -0.00000000000E+00 -0.00000000000E+00 -0.50934368619E+03  0.50934368619E+03  0.00000000000E+00 0. -1.
         24    2    1    2    0    0  0.13922784795E+02  0.65671042228E+02 -0.33182166171E+03  0.35030003087E+03  0.89988703329E+02 0.  0.
         25    2    1    2    0    0 -0.10455561956E+02 -0.42666501550E+02 -0.13782980817E+03  0.19124376771E+03  0.12508946214E+03 0.  0.
        -24    2    1    2    0    0 -0.34672228388E+01 -0.23004540678E+02  0.48390629662E+03  0.49139840054E+03  0.82254809090E+02 0.  0.
        -11    1    3    3    0    0 -0.34411275210E+02  0.30197047925E+02 -0.87780946329E+02  0.99002485339E+02  0.00000000000E+00 0.  1.
         12    1    3    3    0    0  0.48334060005E+02  0.35473994302E+02 -0.24404071538E+03  0.25129754553E+03  0.00000000000E+00 0. -1.
         13    1    5    5    0    0 -0.23523167404E+02 -0.28607740364E+02  0.45058978399E+03  0.45210938461E+03  0.00000000000E+00 0. -1.
        -14    1    5    5    0    0  0.20055944565E+02  0.56031996859E+01  0.33316512628E+02  0.39289015931E+02  0.00000000000E+00 0.  1.
          5    1    4    4  501    0  0.36732182961E+02  0.20016557513E+02 -0.13475010396E+02  0.44147074025E+02  0.41800000000E+01 0.  1.
         -5    1    4    4    0  501 -0.47187744918E+02 -0.62683059062E+02 -0.12435479777E+03  0.14709669369E+03  0.41800000000E+01 0.  1.
</event>
<event>
11    1  0.8299058E-009  0.1628400E+03  0.7561462E-02  0.1084436E+00
         22   -1    0    0    0    0  0.00000000000E+00  0.00000000000E+00  0.23228827147E+03  0.23228827147E+03  0.00000000000E+00 0. -1.
         22   -1    0    0    0    0 -0.00000000000E+00 -0.00000000000E+00 -0.38555710737E+03  0.38555710737E+03  0.00000000000E+00 0.  1.
         24    2    1    2    0    0  0.53439834351E+02 -0.77147625485E+02 -0.22442041246E+03  0.25649648716E+03  0.81353269040E+02 0.  0.
         25    2    1    2    0    0 -0.12916385984E+03  0.11027815375E+03 -0.23422458303E+02  0.21222812221E+03  0.12509032905E+03 0.  0.
        -24    2    1    2    0    0  0.75724025485E+02 -0.33130528269E+02  0.94574034858E+02  0.14912076947E+03  0.80380320223E+02 0.  0.
        -13    1    3    3    0    0  0.73320969522E+02 -0.72438038372E+02 -0.19660427995E+03  0.22198305536E+03  0.00000000000E+00 0.  1.
         14    1    3    3    0    0 -0.19881135171E+02 -0.47095871133E+01 -0.27816132508E+02  0.34513431794E+02  0.00000000000E+00 0. -1.
         11    1    5    5    0    0  0.44895988092E+02 -0.42010485892E+02  0.99197695725E+02  0.11670781254E+03  0.00000000000E+00 0. -1.
        -12    1    5    5    0    0  0.30828037393E+02  0.88799576233E+01 -0.46236608675E+01  0.32412956926E+02  0.00000000000E+00 0.  1.
          5    1    4    4  501    0 -0.98997388088E+02  0.16332487187E+02 -0.46720114852E+02  0.11075863180E+03  0.41800000000E+01 0. -1.
         -5    1    4    4    0  501 -0.30166471748E+02  0.93945666567E+02  0.23297656549E+02  0.10146949042E+03  0.41800000000E+01 0. -1.
</event>
<event>
11    1  0.8299058E-009  0.1966283E+03  0.7561462E-02  0.1056934E+00
         22   -1    0    0    0    0  0.00000000000E+00  0.00000000000E+00  0.30424975226E+03  0.30424975226E+03  0.00000000000E+00 0. -1.
         22   -1    0    0    0    0 -0.00000000000E+00 -0.00000000000E+00 -0.80950939238E+03  0.80950939238E+03  0.00000000000E+00 0. -1.
         24    2    1    2    0    0 -0.14461574600E+03 -0.33227823197E+02 -0.64451664910E+03  0.66636722282E+03  0.81398786592E+02 0.  0.
         25    2    1    2    0    0  0.15714686309E+03  0.12357636989E+03 -0.31491865691E+02  0.23791805302E+03  0.12508799533E+03 0.  0.
        -24    2    1    2    0    0 -0.12531117088E+02 -0.90348546690E+02  0.17074887467E+03  0.20947386879E+03  0.80026462638E+02 0.  0.
        -13    1    3    3    0    0 -0.34224285444E+01 -0.24406954853E+02 -0.57780820877E+02  0.62817479443E+02  0.00000000000E+00 0.  1.
         14    1    3    3    0    0 -0.14119331746E+03 -0.88208683445E+01 -0.58673582822E+03  0.60354974338E+03  0.00000000000E+00 0. -1.
         13    1    5    5    0    0 -0.56500856226E+01 -0.10149734079E+03  0.12102405909E+03  0.15805206906E+03  0.00000000000E+00 0. -1.
        -14    1    5    5    0    0 -0.68810314650E+01  0.11148794098E+02  0.49724815579E+02  0.51421799737E+02  0.00000000000E+00 0.  1.
          5    1    4    4  501    0  0.48762057165E+02  0.35677040914E+02 -0.70517586457E+02  0.92955859778E+02  0.41800000000E+01 0.  1.
         -5    1    4    4    0  501  0.10838480593E+03  0.87899328972E+02  0.39025720766E+02  0.14496219325E+03  0.41800000000E+01 0.  1.
</event>
<event>
11    1  0.8299058E-009  0.2917690E+03  0.7561462E-02  0.1003736E+00
         22   -1    0    0    0    0  0.00000000000E+00  0.00000000000E+00  0.12781254864E+03  0.12781254864E+03  0.00000000000E+00 0. -1.
         22   -1    0    0    0    0 -0.00000000000E+00 -0.00000000000E+00 -0.22303676929E+04  0.22303676929E+04  0.00000000000E+00 0. -1.
        -24    2    1    2    0    0 -0.64338634812E+02 -0.10313285575E+03 -0.13365025616E+04  0.13442842244E+04  0.78007262566E+02 0.  0.
         25    2    1    2    0    0  0.20371863129E+03  0.29141310277E+03 -0.62194462746E+03  0.72724593651E+03  0.12509458564E+03 0.  0.
         24    2    1    2    0    0 -0.13937999648E+03 -0.18828024701E+03 -0.14410795520E+03  0.28665008059E+03  0.80777045728E+02 0.  0.
        -13    1    5    5    0    0 -0.60223611495E+02 -0.11246172474E+03 -0.35668588788E+02  0.13246422588E+03  0.00000000000E+00 0.  1.
         14    1    5    5    0    0 -0.79156384986E+02 -0.75818522274E+02 -0.10843936642E+03  0.15418585471E+03  0.00000000000E+00 0. -1.
         11    1    3    3    0    0 -0.81095494820E+02 -0.77193855507E+02 -0.95692089771E+03  0.96344848077E+03  0.00000000000E+00 0. -1.
        -12    1    3    3    0    0  0.16756860008E+02 -0.25939000247E+02 -0.37958166385E+03  0.38083574362E+03  0.00000000000E+00 0.  1.
          5    1    4    4  501    0  0.16436449676E+03  0.22229022500E+03 -0.56596660718E+03  0.62989229616E+03  0.41800000000E+01 0.  1.
         -5    1    4    4    0  501  0.39354134537E+02  0.69122877764E+02 -0.55978020281E+02  0.97353640353E+02  0.41800000000E+01 0.  1.
</event>
<event>
11    1  0.8299058E-009  0.1319052E+03  0.7561462E-02  0.1116950E+00
         22   -1    0    0    0    0  0.00000000000E+00  0.00000000000E+00  0.20081838290E+04  0.20081838290E+04  0.00000000000E+00 0.  1.
         22   -1    0    0    0    0 -0.00000000000E+00 -0.00000000000E+00 -0.12805661396E+03  0.12805661396E+03  0.00000000000E+00 0. -1.
         24    2    1    2    0    0 -0.21481931351E+01  0.36231352102E+00 -0.10288906573E+03  0.13559376330E+03  0.88287953843E+02 0.  0.
         25    2    1    2    0    0 -0.39893723019E+02 -0.40659639100E+01  0.57832161562E+03  0.59305211933E+03  0.12508750519E+03 0.  0.
        -24    2    1    2    0    0  0.42041916154E+02  0.37036503890E+01  0.14046946652E+04  0.14075945604E+04  0.79837987124E+02 0.  0.
        -11    1    3    3    0    0  0.16864964479E+02 -0.34229165264E+02 -0.18451166995E+02  0.42385237348E+02  0.00000000000E+00 0.  1.
         12    1    3    3    0    0 -0.19013157614E+02  0.34591478785E+02 -0.84437898738E+02  0.93208525953E+02  0.00000000000E+00 0. -1.
         11    1    5    5    0    0 -0.21040339695E+02 -0.11022409031E+02  0.26582048304E+03  0.26687959570E+03  0.00000000000E+00 0. -1.
        -12    1    5    5    0    0  0.63082255849E+02  0.14726059420E+02  0.11388741822E+04  0.11407149647E+04  0.00000000000E+00 0.  1.
          5    1    4    4  501    0 -0.41071701990E+02  0.56546062334E+02  0.28171467643E+03  0.29028429718E+03  0.41800000000E+01 0. -1.
         -5    1    4    4    0  501  0.11779789713E+01 -0.60612026244E+02  0.29660693919E+03  0.30276782216E+03  0.41800000000E+01 0. -1.
</event>
<event>
11    1  0.8299058E-009  0.1687765E+03  0.7561462E-02  0.1079101E+00
         22   -1    0    0    0    0  0.00000000000E+00  0.00000000000E+00  0.20263311829E+04  0.20263311829E+04  0.00000000000E+00 0.  1.
         22   -1    0    0    0    0 -0.00000000000E+00 -0.00000000000E+00 -0.10027710286E+03  0.10027710286E+03  0.00000000000E+00 0. -1.
         24    2    1    2    0    0 -0.31570105775E+02  0.10753426216E+03 -0.30496906042E+02  0.14049730907E+03  0.79051524088E+02 0.  0.
         25    2    1    2    0    0  0.33373981026E+02 -0.12180922225E+03  0.56467627406E+03  0.59199471972E+03  0.12508854646E+03 0.  0.
        -24    2    1    2    0    0 -0.18038752503E+01  0.14274960085E+02  0.13918747120E+04  0.13941162569E+04  0.77703896590E+02 0.  0.
        -13    1    3    3    0    0 -0.14878482465E+02  0.15331594854E+02  0.23975315683E+02  0.32112969394E+02  0.00000000000E+00 0.  1.
         14    1    3    3    0    0 -0.16691623310E+02  0.92202667310E+02 -0.54472221725E+02  0.10838433968E+03  0.00000000000E+00 0. -1.
         11    1    5    5    0    0  0.33845609702E+02 -0.70780053117E+01  0.45062452491E+03  0.45194920722E+03  0.00000000000E+00 0. -1.
        -12    1    5    5    0    0 -0.35649484953E+02  0.21352965397E+02  0.94125018708E+03  0.94216704972E+03  0.00000000000E+00 0.  1.
          5    1    4    4  501    0 -0.36130517576E+02 -0.49124190171E+01  0.71183188864E+02  0.80087857618E+02  0.41800000000E+01 0.  1.
         -5    1    4    4    0  501  0.69504498601E+02 -0.11689680323E+03  0.49349308520E+03  0.51190686211E+03  0.41800000000E+01 0.  1.
</event>
<event>
11    1  0.8299058E-009  0.1460411E+03  0.7561462E-02  0.1100994E+00
         22   -1    0    0    0    0  0.00000000000E+00  0.00000000000E+00  0.10509781856E+04  0.10509781856E+04  0.00000000000E+00 0. -1.
         22   -1    0    0    0    0 -0.00000000000E+00 -0.00000000000E+00 -0.56431881596E+03  0.56431881596E+03  0.00000000000E+00 0.  1.
        -24    2    1    2    0    0 -0.67636904890E+01 -0.45706440948E+02 -0.53227039342E+03  0.54022295642E+03  0.79964021158E+02 0.  0.
         25    2    1    2    0    0 -0.64985098213E+02  0.13390750653E+02  0.18381291370E+03  0.23202814552E+03  0.12508995914E+03 0.  0.
         24    2    1    2    0    0  0.71748788702E+02  0.32315690294E+02  0.83511684941E+03  0.84304589966E+03  0.84344793836E+02 0.  0.
        -11    1    5    5    0    0  0.12579126046E+02  0.53124205623E+01  0.14732451543E+02  0.20087343099E+02  0.00000000000E+00 0.  1.
         12    1    5    5    0    0  0.59169662656E+02  0.27003269732E+02  0.82038439787E+03  0.82295855656E+03  0.00000000000E+00 0. -1.
         13    1    3    3    0    0  0.28616222652E+02  0.48765907356E+01 -0.22029188809E+03  0.22219627651E+03  0.00000000000E+00 0. -1.
        -14    1    3    3    0    0 -0.35379913141E+02 -0.50583031683E+02 -0.31197850534E+03  0.31802667992E+03  0.00000000000E+00 0.  1.
          5    1    4    4  501    0 -0.65748869731E+01 -0.41546859546E+01 -0.18597829865E+02  0.20587428926E+02  0.41800000000E+01 0. -1.
         -5    1    4    4    0  501 -0.58410211240E+02  0.17545436608E+02  0.20241074357E+03  0.21144071659E+03  0.41800000000E+01 0. -1.
</event>
<event>
11    1  0.8299058E-009  0.1936284E+03  0.7561462E-02  0.1059123E+00
         22   -1    0    0    0    0  0.00000000000E+00  0.00000000000E+00  0.48851799024E+02  0.48851799024E+02  0.00000000000E+00 0. -1.
         22   -1    0    0    0    0 -0.00000000000E+00 -0.00000000000E+00 -0.38028250827E+04  0.38028250827E+04  0.00000000000E+00 0. -1.
        -24    2    1    2    0    0 -0.40157131881E+02 -0.13812426195E+03 -0.23819976641E+04  0.23877481862E+04  0.82083020839E+02 0.  0.
         25    2    1    2    0    0  0.96909795653E+02  0.13422471030E+03 -0.13461501778E+04  0.13620485298E+04  0.12509242580E+03 0.  0.
         24    2    1    2    0    0 -0.56752663772E+02  0.38995516461E+01 -0.25825441794E+02  0.10188016566E+03  0.80476974120E+02 0.  0.
        -11    1    5    5    0    0  0.18546263523E+02  0.91900525356E+01  0.33227230732E+01  0.20963335729E+02  0.00000000000E+00 0.  1.
         12    1    5    5    0    0 -0.75298927295E+02 -0.52905008895E+01 -0.29148164867E+02  0.80916829934E+02  0.00000000000E+00 0. -1.
         13    1    3    3    0    0 -0.36360021569E+02 -0.81943178227E+02 -0.19549139560E+04  0.19569683980E+04  0.00000000000E+00 0. -1.
        -14    1    3    3    0    0 -0.37971103121E+01 -0.56181083721E+02 -0.42708370807E+03  0.43077978819E+03  0.00000000000E+00 0.  1.
          5    1    4    4  501    0  0.11721172253E+03  0.86401267552E+02 -0.11460507582E+04  0.11552720804E+04  0.41800000000E+01 0.  1.
         -5    1    4    4    0  501 -0.20301926875E+02  0.47823442750E+02 -0.20009941962E+03  0.20677644944E+03  0.41800000000E+01 0.  1.
</event>
<event>
11    1  0.8299058E-009  0.1630697E+03  0.7561462E-02  0.1084225E+00
         22   -1    0    0    0    0  0.00000000000E+00  0.00000000000E+00  0.89186935906E+03  0.89186935906E+03  0.00000000000E+00 0.  1.
         22   -1    0    0    0    0 -0.00000000000E+00 -0.00000000000E+00 -0.22398953751E+03  0.22398953751E+03  0.00000000000E+00 0.  1.
         24    2    1    2    0    0  0.15859973859E+02  0.11198026322E+02 -0.14802135272E+03  0.17026681255E+03  0.81875100190E+02 0.  0.
         25    2    1    2    0    0 -0.11381219079E+03 -0.43018404003E+02  0.69494967494E+02  0.18783131446E+03  0.12508898565E+03 0.  0.
        -24    2    1    2    0    0  0.97952216931E+02  0.31820377680E+02  0.74640620678E+03  0.75776076956E+03  0.80448649008E+02 0.  0.
        -13    1    3    3    0    0 -0.18771840830E+02 -0.13522476522E+01 -0.12590028727E+03  0.12729922591E+03  0.00000000000E+00 0.  1.
         14    1    3    3    0    0  0.34631814689E+02  0.12550273974E+02 -0.22121065452E+02  0.42967586646E+02  0.00000000000E+00 0. -1.
         13    1    5    5    0    0  0.72385280672E+01  0.25650732658E+01  0.29612156332E+01  0.82307160967E+01  0.00000000000E+00 0. -1.
        -14    1    5    5    0    0  0.90713688864E+02  0.29255304415E+02  0.74344499114E+03  0.74953005346E+03  0.00000000000E+00 0.  1.
          5    1    4    4  501    0 -0.39102013992E+02 -0.59915510701E+02  0.83300753128E+02  0.10988777818E+03  0.41800000000E+01 0.  1.
         -5    1    4    4    0  501 -0.74710176798E+02  0.16897106698E+02 -0.13805785635E+02  0.77943536288E+02  0.41800000000E+01 0.  1.
</event>
<event>
11    1  0.8299058E-009  0.2139532E+03  0.7561462E-02  0.1045073E+00
         22   -1    0    0    0    0  0.00000000000E+00  0.00000000000E+00  0.22977388738E+03  0.22977388738E+03  0.00000000000E+00 0.  1.
         22   -1    0    0    0    0 -0.00000000000E+00 -0.00000000000E+00 -0.37139182228E+03  0.37139182228E+03  0.00000000000E+00 0. -1.
        -24    2    1    2    0    0 -0.10751340306E+03  0.32235856986E+02 -0.17262027080E+03  0.22011533796E+03  0.77812092912E+02 0.  0.
         25    2    1    2    0    0  0.17373467974E+03 -0.10506425380E+03  0.67800729432E+02  0.24791401443E+03  0.12506871420E+03 0.  0.
         24    2    1    2    0    0 -0.66221276685E+02  0.72828396813E+02 -0.36798393530E+02  0.13313635727E+03  0.81743103637E+02 0.  0.
        -13    1    5    5    0    0 -0.70658603274E+02  0.85915236207E+02 -0.41215723213E+02  0.11862884080E+03  0.00000000000E+00 0.  1.
         14    1    5    5    0    0  0.44373265896E+01 -0.13086839394E+02  0.44173296833E+01  0.14507516470E+02  0.00000000000E+00 0. -1.
         11    1    3    3    0    0 -0.75332113358E+02  0.31590181543E+02 -0.16902250523E+03  0.18772712683E+03  0.00000000000E+00 0. -1.
        -12    1    3    3    0    0 -0.32181289697E+02  0.64567544319E+00 -0.35977655687E+01  0.32388211134E+02  0.00000000000E+00 0.  1.
          5    1    4    4  501    0  0.12301514306E+03 -0.94526921856E+01  0.68694042820E+01  0.12363955648E+03  0.41800000000E+01 0. -1.
         -5    1    4    4    0  501  0.50719536680E+02 -0.95611561613E+02  0.60931325150E+02  0.12427445795E+03  0.41800000000E+01 0. -1.
</event>
<event>
11    1  0.8299058E-009  0.1347041E+03  0.7561462E-02  0.1113621E+00
         22   -1    0    0    0    0  0.00000000000E+00  0.00000000000E+00  0.28467758546E+03  0.28467758546E+03  0.00000000000E+00 0. -1.
         22   -1    0    0    0    0 -0.00000000000E+00 -0.00000000000E+00 -0.16093532738E+04  0.16093532738E+04  0.00000000000E+00 0.  1.
        -24    2    1    2    0    0  0.11109880496E+02 -0.18722058201E+02 -0.14422663360E+04  0.14445518396E+04  0.78255277501E+02 0.  0.
         25    2    1    2    0    0 -0.59834345471E+01  0.67536038911E+02 -0.12535821890E+03  0.18962910241E+03  0.12509034893E+03 0.  0.
         24    2    1    2    0    0 -0.51264459494E+01 -0.48813980710E+02  0.24294886655E+03  0.25984991723E+03  0.78030395147E+02 0.  0.
        -13    1    5    5    0    0 -0.16421682689E+02  0.85661612843E+01  0.13121038409E+02  0.22698291354E+02  0.00000000000E+00 0.  1.
         14    1    5    5    0    0  0.11295236739E+02 -0.57380141994E+02  0.22982782814E+03  0.23715162588E+03  0.00000000000E+00 0. -1.
         11    1    3    3    0    0 -0.12719713512E+02 -0.37814731244E+02 -0.43580200339E+03  0.43762441793E+03  0.00000000000E+00 0. -1.
        -12    1    3    3    0    0  0.23829594009E+02  0.19092673043E+02 -0.10064643326E+04  0.10069274217E+04  0.00000000000E+00 0.  1.
          5    1    4    4  501    0 -0.42479647811E+02  0.53267799350E+02 -0.11600726175E+02  0.69238920944E+02  0.41800000000E+01 0.  1.
         -5    1    4    4    0  501  0.36496213264E+02  0.14268239560E+02 -0.11375749272E+03  0.12039018147E+03  0.41800000000E+01 0.  1.
</event>
<event>
11    1  0.8299058E-009  0.1283512E+03  0.7561462E-02  0.1121312E+00
         22   -1    0    0    0    0  0.00000000000E+00  0.00000000000E+00  0.27644459768E+03  0.27644459768E+03  0.00000000000E+00 0. -1.
         22   -1    0    0    0    0 -0.00000000000E+00 -0.00000000000E+00 -0.48590981313E+03  0.48590981313E+03  0.00000000000E+00 0.  1.
        -24    2    1    2    0    0  0.19064403552E+02  0.20414468142E+02 -0.41712484447E+03  0.42574388790E+03  0.80526518741E+02 0.  0.
         25    2    1    2    0    0 -0.31176924246E+02 -0.30750205970E+02  0.24196019652E+02  0.13472456062E+03  0.12509070347E+03 0.  0.
         24    2    1    2    0    0  0.12112520694E+02  0.10335737827E+02  0.18346360936E+03  0.20188596229E+03  0.82737568118E+02 0.  0.
        -13    1    5    5    0    0  0.52479383230E+01  0.32240564490E+02  0.23392243102E+02  0.40177007014E+02  0.00000000000E+00 0.  1.
         14    1    5    5    0    0  0.68645823710E+01 -0.21904826662E+02  0.16007136626E+03  0.16170895528E+03  0.00000000000E+00 0. -1.
         11    1    3    3    0    0  0.39835142186E+01 -0.28726938961E+01  0.22854172634E+01  0.54169998909E+01  0.00000000000E+00 0. -1.
        -12    1    3    3    0    0  0.15080889334E+02  0.23287162038E+02 -0.41941026173E+03  0.42032688801E+03  0.00000000000E+00 0.  1.
          5    1    4    4  501    0  0.29992854482E+02  0.30681670533E+02 -0.44204934699E+01  0.43335313420E+02  0.41800000000E+01 0. -1.
         -5    1    4    4    0  501 -0.61169778728E+02 -0.61431876503E+02  0.28616513122E+02  0.91389247199E+02  0.41800000000E+01 0. -1.
</event>
<event>
11    1  0.8299058E-009  0.5862907E+03  0.7561462E-02  0.9219008E-01
         22   -1    0    0    0    0  0.00000000000E+00  0.00000000000E+00  0.10860546278E+04  0.10860546278E+04  0.00000000000E+00 0. -1.
         22   -1    0    0    0    0 -0.00000000000E+00 -0.00000000000E+00 -0.49560569694E+03  0.49560569694E+03  0.00000000000E+00 0. -1.
        -24    2    1    2    0    0 -0.14350712371E+03  0.17560276851E+03  0.32070811695E+02  0.24238403315E+03  0.79314914721E+02 0.  0.
         25    2    1    2    0    0  0.60434674619E+03  0.14076891785E+03  0.17451533175E+03  0.65662381434E+03  0.12509338384E+03 0.  0.
         24    2    1    2    0    0 -0.46083962248E+03 -0.31637168636E+03  0.38386278739E+03  0.68265247724E+03  0.78737307254E+02 0.  0.
        -13    1    5    5    0    0 -0.16459151192E+03 -0.91162081911E+02  0.16922731878E+03  0.25305883979E+03  0.00000000000E+00 0.  1.
         14    1    5    5    0    0 -0.29624811056E+03 -0.22520960445E+03  0.21463546861E+03  0.42959363744E+03  0.00000000000E+00 0. -1.
         13    1    3    3    0    0  0.85078599121E+01  0.24876027222E+01 -0.29715025860E+01  0.93488863083E+01  0.00000000000E+00 0. -1.
        -14    1    3    3    0    0 -0.15201498362E+03  0.17311516579E+03  0.35042314281E+02  0.23303514684E+03  0.00000000000E+00 0.  1.
          5    1    4    4  501    0  0.41004064396E+03  0.44395923526E+02  0.80725301711E+02  0.42028368331E+03  0.41800000000E+01 0. -1.
         -5    1    4    4    0  501  0.19430610223E+03  0.96372994322E+02  0.93790030042E+02  0.23634013103E+03  0.41800000000E+01 0. -1.
</event>
<event>
11    1  0.8299058E-009  0.1744760E+03  0.7561462E-02  0.1074201E+00
         22   -1    0    0    0    0  0.00000000000E+00  0.00000000000E+00  0.13852945889E+04  0.13852945889E+04  0.00000000000E+00 0. -1.
         22   -1    0    0    0    0 -0.00000000000E+00 -0.00000000000E+00 -0.35360801250E+03  0.35360801250E+03  0.00000000000E+00 0.  1.
         24    2    1    2    0    0  0.64643427156E+02 -0.11555093089E+02 -0.32183782531E+03  0.33815971833E+03  0.80374849624E+02 0.  0.
         25    2    1    2    0    0 -0.90277689356E+02  0.12285905726E+03  0.53204895118E+03  0.56742291333E+03  0.12509303329E+03 0.  0.
        -24    2    1    2    0    0  0.25634262200E+02 -0.11130396417E+03  0.82147545049E+03  0.83331996970E+03  0.80960288458E+02 0.  0.
        -11    1    3    3    0    0  0.31485641229E+02  0.17142810661E+02 -0.25937355661E+03  0.26183938479E+03  0.00000000000E+00 0.  1.
         12    1    3    3    0    0  0.33157785928E+02 -0.28697903750E+02 -0.62464268699E+02  0.76320333538E+02  0.00000000000E+00 0. -1.
         13    1    5    5    0    0  0.53050426418E+02 -0.60070323434E+02  0.53944131118E+03  0.54536200795E+03  0.00000000000E+00 0. -1.
        -14    1    5    5    0    0 -0.27416164218E+02 -0.51233640737E+02  0.28203413930E+03  0.28795796175E+03  0.00000000000E+00 0.  1.
          5    1    4    4  501    0  0.28288481533E+02  0.29845672705E+02  0.68803130894E+02  0.80264223584E+02  0.41800000000E+01 0. -1.
         -5    1    4    4    0  501 -0.11856617089E+03  0.93013384556E+02  0.46324582028E+03  0.48715868975E+03  0.41800000000E+01 0. -1.
</event>
<event>
11    1  0.8299058E-009  0.1336263E+03  0.7561462E-02  0.1114892E+00
         22   -1    0    0    0    0  0.00000000000E+00  0.00000000000E+00  0.22270544799E+03  0.22270544799E+03  0.00000000000E+00 0.  1.
         22   -1    0    0    0    0 -0.00000000000E+00 -0.00000000000E+00 -0.34851326050E+03  0.34851326050E+03  0.00000000000E+00 0. -1.
        -24    2    1    2    0    0  0.81492566168E+01  0.62944943733E+00 -0.23406568617E+03  0.24775278858E+03  0.80795372512E+02 0.  0.
         25    2    1    2    0    0 -0.42489658997E+02 -0.31647645032E+02 -0.46913526291E+02  0.14371205628E+03  0.12508130002E+03 0.  0.
         24    2    1    2    0    0  0.34340402381E+02  0.31018195595E+02  0.15517139995E+03  0.17975386363E+03  0.78050601750E+02 0.  0.
        -11    1    5    5    0    0  0.45703958696E+02  0.47205946093E+02  0.14057515280E+03  0.15517289316E+03  0.00000000000E+00 0.  1.
         12    1    5    5    0    0 -0.11363556315E+02 -0.16187750499E+02  0.14596247152E+02  0.24580970470E+02  0.00000000000E+00 0. -1.
         11    1    3    3    0    0 -0.18698170021E+02  0.80448935364E+01 -0.20988017910E+03  0.21086496024E+03  0.00000000000E+00 0. -1.
        -12    1    3    3    0    0  0.26847426638E+02 -0.74154440991E+01 -0.24185507063E+02  0.36887828348E+02  0.00000000000E+00 0.  1.
          5    1    4    4  501    0  0.31624415139E+02 -0.27329820723E+02  0.17335350293E+02  0.45442375636E+02  0.41800000000E+01 0. -1.
         -5    1    4    4    0  501 -0.74114074136E+02 -0.43178243090E+01 -0.64248876584E+02  0.98269680646E+02  0.41800000000E+01 0. -1.
</event>
<event>
11    1  0.8299058E-009  0.1659123E+03  0.7561462E-02  0.1081645E+00
         22   -1    0    0    0    0  0.00000000000E+00  0.00000000000E+00  0.20338451225E+04  0.20338451225E+04  0.00000000000E+00 0.  1.
         22   -1    0    0    0    0 -0.00000000000E+00 -0.00000000000E+00 -0.52891502956E+02  0.52891502956E+02  0.00000000000E+00 0. -1.
         24    2    1    2    0    0  0.22963142492E+01  0.21523865400E+02  0.11609190513E+02  0.81293276515E+02  0.77493700785E+02 0.  0.
         25    2    1    2    0    0 -0.35832549152E+02  0.85649564938E+02  0.38839378717E+03  0.41846943526E+03  0.12508842787E+03 0.  0.
        -24    2    1    2    0    0  0.33536234903E+02 -0.10717343034E+03  0.15809506419E+04  0.15869739137E+04  0.80439091639E+02 0.  0.
        -13    1    3    3    0    0  0.34400894256E+02  0.17075922000E+02  0.25426254112E+02  0.46059776768E+02  0.00000000000E+00 0.  1.
         14    1    3    3    0    0 -0.32104580007E+02  0.44479433995E+01 -0.13817063599E+02  0.35233499747E+02  0.00000000000E+00 0. -1.
         11    1    5    5    0    0 -0.22260047820E+02 -0.36043349401E+02  0.32085808683E+03  0.32364261872E+03  0.00000000000E+00 0. -1.
        -12    1    5    5    0    0  0.55796282723E+02 -0.71130080937E+02  0.12600925550E+04  0.12633312950E+04  0.00000000000E+00 0.  1.
          5    1    4    4  501    0  0.39617579742E+02  0.23081729383E+02  0.59369469283E+02  0.75130054830E+02  0.41800000000E+01 0.  1.
         -5    1    4    4    0  501 -0.75450128893E+02  0.62567835555E+02  0.32902431788E+03  0.34333938043E+03  0.41800000000E+01 0.  1.
</event>
<event>
11    1  0.8299058E-009  0.2538686E+03  0.7561462E-02  0.1021858E+00
         22   -1    0    0    0    0  0.00000000000E+00  0.00000000000E+00  0.26294549820E+03  0.26294549820E+03  0.00000000000E+00 0.  1.
         22   -1    0    0    0    0 -0.00000000000E+00 -0.00000000000E+00 -0.66539486292E+03  0.66539486292E+03  0.00000000000E+00 0.  1.
        -24    2    1    2    0    0 -0.13282169198E+03 -0.10227500641E+03 -0.40300287795E+03  0.44372240836E+03  0.79852847485E+02 0.  0.
         25    2    1    2    0    0  0.19696639685E+00 -0.12065508930E+03 -0.92862567655E+02  0.19705271274E+03  0.12509446734E+03 0.  0.
         24    2    1    2    0    0  0.13262472558E+03  0.22293009570E+03  0.93416080883E+02  0.28756524002E+03  0.81731619911E+02 0.  0.
        -13    1    5    5    0    0  0.13579025469E+03  0.21254671121E+03  0.10361161926E+03  0.27267281742E+03  0.00000000000E+00 0.  1.
         14    1    5    5    0    0 -0.31655291124E+01  0.10383384493E+02 -0.10195538372E+02  0.14892422596E+02  0.00000000000E+00 0. -1.
         11    1    3    3    0    0 -0.62075057665E+02 -0.21390660578E+01 -0.15755262821E+03  0.16935382796E+03  0.00000000000E+00 0. -1.
        -12    1    3    3    0    0 -0.70746634314E+02 -0.10013594035E+03 -0.24545024973E+03  0.27436858040E+03  0.00000000000E+00 0.  1.
          5    1    4    4  501    0 -0.77926706395E+01 -0.37438298576E+02  0.29724432126E+02  0.48614464732E+02  0.41800000000E+01 0.  1.
         -5    1    4    4    0  501  0.79896370363E+01 -0.83216790719E+02 -0.12258699978E+03  0.14843824801E+03  0.41800000000E+01 0.  1.
</event>
<event>
11    1  0.8299058E-009  0.1421925E+03  0.7561462E-02  0.1105135E+00
         22   -1    0    0    0    0  0.00000000000E+00  0.00000000000E+00  0.87471554015E+03  0.87471554015E+03  0.00000000000E+00 0. -1.
         22   -1    0    0    0    0 -0.00000000000E+00 -0.00000000000E+00 -0.16221623543E+03  0.16221623543E+03  0.00000000000E+00 0. -1.
         24    2    1    2    0    0 -0.13651448354E+02  0.34174154879E+02 -0.88370196917E+02  0.12606856575E+03  0.82035094091E+02 0.  0.
         25    2    1    2    0    0  0.79489192460E+02 -0.42810051973E+02  0.64313136421E+02  0.16713943680E+03  0.12509268383E+03 0.  0.
        -24    2    1    2    0    0 -0.65837744106E+02  0.86358970940E+01  0.73655636522E+03  0.74372377303E+03  0.78743788069E+02 0.  0.
        -13    1    3    3    0    0  0.23032976079E+02 -0.26927548406E+01  0.39037497557E+00  0.23193130628E+02  0.00000000000E+00 0.  1.
         14    1    3    3    0    0 -0.36684424433E+02  0.36866909720E+02 -0.88760571893E+02  0.10287543512E+03  0.00000000000E+00 0. -1.
         13    1    5    5    0    0 -0.74415719932E+02  0.20704403789E+01  0.72071714215E+03  0.72455171319E+03  0.00000000000E+00 0. -1.
        -14    1    5    5    0    0  0.85779758258E+01  0.65654567151E+01  0.15839223067E+02  0.19172059840E+02  0.00000000000E+00 0.  1.
          5    1    4    4  501    0  0.55523443487E+02  0.28255377197E+02 -0.79071930177E+01  0.62938185695E+02  0.41800000000E+01 0.  1.
         -5    1    4    4    0  501  0.23965748973E+02 -0.71065429171E+02  0.72220329438E+02  0.10420125110E+03  0.41800000000E+01 0.  1.
</event>
<event>
11    1  0.8299058E-009  0.1410662E+03  0.7561462E-02  0.1106374E+00
         22   -1    0    0    0    0  0.00000000000E+00  0.00000000000E+00  0.89045294823E+03  0.89045294823E+03  0.00000000000E+00 0.  1.
         22   -1    0    0    0    0 -0.00000000000E+00 -0.00000000000E+00 -0.16279124411E+04  0.16279124411E+04  0.00000000000E+00 0.  1.
         24    2    1    2    0    0  0.79664652240E+01 -0.26518583262E+02 -0.10898621933E+04  0.10932075858E+04  0.80848782466E+02 0.  0.
         25    2    1    2    0    0 -0.64039957629E+02  0.59434563598E+02 -0.52175386744E+03  0.54361240131E+03  0.12511499167E+03 0.  0.
        -24    2    1    2    0    0  0.56073492405E+02 -0.32915980336E+02  0.87415656784E+03  0.88154540216E+03  0.93514130833E+02 0.  0.
        -11    1    3    3    0    0 -0.33411204728E+00  0.10676209276E+02 -0.87009558807E+03  0.87016114913E+03  0.00000000000E+00 0.  1.
         12    1    3    3    0    0  0.83005772712E+01 -0.37194792538E+02 -0.21976660518E+03  0.22304643670E+03  0.00000000000E+00 0. -1.
         11    1    5    5    0    0 -0.38057686368E+01  0.19746720617E+02  0.55806468517E+02  0.59319295160E+02  0.00000000000E+00 0. -1.
        -12    1    5    5    0    0  0.59879261042E+02 -0.52662700953E+02  0.81835009932E+03  0.82222610700E+03  0.00000000000E+00 0.  1.
          5    1    4    4  501    0 -0.75629226675E+02  0.44637134931E+02 -0.17051839221E+03  0.19184954580E+03  0.41800000000E+01 0. -1.
         -5    1    4    4    0  501  0.11589269046E+02  0.14797428668E+02 -0.35123547524E+03  0.35176285551E+03  0.41800000000E+01 0. -1.
</event>
<event>
11    1  0.8299058E-009  0.4716522E+03  0.7561462E-02  0.9459196E-01
         22   -1    0    0    0    0  0.00000000000E+00  0.00000000000E+00  0.26184420258E+04  0.26184420258E+04  0.00000000000E+00 0. -1.
         22   -1    0    0    0    0 -0.00000000000E+00 -0.00000000000E+00 -0.50400518105E+03  0.50400518105E+03  0.00000000000E+00 0. -1.
        -24    2    1    2    0    0  0.18485654573E+03  0.39713637433E+03 -0.24049436962E+03  0.50575369192E+03  0.77846083735E+02 0.  0.
         25    2    1    2    0    0 -0.48046041121E+02 -0.73471496249E+03  0.18049073367E+04  0.19533182974E+04  0.12508948366E+03 0.  0.
         24    2    1    2    0    0 -0.13681050461E+03  0.33757858816E+03  0.55002387766E+03  0.66337521746E+03  0.69742352948E+02 0.  0.
        -11    1    5    5    0    0 -0.13936130392E+03  0.32963729030E+03  0.51349965581E+03  0.62591070666E+03  0.00000000000E+00 0.  1.
         12    1    5    5    0    0  0.25507993050E+01  0.79412978628E+01  0.36524221844E+02  0.37464510809E+02  0.00000000000E+00 0. -1.
         11    1    3    3    0    0  0.22137331837E+02  0.79686572094E+02 -0.78292193491E+02  0.11388449760E+03  0.00000000000E+00 0. -1.
        -12    1    3    3    0    0  0.16271921390E+03  0.31744980224E+03 -0.16220217613E+03  0.39186919432E+03  0.00000000000E+00 0.  1.
          5    1    4    4  501    0 -0.62873540096E+02 -0.60136515071E+03  0.15751734750E+04  0.16872409654E+04  0.41800000000E+01 0.  1.
         -5    1    4    4    0  501  0.14827498974E+02 -0.13334981179E+03  0.22973386167E+03  0.26607733204E+03  0.41800000000E+01 0.  1.
</event>
<event>
11    1  0.8299058E-009  0.1355671E+03  0.7561462E-02  0.1112612E+00
         22   -1    0    0    0    0  0.00000000000E+00  0.00000000000E+00  0.24996637873E+04  0.24996637873E+04  0.00000000000E+00 0.  1.
         22   -1    0    0    0    0 -0.00000000000E+00 -0.00000000000E+00 -0.15495315854E+03  0.15495315854E+03  0.00000000000E+00 0. -1.
        -24    2    1    2    0    0  0.42312180976E+02  0.30610207669E+02 -0.13447788248E+03  0.16466187115E+03  0.79384667686E+02 0.  0.
         25    2    1    2    0    0 -0.26766511552E+02 -0.57535765668E+02  0.12303571153E+04  0.12383264607E+04  0.12508789492E+03 0.  0.
         24    2    1    2    0    0 -0.15545669424E+02  0.26925557999E+02  0.12488313959E+04  0.12516286141E+04  0.77638125603E+02 0.  0.
        -13    1    5    5    0    0  0.20367335208E+02  0.31583094104E+02  0.92786164813E+03  0.92862239810E+03  0.00000000000E+00 0.  1.
         14    1    5    5    0    0 -0.35913004631E+02 -0.46575361053E+01  0.32096974781E+03  0.32300621596E+03  0.00000000000E+00 0. -1.
         11    1    3    3    0    0  0.57216086936E+02  0.13519430135E+02 -0.12834654461E+03  0.14117114120E+03  0.00000000000E+00 0. -1.
        -12    1    3    3    0    0 -0.14903905960E+02  0.17090777534E+02 -0.61313378694E+01  0.23490729952E+02  0.00000000000E+00 0.  1.
          5    1    4    4  501    0  0.24229767175E+02 -0.41465858672E+02  0.10233467264E+04  0.10244815733E+04  0.41800000000E+01 0. -1.
         -5    1    4    4    0  501 -0.50996278727E+02 -0.16069906996E+02  0.20701038890E+03  0.21384488740E+03  0.41800000000E+01 0. -1.
</event>
<event>
11    1  0.8299058E-009  0.2191089E+03  0.7561462E-02  0.1041777E+00
         22   -1    0    0    0    0  0.00000000000E+00  0.00000000000E+00  0.14172532227E+04  0.14172532227E+04  0.00000000000E+00 0.  1.
         22   -1    0    0    0    0 -0.00000000000E+00 -0.00000000000E+00 -0.82943250477E+03  0.82943250477E+03  0.00000000000E+00 0.  1.
        -24    2    1    2    0    0 -0.15928017457E+01  0.33401168363E+02 -0.75881218613E+03  0.76376874646E+03  0.80178483263E+02 0.  0.
         25    2    1    2    0    0 -0.15837910946E+03  0.53180682483E+02  0.12105269697E+03  0.24127449934E+03  0.12508997275E+03 0.  0.
         24    2    1    2    0    0  0.15997191121E+03 -0.86581850846E+02  0.12255802071E+04  0.12416424817E+04  0.80881264820E+02 0.  0.
        -13    1    5    5    0    0  0.98288326536E+02 -0.89854772469E+02  0.71059211969E+03  0.72296309438E+03  0.00000000000E+00 0.  1.
         14    1    5    5    0    0  0.61683584673E+02  0.32729216229E+01  0.51498808738E+03  0.51867938727E+03  0.00000000000E+00 0. -1.
         13    1    3    3    0    0  0.14227267686E+02  0.36009307493E+02 -0.15564318810E+03  0.16038668078E+03  0.00000000000E+00 0. -1.
        -14    1    3    3    0    0 -0.15820069432E+02 -0.26081391302E+01 -0.60316899804E+03  0.60338206567E+03  0.00000000000E+00 0.  1.
          5    1    4    4  501    0 -0.78360892470E+02 -0.16399346968E+02  0.10778091683E+03  0.13432634322E+03  0.41800000000E+01 0. -1.
         -5    1    4    4    0  501 -0.80018216994E+02  0.69580029451E+02  0.13271780140E+02  0.10694815612E+03  0.41800000000E+01 0. -1.
</event>
<event>
11    1  0.1055542E-008  0.1486396E+03  0.7561462E-02  0.1098277E+00
         22   -1    0    0    0    0  0.00000000000E+00  0.00000000000E+00  0.62793950308E+03  0.62793950308E+03  0.00000000000E+00 0. -1.
         22   -1    0    0    0    0 -0.00000000000E+00 -0.00000000000E+00 -0.13607447463E+04  0.13607447463E+04  0.00000000000E+00 0.  1.
         24    2    1    2    0    0 -0.69028841490E+01  0.62810338685E+01 -0.11014829176E+04  0.11045045479E+04  0.81108430003E+02 0.  0.
         25    2    1    2    0    0 -0.69372967969E+02 -0.31622410830E+02 -0.23128468517E+03  0.27377652019E+03  0.12509353246E+03 0.  0.
        -24    2    1    2    0    0  0.76275852118E+02  0.25341376961E+02  0.59996235955E+03  0.61040318127E+03  0.78594019004E+02 0.  0.
        -11    1    3    3    0    0 -0.28857335798E+02  0.10848943961E+02 -0.10040967519E+04  0.10045699242E+04  0.00000000000E+00 0.  1.
         12    1    3    3    0    0  0.21954451649E+02 -0.45679100927E+01 -0.97386165628E+02  0.99934623658E+02  0.00000000000E+00 0. -1.
         13    1    5    5    0    0  0.88008893409E+02  0.96292339495E+01  0.54275054723E+03  0.54992403474E+03  0.00000000000E+00 0. -1.
        -14    1    5    5    0    0 -0.11733041291E+02  0.15712143012E+02  0.57211812319E+02  0.60479146528E+02  0.00000000000E+00 0.  1.
          5    1    4    4  501    0  0.33080312789E+02 -0.11302877173E+02 -0.99640708079E+02  0.10567783700E+03  0.41800000000E+01 0. -1.
         -5    1    4    4    0  501 -0.10245328076E+03 -0.20319533657E+02 -0.13164397709E+03  0.16809868319E+03  0.41800000000E+01 0. -1.
</event>
<event>
11    1  0.8299058E-009  0.1801905E+03  0.7561462E-02  0.1069489E+00
         22   -1    0    0    0    0  0.00000000000E+00  0.00000000000E+00  0.29888990321E+04  0.29888990321E+04  0.00000000000E+00 0. -1.
         22   -1    0    0    0    0 -0.00000000000E+00 -0.00000000000E+00 -0.46694385956E+03  0.46694385956E+03  0.00000000000E+00 0.  1.
         24    2    1    2    0    0 -0.27622114281E+02 -0.25298241001E+02 -0.42702124082E+03  0.43567682030E+03  0.77872777241E+02 0.  0.
         25    2    1    2    0    0 -0.36023720213E+02  0.13770717823E+03  0.23478848615E+03  0.30171788756E+03  0.12508826919E+03 0.  0.
        -24    2    1    2    0    0  0.63645834494E+02 -0.11240893723E+03  0.27141879272E+04  0.27184481838E+04  0.80360826557E+02 0.  0.
        -13    1    3    3    0    0 -0.40374099401E+02 -0.45993338778E+02 -0.27528868405E+03  0.28200942304E+03  0.00000000000E+00 0.  1.
         14    1    3    3    0    0  0.12751985120E+02  0.20695097778E+02 -0.15173255677E+03  0.15366739726E+03  0.00000000000E+00 0. -1.
         11    1    5    5    0    0  0.78603303517E+02 -0.83340489177E+02  0.23518503205E+04  0.23546388357E+04  0.00000000000E+00 0. -1.
        -12    1    5    5    0    0 -0.14957469022E+02 -0.29068448055E+02  0.36233760666E+03  0.36380934808E+03  0.00000000000E+00 0.  1.
          5    1    4    4  501    0 -0.27112911986E+02  0.40639900041E+01  0.12628109573E+03  0.12929042328E+03  0.41800000000E+01 0.  1.
         -5    1    4    4    0  501 -0.89108082278E+01  0.13364318823E+03  0.10850739042E+03  0.17242746428E+03  0.41800000000E+01 0.  1.
</event>
<event>
11    1  0.8299058E-009  0.2386085E+03  0.7561462E-02  0.1030149E+00
         22   -1    0    0    0    0  0.00000000000E+00  0.00000000000E+00  0.22137711163E+04  0.22137711163E+04  0.00000000000E+00 0. -1.
         22   -1    0    0    0    0 -0.00000000000E+00 -0.00000000000E+00 -0.82204277193E+03  0.82204277193E+03  0.00000000000E+00 0.  1.
         24    2    1    2    0    0  0.10372807125E+03 -0.65851851070E+02 -0.75179715663E+03  0.76593464425E+03  0.79755473067E+02 0.  0.
         25    2    1    2    0    0 -0.28392897798E+03  0.12994075295E+03  0.44030861301E+03  0.55409197318E+03  0.12508387679E+03 0.  0.
        -24    2    1    2    0    0  0.18020090673E+03 -0.64088901876E+02  0.17032168880E+04  0.17157872708E+04  0.79990230502E+02 0.  0.
        -13    1    3    3    0    0  0.72676337856E+02 -0.33413979991E+02 -0.25838081640E+03  0.27047918668E+03  0.00000000000E+00 0.  1.
         14    1    3    3    0    0  0.31051733398E+02 -0.32437871079E+02 -0.49341634023E+03  0.49545545757E+03  0.00000000000E+00 0. -1.
         11    1    5    5    0    0  0.10662153835E+03 -0.78413228479E+02  0.10865471492E+04  0.10945782267E+04  0.00000000000E+00 0. -1.
        -12    1    5    5    0    0  0.73579368383E+02  0.14324326603E+02  0.61666973881E+03  0.62120904416E+03  0.00000000000E+00 0.  1.
          5    1    4    4  501    0 -0.21687514357E+03  0.56143506690E+02  0.36801938516E+03  0.43086269448E+03  0.41800000000E+01 0.  1.
         -5    1    4    4    0  501 -0.67053834411E+02  0.73797246256E+02  0.72289227850E+02  0.12322927869E+03  0.41800000000E+01 0.  1.
</event>
<event>
11    1  0.1566404E-008  0.1928006E+03  0.7561462E-02  0.1059735E+00
         22   -1    0    0    0    0  0.00000000000E+00  0.00000000000E+00  0.82876207925E+03  0.82876207925E+03  0.00000000000E+00 0.  1.
         22   -1    0    0    0    0 -0.00000000000E+00 -0.00000000000E+00 -0.19698695908E+04  0.19698695908E+04  0.00000000000E+00 0.  1.
        -24    2    1    2    0    0  0.26645115634E+02  0.23048829165E+02 -0.12628719613E+04  0.12659511939E+04  0.80905031576E+02 0.  0.
         25    2    1    2    0    0 -0.73631447109E+02  0.11613328294E+03 -0.68299883457E+03  0.70784465347E+03  0.12509242989E+03 0.  0.
         24    2    1    2    0    0  0.46986331476E+02 -0.13918211211E+03  0.80476328428E+03  0.82483582267E+03  0.10550267750E+03 0.  0.
        -11    1    5    5    0    0  0.71829407913E+02 -0.92477783469E+02  0.66823680956E+03  0.67841877769E+03  0.00000000000E+00 0.  1.
         12    1    5    5    0    0 -0.24843076438E+02 -0.46704328638E+02  0.13652647472E+03  0.14641704497E+03  0.00000000000E+00 0. -1.
         13    1    3    3    0    0 -0.25773473434E+02 -0.71677047107E+01 -0.30537475374E+03  0.30654426784E+03  0.00000000000E+00 0. -1.
        -14    1    3    3    0    0  0.52418589068E+02  0.30216533875E+02 -0.95749720752E+03  0.95940692608E+03  0.00000000000E+00 0.  1.
          5    1    4    4  501    0 -0.66178702317E+02  0.65578041822E+02 -0.18464958874E+03  0.20686479456E+03  0.41800000000E+01 0. -1.
         -5    1    4    4    0  501 -0.74527447921E+01  0.50555241120E+02 -0.49834924583E+03  0.50097985891E+03  0.41800000000E+01 0. -1.
</event>
<event>
11    1  0.8299058E-009  0.1380539E+03  0.7561462E-02  0.1109751E+00
         22   -1    0    0    0    0  0.00000000000E+00  0.00000000000E+00  0.15938341493E+04  0.15938341493E+04  0.00000000000E+00 0.  1.
         22   -1    0    0    0    0 -0.00000000000E+00 -0.00000000000E+00 -0.56896752939E+02  0.56896752939E+02  0.00000000000E+00 0.  1.
        -24    2    1    2    0    0  0.40671043665E+02 -0.22115782367E+02  0.45651598461E+02  0.10221711451E+03  0.78873496401E+02 0.  0.
         25    2    1    2    0    0 -0.41275892579E+02  0.78981019888E+02  0.19380945467E+03  0.24728823427E+03  0.12509062826E+03 0.  0.
         24    2    1    2    0    0  0.60484891428E+00 -0.56865237520E+02  0.12974763433E+04  0.13012255535E+04  0.80678737251E+02 0.  0.
        -11    1    5    5    0    0 -0.32020626290E+02 -0.54463322800E+02  0.98997983364E+03  0.99199377269E+03  0.00000000000E+00 0.  1.
         12    1    5    5    0    0  0.32625475205E+02 -0.24019147198E+01  0.30749650961E+03  0.30923178079E+03  0.00000000000E+00 0. -1.
         11    1    3    3    0    0  0.29231911101E+02 -0.13176777741E+02  0.68221643726E+02  0.75381196402E+02  0.00000000000E+00 0. -1.
        -12    1    3    3    0    0  0.11439132564E+02 -0.89390046265E+01 -0.22570045265E+02  0.26835918110E+02  0.00000000000E+00 0.  1.
          5    1    4    4  501    0 -0.69065018622E+02  0.47771928667E+02  0.50790534965E+02  0.98230773222E+02  0.41800000000E+01 0.  1.
         -5    1    4    4    0  501  0.27789126043E+02  0.31209091221E+02  0.14301891971E+03  0.14905746105E+03  0.41800000000E+01 0.  1.
</event>
<event>
11    1  0.8299058E-009  0.1366533E+03  0.7561462E-02  0.1111354E+00
         22   -1    0    0    0    0  0.00000000000E+00  0.00000000000E+00  0.51525813874E+03  0.51525813874E+03  0.00000000000E+00 0.  1.
         22   -1    0    0    0    0 -0.00000000000E+00 -0.00000000000E+00 -0.76080122296E+02  0.76080122296E+02  0.00000000000E+00 0.  1.
        -24    2    1    2    0    0 -0.12303056599E+02  0.18391690859E+02  0.46280989960E+02  0.10135525429E+03  0.87414747298E+02 0.  0.
         25    2    1    2    0    0  0.42649268615E+02 -0.60285957863E+02  0.86295924757E+02  0.16896102776E+03  0.12508990944E+03 0.  0.
         24    2    1    2    0    0 -0.30346212016E+02  0.41894267004E+02  0.30660110173E+03  0.32102197899E+03  0.79842677958E+02 0.  0.
        -13    1    5    5    0    0 -0.51705499037E+02  0.50343784132E+02  0.23238941997E+03  0.24333679900E+03  0.00000000000E+00 0.  1.
         14    1    5    5    0    0  0.21359287021E+02 -0.84495171281E+01  0.74211681759E+02  0.77685179998E+02  0.00000000000E+00 0. -1.
         11    1    3    3    0    0 -0.49466337446E+02  0.10124845847E+02  0.16833164045E+02  0.53223927471E+02  0.00000000000E+00 0. -1.
        -12    1    3    3    0    0  0.37163280847E+02  0.82668450123E+01  0.29447825915E+02  0.48131326814E+02  0.00000000000E+00 0.  1.
          5    1    4    4  501    0  0.69730980112E+02  0.59329868083E+01  0.24293477273E+02  0.74197408027E+02  0.41800000000E+01 0.  1.
         -5    1    4    4    0  501 -0.27081711497E+02 -0.66218944671E+02  0.62002447484E+02  0.94763619733E+02  0.41800000000E+01 0.  1.
</event>
<event>
11    1  0.8299058E-009  0.1684165E+03  0.7561462E-02  0.1079418E+00
         22   -1    0    0    0    0  0.00000000000E+00  0.00000000000E+00  0.78248613916E+02  0.78248613916E+02  0.00000000000E+00 0. -1.
         22   -1    0    0    0    0 -0.00000000000E+00 -0.00000000000E+00 -0.13376908737E+04  0.13376908737E+04  0.00000000000E+00 0.  1.
         24    2    1    2    0    0  0.27427421887E+02  0.23080512975E+02 -0.99328378257E+03  0.99714587277E+03  0.80014031967E+02 0.  0.
         25    2    1    2    0    0 -0.12279903089E+03 -0.60150759781E+02 -0.20147138168E+03  0.27374475882E+03  0.12509100469E+03 0.  0.
        -24    2    1    2    0    0  0.95371608999E+02  0.37070246805E+02 -0.64687095564E+02  0.14504885606E+03  0.79904964244E+02 0.  0.
        -13    1    3    3    0    0  0.52237497396E+02  0.30629109037E+01 -0.74295135037E+03  0.74479181425E+03  0.00000000000E+00 0.  1.
         14    1    3    3    0    0 -0.24810075508E+02  0.20017602072E+02 -0.25033243220E+03  0.25235405852E+03  0.00000000000E+00 0. -1.
         13    1    5    5    0    0  0.58172083136E+02  0.36142945896E+02  0.21851888083E+01  0.68520645389E+02  0.00000000000E+00 0. -1.
        -14    1    5    5    0    0  0.37199525862E+02  0.92730090961E+00 -0.66872284373E+02  0.76528210671E+02  0.00000000000E+00 0.  1.
          5    1    4    4  501    0 -0.14487572171E+02 -0.74380954471E+02 -0.77955253666E+02  0.10879756481E+03  0.41800000000E+01 0.  1.
         -5    1    4    4    0  501 -0.10831145871E+03  0.14230194690E+02 -0.12351612801E+03  0.16494719400E+03  0.41800000000E+01 0.  1.
</event>
<event>
11    1  0.8299058E-009  0.1551359E+03  0.7561462E-02  0.1091743E+00
         22   -1    0    0    0    0  0.00000000000E+00  0.00000000000E+00  0.33824800531E+03  0.33824800531E+03  0.00000000000E+00 0.  1.
         22   -1    0    0    0    0 -0.00000000000E+00 -0.00000000000E+00 -0.84322915302E+03  0.84322915302E+03  0.00000000000E+00 0.  1.
         24    2    1    2    0    0  0.27284858476E+01  0.92067491448E+02 -0.78809677175E+03  0.79788045494E+03  0.83861976595E+02 0.  0.
         25    2    1    2    0    0  0.49364634034E+01 -0.81934670213E+02  0.10251542869E+03  0.18136631649E+03  0.12508664511E+03 0.  0.
        -24    2    1    2    0    0 -0.76649492509E+01 -0.10132821235E+02  0.18060019535E+03  0.20223038689E+03  0.90107010314E+02 0.  0.
        -11    1    3    3    0    0 -0.25095817968E+02  0.31043450936E+02 -0.51970392188E+03  0.52123474783E+03  0.00000000000E+00 0.  1.
         12    1    3    3    0    0  0.27824303815E+02  0.61024040513E+02 -0.26839284987E+03  0.27664570712E+03  0.00000000000E+00 0. -1.
         13    1    5    5    0    0 -0.13575204518E+02 -0.39057718936E+01 -0.60613997793E+01  0.15371460538E+02  0.00000000000E+00 0. -1.
        -14    1    5    5    0    0  0.59102552670E+01 -0.62270493417E+01  0.18666159513E+03  0.18685892635E+03  0.00000000000E+00 0.  1.
          5    1    4    4  501    0 -0.23757405866E+02 -0.50145667521E+01  0.95767161464E+02  0.98885700827E+02  0.41800000000E+01 0.  1.
         -5    1    4    4    0  501  0.28693869269E+02 -0.76920103461E+02  0.67482672248E+01  0.82480615666E+02  0.41800000000E+01 0.  1.
</event>
<event>
11    1  0.8299058E-009  0.1376044E+03  0.7561462E-02  0.1110263E+00
         22   -1    0    0    0    0  0.00000000000E+00  0.00000000000E+00  0.17075679646E+03  0.17075679646E+03  0.00000000000E+00 0.  1.
         22   -1    0    0    0    0 -0.00000000000E+00 -0.00000000000E+00 -0.21918111349E+04  0.21918111349E+04  0.00000000000E+00 0.  1.
        -24    2    1    2    0    0  0.54408996863E+02 -0.23303369053E+02 -0.20311703092E+04  0.20334937330E+04  0.77074970699E+02 0.  0.
         25    2    1    2    0    0 -0.65671703187E+01  0.17252622686E+02 -0.11554063900E+03  0.17128302747E+03  0.12508978984E+03 0.  0.
         24    2    1    2    0    0 -0.47841826545E+02  0.60507463677E+01  0.12565660978E+03  0.15779117090E+03  0.82359080456E+02 0.  0.
        -13    1    5    5    0    0 -0.11463780315E+02  0.41230807845E+02  0.73955213059E+02  0.85444551103E+02  0.00000000000E+00 0.  1.
         14    1    5    5    0    0 -0.36378046230E+02 -0.35180061477E+02  0.51701396726E+02  0.72346619800E+02  0.00000000000E+00 0. -1.
         13    1    3    3    0    0  0.54641089362E+01 -0.25319102772E+02 -0.20025207948E+03  0.20192030306E+03  0.00000000000E+00 0. -1.
        -14    1    3    3    0    0  0.48944887927E+02  0.20157337183E+01 -0.18309182298E+04  0.18315734299E+04  0.00000000000E+00 0.  1.
          5    1    4    4  501    0 -0.36994379357E+02 -0.27624378438E+02 -0.10650487487E+03  0.11615701080E+03  0.41800000000E+01 0. -1.
         -5    1    4    4    0  501  0.30427209038E+02  0.44877001123E+02 -0.90357641343E+01  0.55126016663E+02  0.41800000000E+01 0. -1.
</event>
<event>
11    1  0.8299058E-009  0.1464205E+03  0.7561462E-02  0.1100593E+00
         22   -1    0    0    0    0  0.00000000000E+00  0.00000000000E+00  0.14357273428E+04  0.14357273428E+04  0.00000000000E+00 0. -1.
         22   -1    0    0    0    0 -0.00000000000E+00 -0.00000000000E+00 -0.17516027982E+04  0.17516027982E+04  0.00000000000E+00 0. -1.
         24    2    1    2    0    0  0.68779587944E+02  0.32735158952E+02 -0.16526733278E+04  0.16564000847E+04  0.80807734399E+02 0.  0.
         25    2    1    2    0    0 -0.95965935211E+02  0.32810862398E+02 -0.26715771941E+02  0.16324085614E+03  0.12509129158E+03 0.  0.
        -24    2    1    2    0    0  0.27186347267E+02 -0.65546021351E+02  0.13635136444E+04  0.13676892001E+04  0.79805459398E+02 0.  0.
        -11    1    3    3    0    0 -0.34702451721E+01 -0.16347286275E+02 -0.11063603797E+03  0.11189105982E+03  0.00000000000E+00 0.  1.
         12    1    3    3    0    0  0.72249833116E+02  0.49082445227E+02 -0.15420372898E+04  0.15445090249E+04  0.00000000000E+00 0. -1.
         13    1    5    5    0    0 -0.25966975722E+02 -0.35095085604E+02  0.44550364151E+03  0.44763762516E+03  0.00000000000E+00 0. -1.
        -14    1    5    5    0    0  0.53153322989E+02 -0.30450935746E+02  0.91801000288E+03  0.92005157498E+03  0.00000000000E+00 0.  1.
          5    1    4    4  501    0 -0.10091531566E+03  0.86832428472E+01 -0.62875856854E+02  0.11929017317E+03  0.41800000000E+01 0.  1.
         -5    1    4    4    0  501  0.49493804473E+01  0.24127619551E+02  0.36160084913E+02  0.43950682964E+02  0.41800000000E+01 0.  1.
</event>
<event>
11    1  0.8299058E-009  0.8107255E+03  0.7561462E-02  0.8883364E-01
         22   -1    0    0    0    0  0.00000000000E+00  0.00000000000E+00  0.15079804945E+04  0.15079804945E+04  0.00000000000E+00 0.  1.
         22   -1    0    0    0    0 -0.00000000000E+00 -0.00000000000E+00 -0.17093379085E+04  0.17093379085E+04  0.00000000000E+00 0.  1.
        -24    2    1    2    0    0  0.28937162200E+03  0.75644512776E+03 -0.14754913776E+04  0.16852022091E+04  0.82985018264E+02 0.  0.
         25    2    1    2    0    0 -0.24655003309E+03 -0.66010413536E+03  0.10245854727E+04  0.12497792466E+04  0.12509350912E+03 0.  0.
         24    2    1    2    0    0 -0.42821588908E+02 -0.96340992395E+02  0.24954849092E+03  0.28233694730E+03  0.79526267346E+02 0.  0.
        -13    1    5    5    0    0 -0.33781657879E+02 -0.75886264104E+02  0.24606075440E+03  0.25970333140E+03  0.00000000000E+00 0.  1.
         14    1    5    5    0    0 -0.90399310292E+01 -0.20454728290E+02  0.34877365244E+01  0.22633615896E+02  0.00000000000E+00 0. -1.
         11    1    3    3    0    0  0.12942071155E+03  0.31881912332E+03 -0.71156883002E+03  0.79039582098E+03  0.00000000000E+00 0. -1.
        -12    1    3    3    0    0  0.15995091046E+03  0.43762600444E+03 -0.76392254762E+03  0.89480638815E+03  0.00000000000E+00 0.  1.
          5    1    4    4  501    0 -0.19318394164E+03 -0.34519133298E+03  0.54052196581E+03  0.66981979636E+03  0.41800000000E+01 0. -1.
         -5    1    4    4    0  501 -0.53366091454E+02 -0.31491280238E+03  0.48406350686E+03  0.57995945022E+03  0.41800000000E+01 0. -1.
</event>
<event>
11    1  0.8299058E-009  0.1279725E+03  0.7561462E-02  0.1121785E+00
         22   -1    0    0    0    0  0.00000000000E+00  0.00000000000E+00  0.67971817352E+03  0.67971817352E+03  0.00000000000E+00 0. -1.
         22   -1    0    0    0    0 -0.00000000000E+00 -0.00000000000E+00 -0.93783659095E+03  0.93783659095E+03  0.00000000000E+00 0. -1.
         24    2    1    2    0    0 -0.22448982217E+02  0.14219696541E+02 -0.89029600056E+03  0.89432609507E+03  0.80535949392E+02 0.  0.
         25    2    1    2    0    0  0.37529852206E+02 -0.23655227230E+02  0.57678186226E+02  0.14473100661E+03  0.12510887868E+03 0.  0.
        -24    2    1    2    0    0 -0.15080869989E+02  0.94355306892E+01  0.57449939690E+03  0.57849766279E+03  0.65525010041E+02 0.  0.
        -11    1    3    3    0    0 -0.29349388277E+02 -0.12038868771E+02 -0.14041622946E+03  0.14395498758E+03  0.00000000000E+00 0.  1.
         12    1    3    3    0    0  0.69004060593E+01  0.26258565311E+02 -0.74987977110E+03  0.75037110749E+03  0.00000000000E+00 0. -1.
         11    1    5    5    0    0 -0.89527316355E+01  0.19408135018E+02  0.55720385996E+03  0.55761363745E+03  0.00000000000E+00 0. -1.
        -12    1    5    5    0    0 -0.61281383530E+01 -0.99726043284E+01  0.17295536934E+02  0.20884025345E+02  0.00000000000E+00 0.  1.
          5    1    4    4  501    0  0.30411021967E+02  0.22916772987E+02  0.82758676808E+02  0.91194735200E+02  0.41800000000E+01 0. -1.
         -5    1    4    4    0  501  0.71188302388E+01 -0.46572000217E+02 -0.25080490582E+02  0.53536271406E+02  0.41800000000E+01 0. -1.
</event>
<event>
11    1  0.8299058E-009  0.1963552E+03  0.7561462E-02  0.1057131E+00
         22   -1    0    0    0    0  0.00000000000E+00  0.00000000000E+00  0.21647731277E+03  0.21647731277E+03  0.00000000000E+00 0.  1.
         22   -1    0    0    0    0 -0.00000000000E+00 -0.00000000000E+00 -0.53396363853E+03  0.53396363853E+03  0.00000000000E+00 0. -1.
         24    2    1    2    0    0 -0.12937187135E+02 -0.21626667673E+02 -0.28015819410E+03  0.29394935228E+03  0.85337708087E+02 0.  0.
         25    2    1    2    0    0  0.63240380583E+01 -0.13366826708E+03 -0.15953344599E+03  0.24291158463E+03  0.12509164031E+03 0.  0.
        -24    2    1    2    0    0  0.66131490763E+01  0.15529493476E+03  0.12220531434E+03  0.21358001438E+03  0.80759105924E+02 0.  0.
        -13    1    3    3    0    0 -0.30750355388E+02 -0.47148166413E+02 -0.15265128263E+03  0.16269894911E+03  0.00000000000E+00 0.  1.
         14    1    3    3    0    0  0.17813168254E+02  0.25521498740E+02 -0.12750691147E+03  0.13125040318E+03  0.00000000000E+00 0. -1.
         13    1    5    5    0    0  0.38616636630E+02  0.65389025565E+02  0.32490876123E+02  0.82599190797E+02  0.00000000000E+00 0. -1.
        -14    1    5    5    0    0 -0.32003487554E+02  0.89905909191E+02  0.89714438217E+02  0.13098082359E+03  0.00000000000E+00 0.  1.
          5    1    4    4  501    0  0.24638165085E+02 -0.15319610377E+03 -0.12687956574E+03  0.20047938047E+03  0.41800000000E+01 0.  1.
         -5    1    4    4    0  501 -0.18314127027E+02  0.19527836691E+02 -0.32653880251E+02  0.42432204162E+02  0.41800000000E+01 0.  1.
</event>
<event>
11    1  0.8299058E-009  0.1419916E+03  0.7561462E-02  0.1105355E+00
         22   -1    0    0    0    0  0.00000000000E+00  0.00000000000E+00  0.87340661256E+03  0.87340661256E+03  0.00000000000E+00 0.  1.
         22   -1    0    0    0    0 -0.00000000000E+00 -0.00000000000E+00 -0.36438903426E+03  0.36438903426E+03  0.00000000000E+00 0. -1.
        -24    2    1    2    0    0  0.65776676952E+02 -0.36062220260E+01 -0.28744347003E+03  0.30611886432E+03  0.82130594520E+02 0.  0.
         25    2    1    2    0    0 -0.75607469836E+02  0.59574842104E+02  0.32451986126E+02  0.16114137052E+03  0.12509100121E+03 0.  0.
         24    2    1    2    0    0  0.98307928842E+01 -0.55968620078E+02  0.76400906220E+03  0.77053541198E+03  0.82376228794E+02 0.  0.
        -13    1    5    5    0    0 -0.94136505321E+01 -0.69447958492E+02  0.66914234803E+03  0.67280243585E+03  0.00000000000E+00 0.  1.
         14    1    5    5    0    0  0.19244443416E+02  0.13479338413E+02  0.94866714171E+02  0.97732976134E+02  0.00000000000E+00 0. -1.
         11    1    3    3    0    0  0.65663294140E+02 -0.31807723961E+02 -0.16404459762E+03  0.17953837893E+03  0.00000000000E+00 0. -1.
        -12    1    3    3    0    0  0.11338281213E+00  0.28201501935E+02 -0.12339887241E+03  0.12658048538E+03  0.00000000000E+00 0.  1.
          5    1    4    4  501    0 -0.93430563836E+02  0.37527432456E+01 -0.86692014695E+00  0.93603297437E+02  0.41800000000E+01 0. -1.
         -5    1    4    4    0  501  0.17823094000E+02  0.55822098859E+02  0.33318906273E+02  0.67538073084E+02  0.41800000000E+01 0. -1.
</event>
<event>
11    1  0.1347029E-008  0.1739352E+03  0.7561462E-02  0.1074657E+00
         22   -1    0    0    0    0  0.00000000000E+00  0.00000000000E+00  0.14157071119E+04  0.14157071119E+04  0.00000000000E+00 0. -1.
         22   -1    0    0    0    0 -0.00000000000E+00 -0.00000000000E+00 -0.82250448970E+03  0.82250448970E+03  0.00000000000E+00 0.  1.
        -24    2    1    2    0    0  0.10020100373E+03  0.37815921531E+02 -0.48521490727E+03  0.50341861918E+03  0.80786848157E+02 0.  0.
         25    2    1    2    0    0 -0.17401520242E+03 -0.13215061981E+03 -0.27550798889E+03  0.37322758426E+03  0.12509636573E+03 0.  0.
         24    2    1    2    0    0  0.73814198689E+02  0.94334698281E+02  0.13539255184E+04  0.13615653982E+04  0.79990330684E+02 0.  0.
        -13    1    5    5    0    0  0.60013905235E+02  0.27285360383E+02  0.42085960695E+03  0.42599174695E+03  0.00000000000E+00 0.  1.
         14    1    5    5    0    0  0.13800293453E+02  0.67049337897E+02  0.93306591144E+03  0.93557365124E+03  0.00000000000E+00 0. -1.
         11    1    3    3    0    0  0.15886010127E+02  0.42341451702E+02 -0.11229591641E+03  0.12106005408E+03  0.00000000000E+00 0. -1.
        -12    1    3    3    0    0  0.84314993606E+02 -0.45255301719E+01 -0.37291899086E+03  0.38235856511E+03  0.00000000000E+00 0.  1.
          5    1    4    4  501    0 -0.38755405384E+02 -0.76427167694E+01 -0.13802423267E+03  0.14362643827E+03  0.41800000000E+01 0. -1.
         -5    1    4    4    0  501 -0.13525979704E+03 -0.12450790304E+03 -0.13748375622E+03  0.22960114599E+03  0.41800000000E+01 0. -1.
</event>
<event>
11    1  0.8299058E-009  0.1303235E+03  0.7561462E-02  0.1118872E+00
         22   -1    0    0    0    0  0.00000000000E+00  0.00000000000E+00  0.25463574268E+04  0.25463574268E+04  0.00000000000E+00 0. -1.
         22   -1    0    0    0    0 -0.00000000000E+00 -0.00000000000E+00 -0.59026670054E+02  0.59026670054E+02  0.00000000000E+00 0.  1.
        -24    2    1    2    0    0  0.15835450149E+02 -0.18018285994E+01 -0.25024511768E+02  0.82488951070E+02  0.76968778031E+02 0.  0.
         25    2    1    2    0    0 -0.43495010671E+02  0.19755300499E+02  0.11278478037E+04  0.11357685246E+04  0.12508950940E+03 0.  0.
         24    2    1    2    0    0  0.27659560522E+02 -0.17953471899E+02  0.13845074648E+04  0.13871266211E+04  0.78561851843E+02 0.  0.
        -11    1    5    5    0    0 -0.10591713443E+02  0.66195629207E+00  0.27866741451E+02  0.29819085480E+02  0.00000000000E+00 0.  1.
         12    1    5    5    0    0  0.38251273966E+02 -0.18615428191E+02  0.13566407233E+04  0.13573075357E+04  0.00000000000E+00 0. -1.
         13    1    3    3    0    0  0.81937688209E+01 -0.15734336806E+02  0.24630048620E+02  0.30353690010E+02  0.00000000000E+00 0. -1.
        -14    1    3    3    0    0  0.76416813280E+01  0.13932508206E+02 -0.49654560388E+02  0.52135261060E+02  0.00000000000E+00 0.  1.
          5    1    4    4  501    0 -0.43555387279E+02 -0.25546166868E+02  0.18468097494E+03  0.19150512607E+03  0.41800000000E+01 0.  1.
         -5    1    4    4    0  501  0.60376607785E-01  0.45301467367E+02  0.94316682877E+03  0.94426339857E+03  0.41800000000E+01 0.  1.
</event>
<event>
11    1  0.8299058E-009  0.1489737E+03  0.7561462E-02  0.1097932E+00
         22   -1    0    0    0    0  0.00000000000E+00  0.00000000000E+00  0.59903413621E+03  0.59903413621E+03  0.00000000000E+00 0.  1.
         22   -1    0    0    0    0 -0.00000000000E+00 -0.00000000000E+00 -0.14716795353E+03  0.14716795353E+03  0.00000000000E+00 0. -1.
         24    2    1    2    0    0 -0.40567273467E+01  0.38589830928E+01 -0.73795931772E+02  0.10722584163E+03  0.77589901272E+02 0.  0.
         25    2    1    2    0    0  0.15700103957E+02 -0.83403904063E+02  0.64855378602E+02  0.16447823442E+03  0.12507663646E+03 0.  0.
        -24    2    1    2    0    0 -0.11643376610E+02  0.79544920970E+02  0.46080673586E+03  0.47449801369E+03  0.79640156429E+02 0.  0.
        -11    1    3    3    0    0  0.22713580235E+02 -0.94820563776E+01  0.30144914064E+01  0.24797243369E+02  0.00000000000E+00 0.  1.
         12    1    3    3    0    0 -0.26770307582E+02  0.13341039470E+02 -0.76810423179E+02  0.82428598260E+02  0.00000000000E+00 0. -1.
         11    1    5    5    0    0  0.33500444689E+02  0.34454329447E+02  0.23421556055E+03  0.23909477078E+03  0.00000000000E+00 0. -1.
        -12    1    5    5    0    0 -0.45143821299E+02  0.45090591523E+02  0.22659117531E+03  0.23540324291E+03  0.00000000000E+00 0.  1.
          5    1    4    4  501    0  0.17082940293E+02 -0.39195944067E+02 -0.34852796384E+02  0.55320328055E+02  0.41800000000E+01 0.  1.
         -5    1    4    4    0  501 -0.13828363362E+01 -0.44207959996E+02  0.99708174986E+02  0.10915790637E+03  0.41800000000E+01 0.  1.
</event>
<event>
11    1  0.8299058E-009  0.1305435E+03  0.7561462E-02  0.1118603E+00
         22   -1    0    0    0    0  0.00000000000E+00  0.00000000000E+00  0.22145188687E+03  0.22145188687E+03  0.00000000000E+00 0. -1.
         22   -1    0    0    0    0 -0.00000000000E+00 -0.00000000000E+00 -0.70728009190E+03  0.70728009190E+03  0.00000000000E+00 0.  1.
        -24    2    1    2    0    0 -0.37230490574E+02 -0.58387361714E+01 -0.63362826084E+03  0.63973984920E+03  0.79762782402E+02 0.  0.
         25    2    1    2    0    0  0.28299608636E+02  0.10464696023E+02  0.85958940491E+01  0.12896312539E+03  0.12508885084E+03 0.  0.
         24    2    1    2    0    0  0.89308819376E+01 -0.46259598514E+01  0.13920416176E+03  0.16002900417E+03  0.78296381579E+02 0.  0.
        -11    1    5    5    0    0  0.29682991348E+01 -0.14698765420E+02 -0.46496123260E+01  0.15699789789E+02  0.00000000000E+00 0.  1.
         12    1    5    5    0    0  0.59625828027E+01  0.10072805569E+02  0.14385377409E+03  0.14432921438E+03  0.00000000000E+00 0. -1.
         11    1    3    3    0    0  0.10529741347E+02 -0.47847597880E+01 -0.13511313905E+02  0.17785527333E+02  0.00000000000E+00 0. -1.
        -12    1    3    3    0    0 -0.47760231920E+02 -0.10539763833E+01 -0.62011694693E+03  0.62195432187E+03  0.00000000000E+00 0.  1.
          5    1    4    4  501    0  0.52683739585E+02  0.53766995745E+02 -0.93320974883E+01  0.75967273820E+02  0.41800000000E+01 0. -1.
         -5    1    4    4    0  501 -0.24384130948E+02 -0.43302299722E+02  0.17927991537E+02  0.52995851572E+02  0.41800000000E+01 0. -1.
</event>
<event>
11    1  0.8299058E-009  0.2005826E+03  0.7561462E-02  0.1054112E+00
         22   -1    0    0    0    0  0.00000000000E+00  0.00000000000E+00  0.31067447636E+03  0.31067447636E+03  0.00000000000E+00 0.  1.
         22   -1    0    0    0    0 -0.00000000000E+00 -0.00000000000E+00 -0.71433532269E+03  0.71433532269E+03  0.00000000000E+00 0.  1.
         24    2    1    2    0    0  0.99996825333E+02 -0.23647085379E+02 -0.29033909837E+03  0.32039874582E+03  0.88317691062E+02 0.  0.
         25    2    1    2    0    0 -0.21428484395E+03  0.12106418847E+03 -0.32928946950E+03  0.42971398947E+03  0.12509206987E+03 0.  0.
        -24    2    1    2    0    0  0.11428801862E+03 -0.97417103093E+02  0.21596772154E+03  0.27489706376E+03  0.79840439254E+02 0.  0.
        -11    1    3    3    0    0  0.10991874271E+03 -0.26175102414E+02 -0.28870690996E+03  0.31003055631E+03  0.00000000000E+00 0.  1.
         12    1    3    3    0    0 -0.99219173805E+01  0.25280170346E+01 -0.16321884083E+01  0.10368189506E+02  0.00000000000E+00 0. -1.
         11    1    5    5    0    0  0.10288163904E+02 -0.52952411545E+02  0.95298446359E+02  0.10950615546E+03  0.00000000000E+00 0. -1.
        -12    1    5    5    0    0  0.10399985471E+03 -0.44464691548E+02  0.12066927518E+03  0.16539090830E+03  0.00000000000E+00 0.  1.
          5    1    4    4  501    0 -0.44723661023E+02 -0.59041816670E+01 -0.13443561496E+03  0.14186427382E+03  0.41800000000E+01 0.  1.
         -5    1    4    4    0  501 -0.16956118293E+03  0.12696837014E+03 -0.19485385455E+03  0.28784971566E+03  0.41800000000E+01 0.  1.
</event>
<event>
11    1  0.8299058E-009  0.1965537E+03  0.7561462E-02  0.1056988E+00
         22   -1    0    0    0    0  0.00000000000E+00  0.00000000000E+00  0.96375852239E+03  0.96375852239E+03  0.00000000000E+00 0.  1.
         22   -1    0    0    0    0 -0.00000000000E+00 -0.00000000000E+00 -0.22377187327E+04  0.22377187327E+04  0.00000000000E+00 0.  1.
         24    2    1    2    0    0  0.83497040728E+02 -0.12554488852E+03 -0.20809486755E+04  0.20879172270E+04  0.79483848434E+02 0.  0.
         25    2    1    2    0    0 -0.82897803203E+02  0.14814012125E+03 -0.77776905036E+02  0.22475219883E+03  0.12508702019E+03 0.  0.
        -24    2    1    2    0    0 -0.59923752495E+00 -0.22595232732E+02  0.88476537021E+03  0.88880782921E+03  0.81600816791E+02 0.  0.
        -11    1    3    3    0    0  0.55128704651E+02 -0.75918734441E+02 -0.17117736589E+04  0.17143429900E+04  0.00000000000E+00 0.  1.
         12    1    3    3    0    0  0.28368336077E+02 -0.49626154079E+02 -0.36917501661E+03  0.37357423700E+03  0.00000000000E+00 0. -1.
         11    1    5    5    0    0 -0.64090449288E+01 -0.15067338239E+02  0.31606308815E+02  0.35595776370E+02  0.00000000000E+00 0. -1.
        -12    1    5    5    0    0  0.58098074039E+01 -0.75278944934E+01  0.85315906140E+03  0.85321205284E+03  0.00000000000E+00 0.  1.
          5    1    4    4  501    0 -0.10597128567E+03  0.13707325854E+03 -0.38252540330E+02  0.17748160703E+03  0.41800000000E+01 0.  1.
         -5    1    4    4    0  501  0.23073482463E+02  0.11066862710E+02 -0.39524364705E+02  0.47270591794E+02  0.41800000000E+01 0.  1.
</event>
<event>
11    1  0.8299058E-009  0.1485320E+03  0.7561462E-02  0.1098388E+00
         22   -1    0    0    0    0  0.00000000000E+00  0.00000000000E+00  0.79800851371E+03  0.79800851371E+03  0.00000000000E+00 0. -1.
         22   -1    0    0    0    0 -0.00000000000E+00 -0.00000000000E+00 -0.80686577006E+03  0.80686577006E+03  0.00000000000E+00 0. -1.
         24    2    1    2    0    0  0.43146849091E+02  0.61822803629E+02 -0.66104595503E+03  0.67029004409E+03  0.81383529769E+02 0.  0.
         25    2    1    2    0    0 -0.82918545256E+02 -0.12557296460E+03 -0.68999917365E+02  0.20749218298E+03  0.12509181754E+03 0.  0.
        -24    2    1    2    0    0  0.39771696165E+02  0.63750160971E+02  0.72118861604E+03  0.72709205670E+03  0.53888479010E+02 0.  0.
        -11    1    3    3    0    0  0.31801334343E+02  0.38437852023E+02 -0.14047330277E+03  0.14906891736E+03  0.00000000000E+00 0.  1.
         12    1    3    3    0    0  0.11345514748E+02  0.23384951606E+02 -0.52057265226E+03  0.52122112673E+03  0.00000000000E+00 0. -1.
         11    1    5    5    0    0  0.29444570261E+02  0.61082334465E+02  0.70088285551E+03  0.70415538871E+03  0.00000000000E+00 0. -1.
        -12    1    5    5    0    0  0.10327125904E+02  0.26678265062E+01  0.20305760522E+02  0.22936667981E+02  0.00000000000E+00 0.  1.
          5    1    4    4  501    0 -0.70711933860E+02 -0.11510611246E+03  0.13953521188E+01  0.13516291697E+03  0.41800000000E+01 0. -1.
         -5    1    4    4    0  501 -0.12206611396E+02 -0.10466852137E+02 -0.70395269484E+02  0.72329266007E+02  0.41800000000E+01 0. -1.
</event>
<event>
11    1  0.8299058E-009  0.1960504E+03  0.7561462E-02  0.1057352E+00
         22   -1    0    0    0    0  0.00000000000E+00  0.00000000000E+00  0.73132738384E+03  0.73132738384E+03  0.00000000000E+00 0.  1.
         22   -1    0    0    0    0 -0.00000000000E+00 -0.00000000000E+00 -0.12785432250E+03  0.12785432250E+03  0.00000000000E+00 0. -1.
         24    2    1    2    0    0  0.88182969020E+02 -0.12107435197E+03  0.19263934975E+02  0.17887041817E+03  0.95855581878E+02 0.  0.
         25    2    1    2    0    0 -0.85816251797E+02  0.12746399053E+03  0.17862235620E+03  0.26676900705E+03  0.12509300155E+03 0.  0.
        -24    2    1    2    0    0 -0.23667172222E+01 -0.63896385582E+01  0.40558677017E+03  0.41354228112E+03  0.80437312866E+02 0.  0.
        -11    1    3    3    0    0  0.76838496190E+01 -0.91487271765E+02  0.51604314733E+01  0.91954295674E+02  0.00000000000E+00 0.  1.
         12    1    3    3    0    0  0.80499119401E+02 -0.29587080203E+02  0.14103503502E+02  0.86916122499E+02  0.00000000000E+00 0. -1.
         13    1    5    5    0    0  0.35568780475E+02 -0.24995177461E+01  0.11329840789E+03  0.11877674421E+03  0.00000000000E+00 0. -1.
        -14    1    5    5    0    0 -0.37935497697E+02 -0.38901208121E+01  0.29228836228E+03  0.29476553691E+03  0.00000000000E+00 0.  1.
          5    1    4    4  501    0 -0.98090158546E+02  0.88477990201E+02  0.67727050349E+02  0.14850743989E+03  0.41800000000E+01 0.  1.
         -5    1    4    4    0  501  0.12273906749E+02  0.38986000325E+02  0.11089530585E+03  0.11826156716E+03  0.41800000000E+01 0.  1.
</event>
<event>
11    1  0.1247636E-008  0.1713840E+03  0.7561462E-02  0.1076834E+00
         22   -1    0    0    0    0  0.00000000000E+00  0.00000000000E+00  0.21415347789E+03  0.21415347789E+03  0.00000000000E+00 0. -1.
         22   -1    0    0    0    0 -0.00000000000E+00 -0.00000000000E+00 -0.17459331175E+04  0.17459331175E+04  0.00000000000E+00 0.  1.
         24    2    1    2    0    0 -0.92972409580E+02 -0.21640662529E+02 -0.12022517278E+04  0.12088505519E+04  0.82451517471E+02 0.  0.
         25    2    1    2    0    0  0.11745329354E+03 -0.92916640523E+02 -0.49532962083E+03  0.53237953610E+03  0.12509100262E+03 0.  0.
        -24    2    1    2    0    0 -0.24480883957E+02  0.11455730305E+03  0.16580170901E+03  0.21885650735E+03  0.81763529381E+02 0.  0.
        -13    1    3    3    0    0 -0.68851030765E+02 -0.46576891977E+01 -0.11066800611E+04  0.11088295253E+04  0.00000000000E+00 0.  1.
         14    1    3    3    0    0 -0.24121378815E+02 -0.16982973331E+02 -0.95571666667E+02  0.10002102663E+03  0.00000000000E+00 0. -1.
         11    1    5    5    0    0 -0.47813714399E+02  0.90668645825E+02  0.91523290998E+02  0.13741712926E+03  0.00000000000E+00 0. -1.
        -12    1    5    5    0    0  0.23332830442E+02  0.23888657227E+02  0.74278418008E+02  0.81439378082E+02  0.00000000000E+00 0.  1.
          5    1    4    4  501    0  0.11638265824E+03 -0.78074479793E+02 -0.25054716395E+03  0.28710956323E+03  0.41800000000E+01 0. -1.
         -5    1    4    4    0  501  0.10706352950E+01 -0.14842160730E+02 -0.24478245689E+03  0.24526997288E+03  0.41800000000E+01 0. -1.
</event>
<event>
11    1  0.8299058E-009  0.2765434E+03  0.7561462E-02  0.1010638E+00
         22   -1    0    0    0    0  0.00000000000E+00  0.00000000000E+00  0.67833696376E+03  0.67833696376E+03  0.00000000000E+00 0. -1.
         22   -1    0    0    0    0 -0.00000000000E+00 -0.00000000000E+00 -0.29541178538E+03  0.29541178538E+03  0.00000000000E+00 0.  1.
        -24    2    1    2    0    0  0.73911696523E+02  0.15361328156E+03  0.30761728598E+01  0.18823732005E+03  0.79773721647E+02 0.  0.
         25    2    1    2    0    0 -0.65814710002E+02 -0.37055658481E+03  0.76445948423E+02  0.40389960050E+03  0.12508855125E+03 0.  0.
         24    2    1    2    0    0 -0.80969865210E+01  0.21694330325E+03  0.30340305709E+03  0.38161182859E+03  0.80275865923E+02 0.  0.
        -13    1    5    5    0    0 -0.16536179848E+02  0.52039871430E+02  0.30231328442E+02  0.62414154499E+02  0.00000000000E+00 0.  1.
         14    1    5    5    0    0  0.84391933274E+01  0.16490343182E+03  0.27317172865E+03  0.31919767409E+03  0.00000000000E+00 0. -1.
         13    1    3    3    0    0  0.67476291081E+02  0.56806949983E+02 -0.15217120173E+02  0.89507765980E+02  0.00000000000E+00 0. -1.
        -14    1    3    3    0    0  0.64354054420E+01  0.96806331579E+02  0.18293293033E+02  0.98729554071E+02  0.00000000000E+00 0.  1.
          5    1    4    4  501    0 -0.69452861199E+02 -0.19943780616E+03 -0.11274228331E+02  0.21152711192E+03  0.41800000000E+01 0.  1.
         -5    1    4    4    0  501  0.36381511970E+01 -0.17111877865E+03  0.87720176754E+02  0.19237248858E+03  0.41800000000E+01 0.  1.
</event>
<event>
11    1  0.9836543E-009  0.2195750E+03  0.7561462E-02  0.1041484E+00
         22   -1    0    0    0    0  0.00000000000E+00  0.00000000000E+00  0.63855678356E+03  0.63855678356E+03  0.00000000000E+00 0.  1.
         22   -1    0    0    0    0 -0.00000000000E+00 -0.00000000000E+00 -0.52535545570E+03  0.52535545570E+03  0.00000000000E+00 0.  1.
        -24    2    1    2    0    0  0.41267920253E+02 -0.69642688398E+02 -0.18319674101E+03  0.21581936685E+03  0.80397810316E+02 0.  0.
         25    2    1    2    0    0 -0.89183507022E+02  0.23938215356E+03 -0.24335125907E+03  0.37433283267E+03  0.12509085082E+03 0.  0.
         24    2    1    2    0    0  0.47915586769E+02 -0.16973946516E+03  0.53974932794E+03  0.57376003973E+03  0.82242669503E+02 0.  0.
        -11    1    5    5    0    0  0.41045516835E+02 -0.17558850518E+03  0.53244604265E+03  0.56215197761E+03  0.00000000000E+00 0.  1.
         12    1    5    5    0    0  0.68700699347E+01  0.58490400132E+01  0.73032852890E+01  0.11608062112E+02  0.00000000000E+00 0. -1.
         13    1    3    3    0    0  0.10308910676E+02  0.14871174147E+02 -0.10105604687E+02  0.20725556830E+02  0.00000000000E+00 0. -1.
        -14    1    3    3    0    0  0.30959009578E+02 -0.84513862546E+02 -0.17309113632E+03  0.19509381002E+03  0.00000000000E+00 0.  1.
          5    1    4    4  501    0 -0.13184150394E+02  0.17159620785E+03 -0.10211323046E+03  0.20015909823E+03  0.41800000000E+01 0. -1.
         -5    1    4    4    0  501 -0.75999356629E+02  0.67785945712E+02 -0.14123802861E+03  0.17417373444E+03  0.41800000000E+01 0. -1.
</event>
<event>
11    1  0.8299058E-009  0.1863123E+03  0.7561462E-02  0.1064648E+00
         22   -1    0    0    0    0  0.00000000000E+00  0.00000000000E+00  0.97534273222E+03  0.97534273222E+03  0.00000000000E+00 0.  1.
         22   -1    0    0    0    0 -0.00000000000E+00 -0.00000000000E+00 -0.58196949766E+03  0.58196949766E+03  0.00000000000E+00 0. -1.
         24    2    1    2    0    0  0.11971718390E+03  0.98514988030E+01 -0.48918016751E+03  0.51009380769E+03  0.80431338480E+02 0.  0.
         25    2    1    2    0    0 -0.24605329691E+03  0.12834123517E+01  0.18109106487E+03  0.33012970887E+03  0.12509108216E+03 0.  0.
        -24    2    1    2    0    0  0.12633611301E+03 -0.11134911155E+02  0.70146233721E+03  0.71708871331E+03  0.77987258843E+02 0.  0.
        -13    1    3    3    0    0  0.26214853107E+02  0.10832430460E+02 -0.29212349111E+02  0.40717581137E+02  0.00000000000E+00 0.  1.
         14    1    3    3    0    0  0.93502330789E+02 -0.98093165705E+00 -0.45996781840E+03  0.46937622656E+03  0.00000000000E+00 0. -1.
         13    1    5    5    0    0  0.29041346520E+01  0.87293020449E+01  0.72618181332E+01  0.11720440046E+02  0.00000000000E+00 0. -1.
        -14    1    5    5    0    0  0.12343197836E+03 -0.19864213200E+02  0.69420051907E+03  0.70536827327E+03  0.00000000000E+00 0.  1.
          5    1    4    4  501    0 -0.81743936156E+02  0.54942003610E+02  0.37829955131E+02  0.10559011679E+03  0.41800000000E+01 0.  1.
         -5    1    4    4    0  501 -0.16430936075E+03 -0.53658591259E+02  0.14326110973E+03  0.22453959208E+03  0.41800000000E+01 0.  1.
</event>
<event>
11    1  0.8299058E-009  0.1358610E+03  0.7561462E-02  0.1112270E+00
         22   -1    0    0    0    0  0.00000000000E+00  0.00000000000E+00  0.68464786188E+03  0.68464786188E+03  0.00000000000E+00 0. -1.
         22   -1    0    0    0    0 -0.00000000000E+00 -0.00000000000E+00 -0.16114174542E+03  0.16114174542E+03  0.00000000000E+00 0. -1.
        -24    2    1    2    0    0 -0.10253579227E+02 -0.11735904624E+02 -0.88528523025E+02  0.11736867959E+03  0.75466815321E+02 0.  0.
         25    2    1    2    0    0  0.62106666295E+02  0.39824710981E+01  0.35865701057E+02  0.14424639266E+03  0.12509026825E+03 0.  0.
         24    2    1    2    0    0 -0.51853087068E+02  0.77534335255E+01  0.57616893843E+03  0.58417453505E+03  0.80872637017E+02 0.  0.
        -13    1    5    5    0    0  0.35146232303E+01 -0.29378120095E+02  0.16355307121E+03  0.16620780252E+03  0.00000000000E+00 0.  1.
         14    1    5    5    0    0 -0.55367710298E+02  0.37131553621E+02  0.41261586722E+03  0.41796673253E+03  0.00000000000E+00 0. -1.
         13    1    3    3    0    0  0.80882112479E+01  0.29410598051E+02 -0.47413567021E+02  0.56377732985E+02  0.00000000000E+00 0. -1.
        -14    1    3    3    0    0 -0.18341790475E+02 -0.41146502674E+02 -0.41114956005E+02  0.60990946602E+02  0.00000000000E+00 0.  1.
          5    1    4    4  501    0 -0.35117540520E+02 -0.16445375287E+02  0.19026899575E+02  0.43395706330E+02  0.41800000000E+01 0.  1.
         -5    1    4    4    0  501  0.97224206814E+02  0.20427846385E+02  0.16838801482E+02  0.10085068633E+03  0.41800000000E+01 0.  1.
</event>
<event>
11    1  0.8299058E-009  0.1735052E+03  0.7561462E-02  0.1075021E+00
         22   -1    0    0    0    0  0.00000000000E+00  0.00000000000E+00  0.45907154676E+03  0.45907154676E+03  0.00000000000E+00 0.  1.
         22   -1    0    0    0    0 -0.00000000000E+00 -0.00000000000E+00 -0.24655448028E+03  0.24655448028E+03  0.00000000000E+00 0. -1.
        -24    2    1    2    0    0  0.41762964997E+01 -0.16705056866E+01 -0.15591832864E+03  0.17587494462E+03  0.81248008563E+02 0.  0.
         25    2    1    2    0    0  0.99833112634E+02 -0.60316767375E+02  0.46822190762E+02  0.17732879150E+03  0.12509364470E+03 0.  0.
         24    2    1    2    0    0 -0.10400940913E+03  0.61987273062E+02  0.32161320436E+03  0.35242229092E+03  0.78141146036E+02 0.  0.
        -11    1    5    5    0    0 -0.10095858466E+03  0.60198700087E+02  0.20925696441E+03  0.24001040908E+03  0.00000000000E+00 0.  1.
         12    1    5    5    0    0 -0.30508244711E+01  0.17885729747E+01  0.11235623995E+03  0.11241188184E+03  0.00000000000E+00 0. -1.
         11    1    3    3    0    0 -0.34624645681E+02  0.31747125964E+01 -0.11101466286E+03  0.11633228381E+03  0.00000000000E+00 0. -1.
        -12    1    3    3    0    0  0.38800942180E+02 -0.48452182830E+01 -0.44903665788E+02  0.59542660803E+02  0.00000000000E+00 0.  1.
          5    1    4    4  501    0 -0.22501191733E+02 -0.39409977504E+01  0.35058157496E+02  0.42052133117E+02  0.41800000000E+01 0.  1.
         -5    1    4    4    0  501  0.12233430437E+03 -0.56375769625E+02  0.11764033266E+02  0.13527665839E+03  0.41800000000E+01 0.  1.
</event>
<event>
11    1  0.8299058E-009  0.1447496E+03  0.7561462E-02  0.1102368E+00
         22   -1    0    0    0    0  0.00000000000E+00  0.00000000000E+00  0.92585731734E+03  0.92585731734E+03  0.00000000000E+00 0.  1.
         22   -1    0    0    0    0 -0.00000000000E+00 -0.00000000000E+00 -0.25429069362E+03  0.25429069362E+03  0.00000000000E+00 0.  1.
         24    2    1    2    0    0 -0.39206776335E+01 -0.12509482316E+02 -0.20133390499E+03  0.21701343211E+03  0.79922647333E+02 0.  0.
         25    2    1    2    0    0 -0.68328999290E+02 -0.11031065993E-01  0.81972484307E+02  0.16443395188E+03  0.12510069577E+03 0.  0.
        -24    2    1    2    0    0  0.72249676924E+02  0.12520513382E+02  0.79092804440E+03  0.79870062697E+03  0.83538859458E+02 0.  0.
        -13    1    3    3    0    0 -0.25719047071E+02  0.15906579219E+02 -0.15765470640E+03  0.16052879833E+03  0.00000000000E+00 0.  1.
         14    1    3    3    0    0  0.21798369437E+02 -0.28416061536E+02 -0.43679198591E+02  0.56484633777E+02  0.00000000000E+00 0. -1.
         11    1    5    5    0    0 -0.16159321651E+02  0.44763128991E+01  0.56762914813E+02  0.59187748322E+02  0.00000000000E+00 0. -1.
        -12    1    5    5    0    0  0.88408998575E+02  0.80442004833E+01  0.73416512959E+03  0.73951287865E+03  0.00000000000E+00 0.  1.
          5    1    4    4  501    0 -0.49264197216E+02  0.20338090813E+02  0.11147059557E+03  0.12362752583E+03  0.41800000000E+01 0. -1.
         -5    1    4    4    0  501 -0.19064802074E+02 -0.20349121879E+02 -0.29498111261E+02  0.40806426055E+02  0.41800000000E+01 0. -1.
</event>
<event>
11    1  0.8299058E-009  0.1837749E+03  0.7561462E-02  0.1066630E+00
         22   -1    0    0    0    0  0.00000000000E+00  0.00000000000E+00  0.87082987958E+03  0.87082987958E+03  0.00000000000E+00 0. -1.
         22   -1    0    0    0    0 -0.00000000000E+00 -0.00000000000E+00 -0.13138242804E+03  0.13138242804E+03  0.00000000000E+00 0. -1.
         24    2    1    2    0    0  0.11253768085E+03  0.32207970791E+02  0.10540142096E+02  0.14153387671E+03  0.78858485067E+02 0.  0.
         25    2    1    2    0    0 -0.17496466569E+03 -0.41531295329E+02  0.13339740422E+03  0.25647320147E+03  0.12508458294E+03 0.  0.
        -24    2    1    2    0    0  0.62426984839E+02  0.93233245378E+01  0.59550990522E+03  0.60420522944E+03  0.80298563150E+02 0.  0.
        -11    1    3    3    0    0  0.56678205686E+01 -0.67337017902E+01 -0.21610148399E+02  0.23333783311E+02  0.00000000000E+00 0.  1.
         12    1    3    3    0    0  0.10686986029E+03  0.38941672581E+02  0.32150290495E+02  0.11820009340E+03  0.00000000000E+00 0. -1.
         13    1    5    5    0    0  0.44723966770E+02  0.16583172713E+02  0.57157755366E+03  0.57356441196E+03  0.00000000000E+00 0. -1.
        -14    1    5    5    0    0  0.17703018069E+02 -0.72598481755E+01  0.23932351566E+02  0.30640817479E+02  0.00000000000E+00 0.  1.
          5    1    4    4  501    0 -0.88690230277E+01 -0.15556843610E+02 -0.21185486549E+02  0.28053024665E+02  0.41800000000E+01 0. -1.
         -5    1    4    4    0  501 -0.16609564266E+03 -0.25974451719E+02  0.15458289077E+03  0.22842017681E+03  0.41800000000E+01 0. -1.
</event>
<event>
11    1  0.8299058E-009  0.1427412E+03  0.7561462E-02  0.1104535E+00
         22   -1    0    0    0    0  0.00000000000E+00  0.00000000000E+00  0.28899354095E+03  0.28899354095E+03  0.00000000000E+00 0.  1.
         22   -1    0    0    0    0 -0.00000000000E+00 -0.00000000000E+00 -0.76181357151E+03  0.76181357151E+03  0.00000000000E+00 0. -1.
         24    2    1    2    0    0 -0.70685035991E+02  0.10086576351E+02 -0.66180876393E+03  0.67013132217E+03  0.77375936856E+02 0.  0.
         25    2    1    2    0    0  0.35729950169E+02 -0.15676627456E+02 -0.38645100930E+02  0.13661323104E+03  0.12508934840E+03 0.  0.
        -24    2    1    2    0    0  0.34955085821E+02  0.55900511053E+01  0.22763383430E+03  0.24406255925E+03  0.80599402062E+02 0.  0.
        -13    1    3    3    0    0 -0.38944774175E+02  0.46725296481E-02 -0.99692440624E+02  0.10702933325E+03  0.00000000000E+00 0.  1.
         14    1    3    3    0    0 -0.31740261816E+02  0.10081903821E+02 -0.56211632330E+03  0.56310198892E+03  0.00000000000E+00 0. -1.
         13    1    5    5    0    0  0.24157776623E+02 -0.35533419155E+02  0.85249131973E+02  0.95465368330E+02  0.00000000000E+00 0. -1.
        -14    1    5    5    0    0  0.10797309198E+02  0.41123470260E+02  0.14238470233E+03  0.14859719092E+03  0.00000000000E+00 0.  1.
          5    1    4    4  501    0  0.45727682560E+02  0.47413709839E+02 -0.11129500529E+02  0.66935932167E+02  0.41800000000E+01 0. -1.
         -5    1    4    4    0  501 -0.99977323910E+01 -0.63090337296E+02 -0.27515600400E+02  0.69677298874E+02  0.41800000000E+01 0. -1.
</event>
<event>
11    1  0.8299058E-009  0.1359486E+03  0.7561462E-02  0.1112169E+00
         22   -1    0    0    0    0  0.00000000000E+00  0.00000000000E+00  0.74914718897E+03  0.74914718897E+03  0.00000000000E+00 0. -1.
         22   -1    0    0    0    0 -0.00000000000E+00 -0.00000000000E+00 -0.62512531495E+03  0.62512531495E+03  0.00000000000E+00 0.  1.
         24    2    1    2    0    0  0.43443261137E+02 -0.31603769724E+02 -0.58282536443E+03  0.59147481574E+03  0.85269789694E+02 0.  0.
         25    2    1    2    0    0 -0.39210067566E+02  0.13157467038E+02  0.90593876235E+02  0.15988899272E+03  0.12508673489E+03 0.  0.
        -24    2    1    2    0    0 -0.42331935705E+01  0.18446302686E+02  0.61625336222E+03  0.62290869546E+03  0.88819200791E+02 0.  0.
        -13    1    3    3    0    0  0.45415979085E+01  0.22512928252E+02 -0.30104441468E+03  0.30191919062E+03  0.00000000000E+00 0.  1.
         14    1    3    3    0    0  0.38901663228E+02 -0.54116697976E+02 -0.28178094975E+03  0.28955562513E+03  0.00000000000E+00 0. -1.
         11    1    5    5    0    0 -0.90251317452E+01  0.19263423168E+02  0.61751918088E+03  0.61788548392E+03  0.00000000000E+00 0. -1.
        -12    1    5    5    0    0  0.47919381747E+01 -0.81712048215E+00 -0.12658186663E+01  0.50232115473E+01  0.00000000000E+00 0.  1.
          5    1    4    4  501    0 -0.37304635671E+02 -0.52734187479E+02  0.35187895772E+02  0.73676256559E+02  0.41800000000E+01 0.  1.
         -5    1    4    4    0  501 -0.19054318950E+01  0.65891654517E+02  0.55405980463E+02  0.86212736163E+02  0.41800000000E+01 0.  1.
</event>
<event>
11    1  0.8299058E-009  0.1799272E+03  0.7561462E-02  0.1069702E+00
         22   -1    0    0    0    0  0.00000000000E+00  0.00000000000E+00  0.53777610539E+03  0.53777610539E+03  0.00000000000E+00 0.  1.
         22   -1    0    0    0    0 -0.00000000000E+00 -0.00000000000E+00 -0.43704240742E+03  0.43704240742E+03  0.00000000000E+00 0. -1.
        -24    2    1    2    0    0  0.57014321575E+01  0.42417213098E+02 -0.31832766015E+03  0.33202568418E+03  0.84123893404E+02 0.  0.
         25    2    1    2    0    0 -0.10240105601E+03  0.47656306242E+02 -0.27040495912E+02  0.17068488954E+03  0.12508014751E+03 0.  0.
         24    2    1    2    0    0  0.96699623848E+02 -0.90073519339E+02  0.44610185403E+03  0.47210793910E+03  0.80093606833E+02 0.  0.
        -11    1    5    5    0    0  0.47966255612E+02 -0.76460508124E+02  0.36904990389E+03  0.37992736482E+03  0.00000000000E+00 0.  1.
         12    1    5    5    0    0  0.48733368236E+02 -0.13613011216E+02  0.77051950137E+02  0.92180574276E+02  0.00000000000E+00 0. -1.
         13    1    3    3    0    0 -0.19946845958E+02 -0.21643994184E+01 -0.22131108967E+03  0.22221872040E+03  0.00000000000E+00 0. -1.
        -14    1    3    3    0    0  0.25648278116E+02  0.44581612516E+02 -0.97016570482E+02  0.10980696377E+03  0.00000000000E+00 0.  1.
          5    1    4    4  501    0  0.16221116162E+02 -0.24457011046E+02 -0.49613946277E+01  0.30055911823E+02  0.41800000000E+01 0.  1.
         -5    1    4    4    0  501 -0.11862217217E+03  0.72113317288E+02 -0.22079101284E+02  0.14062897772E+03  0.41800000000E+01 0.  1.
</event>
<event>
11    1  0.8299058E-009  0.1265505E+03  0.7561462E-02  0.1123581E+00
         22   -1    0    0    0    0  0.00000000000E+00  0.00000000000E+00  0.61176754733E+03  0.61176754733E+03  0.00000000000E+00 0. -1.
         22   -1    0    0    0    0 -0.00000000000E+00 -0.00000000000E+00 -0.13481978076E+03  0.13481978076E+03  0.00000000000E+00 0. -1.
        -24    2    1    2    0    0  0.15096611302E+02  0.11329286393E+02 -0.82655200835E+02  0.11720303159E+03  0.80922234181E+02 0.  0.
         25    2    1    2    0    0 -0.20085274318E+02 -0.88223290771E+01  0.96565601468E+02  0.15954102699E+03  0.12508865725E+03 0.  0.
         24    2    1    2    0    0  0.49886630161E+01 -0.25069573158E+01  0.46303736594E+03  0.46984326950E+03  0.79485370023E+02 0.  0.
        -11    1    5    5    0    0 -0.24434754170E+02  0.25117153739E+02  0.14110621695E+03  0.14539220435E+03  0.00000000000E+00 0.  1.
         12    1    5    5    0    0  0.29423417186E+02 -0.27624111055E+02  0.32193114899E+03  0.32445106515E+03  0.00000000000E+00 0. -1.
         11    1    3    3    0    0  0.37285348645E+01 -0.24202193949E+02 -0.75296616140E+02  0.79178460242E+02  0.00000000000E+00 0. -1.
        -12    1    3    3    0    0  0.11368076437E+02  0.35531480342E+02 -0.73585846950E+01  0.38024571344E+02  0.00000000000E+00 0.  1.
          5    1    4    4  501    0 -0.25276795436E+02 -0.58208478709E+02  0.88618752111E+02  0.10907749083E+03  0.41800000000E+01 0.  1.
         -5    1    4    4    0  501  0.51915211185E+01  0.49386149632E+02  0.79468493572E+01  0.50463536159E+02  0.41800000000E+01 0.  1.
</event>
<event>
11    1  0.8299058E-009  0.1561293E+03  0.7561462E-02  0.1090775E+00
         22   -1    0    0    0    0  0.00000000000E+00  0.00000000000E+00  0.54865147333E+02  0.54865147333E+02  0.00000000000E+00 0.  1.
         22   -1    0    0    0    0 -0.00000000000E+00 -0.00000000000E+00 -0.77612670061E+03  0.77612670061E+03  0.00000000000E+00 0.  1.
         24    2    1    2    0    0 -0.57928027913E+02  0.64559530237E+02 -0.38702353155E+03  0.40487555428E+03  0.81322881866E+02 0.  0.
         25    2    1    2    0    0  0.54331089241E+02 -0.10050209088E+03 -0.26342294059E+03  0.31319465294E+03  0.12508679973E+03 0.  0.
        -24    2    1    2    0    0  0.35969386720E+01  0.35942560646E+02 -0.70815081131E+02  0.11292164073E+03  0.80197977501E+02 0.  0.
        -13    1    3    3    0    0 -0.19194928593E+02  0.41974448981E+02 -0.64854867980E+02  0.79601843896E+02  0.00000000000E+00 0.  1.
         14    1    3    3    0    0 -0.38733099321E+02  0.22585081257E+02 -0.32216866357E+03  0.32527371038E+03  0.00000000000E+00 0. -1.
         11    1    5    5    0    0  0.35170801336E+02  0.78829710028E+01 -0.58865221295E+02  0.69023479893E+02  0.00000000000E+00 0. -1.
        -12    1    5    5    0    0 -0.31573862664E+02  0.28059589643E+02 -0.11949859836E+02  0.43898160834E+02  0.00000000000E+00 0.  1.
          5    1    4    4  501    0 -0.37285798516E+02 -0.48027772320E+02 -0.12486643377E+03  0.13894601961E+03  0.41800000000E+01 0.  1.
         -5    1    4    4    0  501  0.91616887757E+02 -0.52474318563E+02 -0.13855650683E+03  0.17424863332E+03  0.41800000000E+01 0.  1.
</event>
<event>
11    1  0.8299058E-009  0.1321800E+03  0.7561462E-02  0.1116619E+00
         22   -1    0    0    0    0  0.00000000000E+00  0.00000000000E+00  0.12339097699E+04  0.12339097699E+04  0.00000000000E+00 0.  1.
         22   -1    0    0    0    0 -0.00000000000E+00 -0.00000000000E+00 -0.25607296629E+03  0.25607296629E+03  0.00000000000E+00 0. -1.
        -24    2    1    2    0    0 -0.31478212384E+02 -0.20986926813E+02 -0.21959356361E+03  0.23684960830E+03  0.80281223337E+02 0.  0.
         25    2    1    2    0    0  0.44162324096E+02  0.58763914869E+02  0.18319097326E+03  0.23368942855E+03  0.12509319635E+03 0.  0.
         24    2    1    2    0    0 -0.12684111711E+02 -0.37776988056E+02  0.10142393940E+04  0.10194436994E+04  0.94846825696E+02 0.  0.
        -11    1    5    5    0    0 -0.11930125478E+02 -0.66538135158E+02  0.85162749639E+03  0.85430617693E+03  0.00000000000E+00 0.  1.
         12    1    5    5    0    0 -0.75398623300E+00  0.28761147102E+02  0.16261189762E+03  0.16513752246E+03  0.00000000000E+00 0. -1.
         11    1    3    3    0    0 -0.52896749348E+02  0.63387984430E+01 -0.14762490961E+03  0.15694381286E+03  0.00000000000E+00 0. -1.
        -12    1    3    3    0    0  0.21418536964E+02 -0.27325725256E+02 -0.71968654005E+02  0.79905795445E+02  0.00000000000E+00 0.  1.
          5    1    4    4  501    0  0.48006467919E+02  0.42980516091E+02  0.19986577226E+03  0.21003748486E+03  0.41800000000E+01 0. -1.
         -5    1    4    4    0  501 -0.38441438234E+01  0.15783398778E+02 -0.16674798999E+02  0.23651943691E+02  0.41800000000E+01 0. -1.
</event>
<event>
11    1  0.8299058E-009  0.1824850E+03  0.7561462E-02  0.1067650E+00
         22   -1    0    0    0    0  0.00000000000E+00  0.00000000000E+00  0.16042020078E+04  0.16042020078E+04  0.00000000000E+00 0.  1.
         22   -1    0    0    0    0 -0.00000000000E+00 -0.00000000000E+00 -0.13998127234E+03  0.13998127234E+03  0.00000000000E+00 0.  1.
         24    2    1    2    0    0  0.12899780799E+03  0.29514631869E+02 -0.64734296626E+02  0.16767317914E+03  0.80076325345E+02 0.  0.
         25    2    1    2    0    0 -0.13284483935E+03 -0.32214931561E+02  0.36237990560E+03  0.40701075095E+03  0.12511195884E+03 0.  0.
        -24    2    1    2    0    0  0.38470313549E+01  0.27002996919E+01  0.11665751265E+04  0.11694993500E+04  0.82517348337E+02 0.  0.
        -13    1    3    3    0    0  0.56631720648E+02  0.27335011941E+02 -0.71191027141E+02  0.94986930715E+02  0.00000000000E+00 0.  1.
         14    1    3    3    0    0  0.72366087344E+02  0.21796199281E+01  0.64567305147E+01  0.72686248420E+02  0.00000000000E+00 0. -1.
         11    1    5    5    0    0 -0.13549863079E+02  0.34025576023E+02  0.30686430317E+03  0.30904213171E+03  0.00000000000E+00 0. -1.
        -12    1    5    5    0    0  0.17396894433E+02 -0.31325276331E+02  0.85971082330E+03  0.86045721833E+03  0.00000000000E+00 0.  1.
          5    1    4    4  501    0 -0.23344581509E+02  0.40110738034E+02  0.15236791964E+03  0.15933391392E+03  0.41800000000E+01 0.  1.
         -5    1    4    4    0  501 -0.10950025784E+03 -0.72325669595E+02  0.21001198596E+03  0.24767683702E+03  0.41800000000E+01 0.  1.
</event>
<event>
11    1  0.8299058E-009  0.1301572E+03  0.7561462E-02  0.1119076E+00
         22   -1    0    0    0    0  0.00000000000E+00  0.00000000000E+00  0.30051721958E+04  0.30051721958E+04  0.00000000000E+00 0. -1.
         22   -1    0    0    0    0 -0.00000000000E+00 -0.00000000000E+00 -0.36362637660E+03  0.36362637660E+03  0.00000000000E+00 0.  1.
         24    2    1    2    0    0 -0.13797080763E+02 -0.53815053466E+01 -0.33641561824E+03  0.34614067343E+03  0.80116025672E+02 0.  0.
         25    2    1    2    0    0 -0.14815891032E+02 -0.17103633021E+02  0.16483132959E+03  0.20815724659E+03  0.12509207490E+03 0.  0.
        -24    2    1    2    0    0  0.28612971796E+02  0.22485138367E+02  0.28131301078E+04  0.28145006524E+04  0.79928937284E+02 0.  0.
        -11    1    3    3    0    0  0.12265585201E+02  0.27919445524E+02 -0.22341899185E+03  0.22549054512E+03  0.00000000000E+00 0.  1.
         12    1    3    3    0    0 -0.26062665964E+02 -0.33300950871E+02 -0.11299662639E+03  0.12065012831E+03  0.00000000000E+00 0. -1.
         11    1    5    5    0    0  0.33084575247E+02 -0.23497486832E+02  0.11017457094E+04  0.11024927796E+04  0.00000000000E+00 0. -1.
        -12    1    5    5    0    0 -0.44716034512E+01  0.45982625199E+02  0.17113843984E+04  0.17120078727E+04  0.00000000000E+00 0.  1.
          5    1    4    4  501    0  0.37898571314E+01  0.15063092840E+02 -0.16480674754E+02  0.23029216733E+02  0.41800000000E+01 0. -1.
         -5    1    4    4    0  501 -0.18605748164E+02 -0.32166725861E+02  0.18131200435E+03  0.18512802985E+03  0.41800000000E+01 0. -1.
</event>
<event>
11    1  0.8299058E-009  0.1704129E+03  0.7561462E-02  0.1077673E+00
         22   -1    0    0    0    0  0.00000000000E+00  0.00000000000E+00  0.34998324255E+03  0.34998324255E+03  0.00000000000E+00 0.  1.
         22   -1    0    0    0    0 -0.00000000000E+00 -0.00000000000E+00 -0.13064225492E+04  0.13064225492E+04  0.00000000000E+00 0. -1.
        -24    2    1    2    0    0 -0.11369438873E+03  0.17094575241E+02 -0.12288835686E+04  0.12369403201E+04  0.81534605740E+02 0.  0.
         25    2    1    2    0    0  0.13927605543E+03 -0.72741416931E+02  0.10881632608E+03  0.22840729495E+03  0.12505905089E+03 0.  0.
         24    2    1    2    0    0 -0.25581666701E+02  0.55646841690E+02  0.16362793590E+03  0.19105817661E+03  0.77318385795E+02 0.  0.
        -11    1    5    5    0    0 -0.76485657482E+01  0.39918420793E+02  0.16214201799E+03  0.16715865181E+03  0.00000000000E+00 0.  1.
         12    1    5    5    0    0 -0.17933100953E+02  0.15728420897E+02  0.14859179081E+01  0.23899524801E+02  0.00000000000E+00 0. -1.
         13    1    3    3    0    0 -0.10539612266E+03 -0.15360732546E+02 -0.99158227651E+03  0.99728617049E+03  0.00000000000E+00 0. -1.
        -14    1    3    3    0    0 -0.82982660670E+01  0.32455307787E+02 -0.23730129208E+03  0.23965414966E+03  0.00000000000E+00 0.  1.
          5    1    4    4  501    0  0.11043328168E+03 -0.12974134727E+02  0.13354909876E+02  0.11206990627E+03  0.41800000000E+01 0. -1.
         -5    1    4    4    0  501  0.28842773749E+02 -0.59767282204E+02  0.95461416204E+02  0.11633738867E+03  0.41800000000E+01 0. -1.
</event>
<event>
11    1  0.8299058E-009  0.1284145E+03  0.7561462E-02  0.1121233E+00
         22   -1    0    0    0    0  0.00000000000E+00  0.00000000000E+00  0.16375207757E+03  0.16375207757E+03  0.00000000000E+00 0.  1.
         22   -1    0    0    0    0 -0.00000000000E+00 -0.00000000000E+00 -0.10249702587E+04  0.10249702587E+04  0.00000000000E+00 0.  1.
        -24    2    1    2    0    0 -0.14853610064E+02  0.36962848513E+01 -0.75611091146E+03  0.76051205845E+03  0.80253276313E+02 0.  0.
         25    2    1    2    0    0  0.43111658745E+02 -0.54526313857E+01 -0.23654555075E+03  0.27108897330E+03  0.12508831901E+03 0.  0.
         24    2    1    2    0    0 -0.28258048682E+02  0.17563465344E+01  0.13143828110E+03  0.15712130450E+03  0.81298711690E+02 0.  0.
        -11    1    5    5    0    0 -0.26288929695E+02  0.78787308648E+01  0.14206960927E+03  0.14469608185E+03  0.00000000000E+00 0.  1.
         12    1    5    5    0    0 -0.19691189868E+01 -0.61223843304E+01 -0.10631328168E+02  0.12425222657E+02  0.00000000000E+00 0. -1.
         13    1    3    3    0    0 -0.20944063865E+02  0.32231984595E+02 -0.20146913710E+03  0.20510331018E+03  0.00000000000E+00 0. -1.
        -14    1    3    3    0    0  0.60904538014E+01 -0.28535699743E+02 -0.55464177436E+03  0.55540874827E+03  0.00000000000E+00 0.  1.
          5    1    4    4  501    0 -0.57321788971E+01 -0.26735500108E+02 -0.20926612054E+03  0.21108630094E+03  0.41800000000E+01 0.  1.
         -5    1    4    4    0  501  0.48843837643E+02  0.21282868722E+02 -0.27279430218E+02  0.60002672355E+02  0.41800000000E+01 0.  1.
</event>
<event>
11    1  0.8299058E-009  0.1528835E+03  0.7561462E-02  0.1093968E+00
         22   -1    0    0    0    0  0.00000000000E+00  0.00000000000E+00  0.79999496977E+02  0.79999496977E+02  0.00000000000E+00 0.  1.
         22   -1    0    0    0    0 -0.00000000000E+00 -0.00000000000E+00 -0.20975638827E+04  0.20975638827E+04  0.00000000000E+00 0.  1.
        -24    2    1    2    0    0  0.60850904332E+02  0.55602998708E+02 -0.14566818791E+04  0.14610266766E+04  0.76696329603E+02 0.  0.
         25    2    1    2    0    0 -0.13001791338E+03 -0.37540131625E+02 -0.57940341341E+03  0.60800239884E+03  0.12507870422E+03 0.  0.
         24    2    1    2    0    0  0.69167009052E+02 -0.18062867083E+02  0.18520906716E+02  0.10853430425E+03  0.79538222913E+02 0.  0.
        -13    1    5    5    0    0  0.51695632969E+02 -0.31885026570E+02  0.43767130890E+02  0.74864244695E+02  0.00000000000E+00 0.  1.
         14    1    5    5    0    0  0.17471376083E+02  0.13822159487E+02 -0.25246224174E+02  0.33670059551E+02  0.00000000000E+00 0. -1.
         11    1    3    3    0    0  0.30416826330E+02  0.51362731288E+02 -0.45819200788E+03  0.46206409683E+03  0.00000000000E+00 0. -1.
        -12    1    3    3    0    0  0.30434078002E+02  0.42402674204E+01 -0.99848987118E+03  0.99896257979E+03  0.00000000000E+00 0.  1.
          5    1    4    4  501    0 -0.13119369985E+03 -0.36297258196E+02 -0.31040530474E+03  0.33896637509E+03  0.41800000000E+01 0. -1.
         -5    1    4    4    0  501  0.11757864704E+01 -0.12428734286E+01 -0.26899810867E+03  0.26903602375E+03  0.41800000000E+01 0. -1.
</event>
<event>
11    1  0.8299058E-009  0.1378262E+03  0.7561462E-02  0.1110010E+00
         22   -1    0    0    0    0  0.00000000000E+00  0.00000000000E+00  0.66346848809E+03  0.66346848809E+03  0.00000000000E+00 0. -1.
         22   -1    0    0    0    0 -0.00000000000E+00 -0.00000000000E+00 -0.13609461054E+04  0.13609461054E+04  0.00000000000E+00 0. -1.
         24    2    1    2    0    0 -0.49467678694E+02 -0.41320791053E+01 -0.13054238691E+04  0.13088466968E+04  0.80523738680E+02 0.  0.
         25    2    1    2    0    0  0.90389290953E+02 -0.32655166444E+02  0.76615555857E+02  0.17535343090E+03  0.12506917491E+03 0.  0.
        -24    2    1    2    0    0 -0.40921612259E+02  0.36787245550E+02  0.53133069587E+03  0.54021446582E+03  0.80569727049E+02 0.  0.
        -13    1    3    3    0    0 -0.10823231770E+02  0.27828560173E+02 -0.19328610221E+03  0.19557885472E+03  0.00000000000E+00 0.  1.
         14    1    3    3    0    0 -0.38644446924E+02 -0.31960639279E+02 -0.11121377668E+04  0.11132678421E+04  0.00000000000E+00 0. -1.
         11    1    5    5    0    0 -0.27986428411E+01  0.55123722437E+02  0.29067602686E+03  0.29586992035E+03  0.00000000000E+00 0. -1.
        -12    1    5    5    0    0 -0.38122969418E+02 -0.18336476887E+02  0.24065466901E+03  0.24434454546E+03  0.00000000000E+00 0.  1.
          5    1    4    4  501    0  0.33032548544E+02 -0.61540324630E+02  0.85397211836E+02  0.11040161687E+03  0.41800000000E+01 0.  1.
         -5    1    4    4    0  501  0.57356742410E+02  0.28885158185E+02 -0.87816559790E+01  0.64951814024E+02  0.41800000000E+01 0.  1.
</event>
<event>
11    1  0.8299058E-009  0.1328032E+03  0.7561462E-02  0.1115872E+00
         22   -1    0    0    0    0  0.00000000000E+00  0.00000000000E+00  0.63371832019E+03  0.63371832019E+03  0.00000000000E+00 0. -1.
         22   -1    0    0    0    0 -0.00000000000E+00 -0.00000000000E+00 -0.36755393961E+04  0.36755393961E+04  0.00000000000E+00 0.  1.
         24    2    1    2    0    0 -0.44738106719E+02  0.23384764514E+01 -0.36319373899E+04  0.36331242765E+04  0.81337799886E+02 0.  0.
         25    2    1    2    0    0  0.11496507911E+02 -0.13310099157E+01  0.60448077751E+02  0.13941015794E+03  0.12508909126E+03 0.  0.
        -24    2    1    2    0    0  0.33241598808E+02 -0.10074665357E+01  0.52966823624E+03  0.53672328185E+03  0.80108813001E+02 0.  0.
        -13    1    3    3    0    0 -0.53567159487E+02 -0.27864726203E+02 -0.26292594873E+04  0.26299527249E+04  0.00000000000E+00 0.  1.
         14    1    3    3    0    0  0.88290527682E+01  0.30203202655E+02 -0.10026779026E+04  0.10031715516E+04  0.00000000000E+00 0. -1.
         13    1    5    5    0    0  0.41959951337E+02 -0.77006214945E+01  0.12834005109E+03  0.13524461468E+03  0.00000000000E+00 0. -1.
        -14    1    5    5    0    0 -0.87183525285E+01  0.66931549588E+01  0.40132818515E+03  0.40147866717E+03  0.00000000000E+00 0.  1.
          5    1    4    4  501    0  0.57010967370E+02 -0.21274501360E+02 -0.68287694185E-01  0.60994523294E+02  0.41800000000E+01 0. -1.
         -5    1    4    4    0  501 -0.45514459459E+02  0.19943491444E+02  0.60516365446E+02  0.78415634650E+02  0.41800000000E+01 0. -1.
</event>
<event>
11    1  0.8299058E-009  0.1673697E+03  0.7561462E-02  0.1080344E+00
         22   -1    0    0    0    0  0.00000000000E+00  0.00000000000E+00  0.74021049696E+02  0.74021049696E+02  0.00000000000E+00 0. -1.
         22   -1    0    0    0    0 -0.00000000000E+00 -0.00000000000E+00 -0.17100513649E+04  0.17100513649E+04  0.00000000000E+00 0. -1.
         24    2    1    2    0    0  0.23278213750E+02 -0.23824252466E+02 -0.13069235140E+04  0.13100849757E+04  0.84641016939E+02 0.  0.
         25    2    1    2    0    0  0.77264491985E+01  0.12631958107E+03 -0.27837414891E+03  0.33038931642E+03  0.12509436058E+03 0.  0.
        -24    2    1    2    0    0 -0.31004662949E+02 -0.10249532860E+03 -0.50732652274E+02  0.14359812249E+03  0.81117428871E+02 0.  0.
        -11    1    3    3    0    0  0.30529534968E+02  0.26254038182E+02 -0.54988303566E+03  0.55135531188E+03  0.00000000000E+00 0.  1.
         12    1    3    3    0    0 -0.72513212171E+01 -0.50078290648E+02 -0.75704047834E+03  0.75872966378E+03  0.00000000000E+00 0. -1.
         11    1    5    5    0    0 -0.22346206712E+02 -0.71346293330E+02  0.93729766259E+01  0.75349181928E+02  0.00000000000E+00 0. -1.
        -12    1    5    5    0    0 -0.86584562368E+01 -0.31149035274E+02 -0.60105628900E+02  0.68248940565E+02  0.00000000000E+00 0.  1.
          5    1    4    4  501    0 -0.22623565442E+02  0.15661606841E+02  0.15060098562E+01  0.27872066802E+02  0.41800000000E+01 0. -1.
         -5    1    4    4    0  501  0.30350014640E+02  0.11065797423E+03 -0.27988015876E+03  0.30251724962E+03  0.41800000000E+01 0. -1.
</event>
<event>
11    1  0.8299058E-009  0.1807196E+03  0.7561462E-02  0.1069062E+00
         22   -1    0    0    0    0  0.00000000000E+00  0.00000000000E+00  0.35572822796E+03  0.35572822796E+03  0.00000000000E+00 0. -1.
         22   -1    0    0    0    0 -0.00000000000E+00 -0.00000000000E+00 -0.27330943181E+03  0.27330943181E+03  0.00000000000E+00 0. -1.
         24    2    1    2    0    0 -0.11933801269E+03  0.32786847187E+02 -0.10879514426E+03  0.18207009769E+03  0.77437706819E+02 0.  0.
         25    2    1    2    0    0  0.12039260834E+03 -0.95885611407E+02 -0.32497388007E+02  0.20097578090E+03  0.12508698439E+03 0.  0.
        -24    2    1    2    0    0 -0.10545956473E+01  0.63098764220E+02  0.22371132841E+03  0.24599178118E+03  0.80514791994E+02 0.  0.
        -11    1    3    3    0    0 -0.10191337486E+03  0.89914572532E+01 -0.44962478161E+02  0.11175332980E+03  0.00000000000E+00 0.  1.
         12    1    3    3    0    0 -0.17424637833E+02  0.23795389934E+02 -0.63832666100E+02  0.70316767895E+02  0.00000000000E+00 0. -1.
         11    1    5    5    0    0  0.33656065123E+02  0.37116497414E+02  0.68692757838E+02  0.85023879465E+02  0.00000000000E+00 0. -1.
        -12    1    5    5    0    0 -0.34710660771E+02  0.25982266806E+02  0.15501857058E+03  0.16096790172E+03  0.00000000000E+00 0.  1.
          5    1    4    4  501    0  0.35958571540E+02  0.25089752162E+02 -0.30140953399E+02  0.53371003387E+02  0.41800000000E+01 0.  1.
         -5    1    4    4    0  501  0.84434036799E+02 -0.12097536357E+03 -0.23564346079E+01  0.14760477751E+03  0.41800000000E+01 0.  1.
</event>
<event>
11    1  0.8299058E-009  0.2548015E+03  0.7561462E-02  0.1021372E+00
         22   -1    0    0    0    0  0.00000000000E+00  0.00000000000E+00  0.14588956794E+04  0.14588956794E+04  0.00000000000E+00 0. -1.
         22   -1    0    0    0    0 -0.00000000000E+00 -0.00000000000E+00 -0.30059355114E+03  0.30059355114E+03  0.00000000000E+00 0.  1.
         24    2    1    2    0    0  0.91752435430E+02 -0.57671348928E+02 -0.21461142150E+03  0.25387727709E+03  0.81554372615E+02 0.  0.
         25    2    1    2    0    0 -0.27498290836E+03  0.14143023909E+03  0.46442107393E+03  0.57179765987E+03  0.12509003761E+03 0.  0.
        -24    2    1    2    0    0  0.18323047293E+03 -0.83758890163E+02  0.90849247584E+03  0.93381429357E+03  0.77856267143E+02 0.  0.
        -11    1    3    3    0    0  0.89414497448E+02 -0.55981542033E+02 -0.12226434085E+03  0.16148515240E+03  0.00000000000E+00 0.  1.
         12    1    3    3    0    0  0.23379379821E+01 -0.16898068952E+01 -0.92347080645E+02  0.92392124692E+02  0.00000000000E+00 0. -1.
         11    1    5    5    0    0  0.14638833437E+03 -0.76164992906E+02  0.83613386825E+03  0.85226198802E+03  0.00000000000E+00 0. -1.
        -12    1    5    5    0    0  0.36842138559E+02 -0.75938972566E+01  0.72358607585E+02  0.81552305552E+02  0.00000000000E+00 0.  1.
          5    1    4    4  501    0 -0.16296926116E+03  0.13491619856E+03  0.23409859566E+03  0.31556455062E+03  0.41800000000E+01 0. -1.
         -5    1    4    4    0  501 -0.11201364720E+03  0.65140405288E+01  0.23032247827E+03  0.25623310925E+03  0.41800000000E+01 0. -1.
</event>
<event>
11    1  0.8299058E-009  0.1831740E+03  0.7561462E-02  0.1067104E+00
         22   -1    0    0    0    0  0.00000000000E+00  0.00000000000E+00  0.72061416025E+03  0.72061416025E+03  0.00000000000E+00 0. -1.
         22   -1    0    0    0    0 -0.00000000000E+00 -0.00000000000E+00 -0.97425844823E+03  0.97425844823E+03  0.00000000000E+00 0.  1.
         24    2    1    2    0    0  0.98668419103E+02 -0.74077111508E+02 -0.66577935877E+03  0.68178351872E+03  0.79647576626E+02 0.  0.
         25    2    1    2    0    0 -0.14512506434E+03  0.12533377580E+03 -0.25212299374E+03  0.34056572491E+03  0.12509664009E+03 0.  0.
        -24    2    1    2    0    0  0.46456645239E+02 -0.51256664290E+02  0.66425806453E+03  0.67252336485E+03  0.79141862824E+02 0.  0.
        -11    1    3    3    0    0  0.26783823013E+02 -0.39118644099E+02 -0.43453171841E+03  0.43711034739E+03  0.00000000000E+00 0.  1.
         12    1    3    3    0    0  0.71884596090E+02 -0.34958467409E+02 -0.23124764036E+03  0.24467317133E+03  0.00000000000E+00 0. -1.
         13    1    5    5    0    0  0.56537243193E+01 -0.32011943386E+02  0.52782355763E+03  0.52882363516E+03  0.00000000000E+00 0. -1.
        -14    1    5    5    0    0  0.40802920919E+02 -0.19244720903E+02  0.13643450690E+03  0.14369972968E+03  0.00000000000E+00 0.  1.
          5    1    4    4  501    0 -0.13143853201E+03  0.12250366220E+03 -0.14085004402E+03  0.22834062768E+03  0.41800000000E+01 0.  1.
         -5    1    4    4    0  501 -0.13686532336E+02  0.28301135935E+01 -0.11127294972E+03  0.11222509724E+03  0.41800000000E+01 0.  1.
</event>
<event>
11    1  0.8299058E-009  0.2014275E+03  0.7561462E-02  0.1053519E+00
         22   -1    0    0    0    0  0.00000000000E+00  0.00000000000E+00  0.83922016278E+02  0.83922016278E+02  0.00000000000E+00 0.  1.
         22   -1    0    0    0    0 -0.00000000000E+00 -0.00000000000E+00 -0.17262803845E+04  0.17262803845E+04  0.00000000000E+00 0. -1.
         24    2    1    2    0    0  0.34363433756E+02  0.15672065079E+03 -0.14823455309E+04  0.14931582859E+04  0.80194675273E+02 0.  0.
         25    2    1    2    0    0 -0.46317212275E+02 -0.12828376545E+03 -0.13249307973E+03  0.22760350295E+03  0.12508768823E+03 0.  0.
        -24    2    1    2    0    0  0.11953778519E+02 -0.28436885337E+02 -0.27519757634E+02  0.89440611928E+02  0.79314164771E+02 0.  0.
        -13    1    3    3    0    0  0.44032387756E+02  0.95846590436E+02 -0.64694860409E+03  0.65549059215E+03  0.00000000000E+00 0.  1.
         14    1    3    3    0    0 -0.96689539993E+01  0.60874060354E+02 -0.83539692678E+03  0.83766769376E+03  0.00000000000E+00 0. -1.
         13    1    5    5    0    0  0.17719369689E+02 -0.40665614052E+02 -0.47707783464E+02  0.65143693720E+02  0.00000000000E+00 0. -1.
        -14    1    5    5    0    0 -0.57655911696E+01  0.12228728715E+02  0.20188025830E+02  0.24296918209E+02  0.00000000000E+00 0.  1.
          5    1    4    4  501    0 -0.57228882089E+02 -0.11156953756E+03 -0.38224869673E+02  0.13115456423E+03  0.41800000000E+01 0.  1.
         -5    1    4    4    0  501  0.10911669813E+02 -0.16714227890E+02 -0.94268210061E+02  0.96448938720E+02  0.41800000000E+01 0.  1.
</event>
<event>
11    1  0.8299058E-009  0.1296982E+03  0.7561462E-02  0.1119640E+00
         22   -1    0    0    0    0  0.00000000000E+00  0.00000000000E+00  0.27265003017E+04  0.27265003017E+04  0.00000000000E+00 0.  1.
         22   -1    0    0    0    0 -0.00000000000E+00 -0.00000000000E+00 -0.12663700382E+04  0.12663700382E+04  0.00000000000E+00 0. -1.
        -24    2    1    2    0    0 -0.33860125327E+02  0.54855744167E+01 -0.12526490634E+04  0.12558045184E+04  0.82089663001E+02 0.  0.
         25    2    1    2    0    0  0.31794634864E+02 -0.98157723602E+01  0.35403959724E+03  0.37695715220E+03  0.12508161332E+03 0.  0.
         24    2    1    2    0    0  0.20654904634E+01  0.43301979435E+01  0.23587397296E+04  0.23601086693E+04  0.80229681880E+02 0.  0.
        -11    1    5    5    0    0 -0.12238897678E+02  0.38680398803E+02  0.15241583234E+04  0.15246981861E+04  0.00000000000E+00 0.  1.
         12    1    5    5    0    0  0.14304388141E+02 -0.34350200860E+02  0.83458140619E+03  0.83541048316E+03  0.00000000000E+00 0. -1.
         13    1    3    3    0    0 -0.40469611410E+02  0.23446690568E+02 -0.11713391602E+04  0.11722725643E+04  0.00000000000E+00 0. -1.
        -14    1    3    3    0    0  0.66094860825E+01 -0.17961116151E+02 -0.81309903143E+02  0.83531954058E+02  0.00000000000E+00 0.  1.
          5    1    4    4  501    0  0.77815417310E+02 -0.17172844606E+02  0.18318384424E+03  0.19980975691E+03  0.41800000000E+01 0.  1.
         -5    1    4    4    0  501 -0.46020782446E+02  0.73570722458E+01  0.17085575300E+03  0.17714739530E+03  0.41800000000E+01 0.  1.
</event>
<event>
11    1  0.8299058E-009  0.2154167E+03  0.7561462E-02  0.1044127E+00
         22   -1    0    0    0    0  0.00000000000E+00  0.00000000000E+00  0.64450876365E+03  0.64450876365E+03  0.00000000000E+00 0. -1.
         22   -1    0    0    0    0 -0.00000000000E+00 -0.00000000000E+00 -0.14333544573E+03  0.14333544573E+03  0.00000000000E+00 0. -1.
        -24    2    1    2    0    0 -0.39358838122E+02 -0.19590291526E+03  0.45295729292E+02  0.21813419456E+03  0.74858221973E+02 0.  0.
         25    2    1    2    0    0  0.54129284561E+02  0.13216726696E+03  0.13588748031E+03  0.23347546746E+03  0.12508885121E+03 0.  0.
         24    2    1    2    0    0 -0.14770446439E+02  0.63735648307E+02  0.31999010832E+03  0.33623454736E+03  0.79872413683E+02 0.  0.
        -11    1    5    5    0    0  0.13506019755E+02  0.53173782483E+02  0.98935898302E+02  0.11312902230E+03  0.00000000000E+00 0.  1.
         12    1    5    5    0    0 -0.28276466194E+02  0.10561865824E+02  0.22105421001E+03  0.22310552506E+03  0.00000000000E+00 0. -1.
         13    1    3    3    0    0  0.80070199600E+01 -0.95363125401E+02 -0.56709301706E+01  0.95866560926E+02  0.00000000000E+00 0. -1.
        -14    1    3    3    0    0 -0.47365858082E+02 -0.10053978986E+03  0.50966659463E+02  0.12226763363E+03  0.00000000000E+00 0.  1.
          5    1    4    4  501    0 -0.25676883191E+02  0.62488607873E+02  0.92558772182E+01  0.68317436335E+02  0.41800000000E+01 0. -1.
         -5    1    4    4    0  501  0.79806167752E+02  0.69678659085E+02  0.12663160309E+03  0.16515803113E+03  0.41800000000E+01 0. -1.
</event>
<event>
11    1  0.8299058E-009  0.1750656E+03  0.7561462E-02  0.1073706E+00
         22   -1    0    0    0    0  0.00000000000E+00  0.00000000000E+00  0.10423930106E+04  0.10423930106E+04  0.00000000000E+00 0.  1.
         22   -1    0    0    0    0 -0.00000000000E+00 -0.00000000000E+00 -0.89060082296E+02  0.89060082296E+02  0.00000000000E+00 0.  1.
        -24    2    1    2    0    0 -0.10061475312E+03 -0.77009249068E+02  0.24528779331E+02  0.15102457718E+03  0.78441117474E+02 0.  0.
         25    2    1    2    0    0  0.97866832697E+02  0.49295108588E+02  0.27647830182E+03  0.32263783075E+03  0.12508794420E+03 0.  0.
         24    2    1    2    0    0  0.27479204214E+01  0.27714140480E+02  0.65232584715E+03  0.65779068496E+03  0.79899622695E+02 0.  0.
        -13    1    5    5    0    0 -0.38338621477E+02  0.18100538500E+02  0.31955492188E+03  0.32235512636E+03  0.00000000000E+00 0.  1.
         14    1    5    5    0    0  0.41086541899E+02  0.96136019798E+01  0.33277092527E+03  0.33543555860E+03  0.00000000000E+00 0. -1.
         13    1    3    3    0    0  0.96641432993E+01  0.47534607054E+01 -0.26177429134E+01  0.11083484666E+02  0.00000000000E+00 0. -1.
        -14    1    3    3    0    0 -0.11027889642E+03 -0.81762709774E+02  0.27146522244E+02  0.13994109252E+03  0.00000000000E+00 0.  1.
          5    1    4    4  501    0  0.29177046885E+01 -0.12739857751E+02  0.15790971443E+03  0.15850478632E+03  0.41800000000E+01 0. -1.
         -5    1    4    4    0  501  0.94949128009E+02  0.62034966339E+02  0.11856858739E+03  0.16413304443E+03  0.41800000000E+01 0. -1.
</event>
<event>
11    1  0.8299058E-009  0.1580073E+03  0.7561462E-02  0.1088967E+00
         22   -1    0    0    0    0  0.00000000000E+00  0.00000000000E+00  0.21561527322E+04  0.21561527322E+04  0.00000000000E+00 0.  1.
         22   -1    0    0    0    0 -0.00000000000E+00 -0.00000000000E+00 -0.14240817153E+04  0.14240817153E+04  0.00000000000E+00 0.  1.
         24    2    1    2    0    0  0.95286911654E+02  0.12091128979E+02 -0.13765085762E+04  0.13821974594E+04  0.80424905458E+02 0.  0.
         25    2    1    2    0    0 -0.12479769963E+03 -0.33356617139E+02  0.14119326262E+03  0.22862609085E+03  0.12508885749E+03 0.  0.
        -24    2    1    2    0    0  0.29510787976E+02  0.21265488160E+02  0.19673863306E+04  0.19694108972E+04  0.81530366987E+02 0.  0.
        -11    1    3    3    0    0  0.81836637862E+02  0.23140939557E+02 -0.65739521789E+03  0.66287345013E+03  0.00000000000E+00 0.  1.
         12    1    3    3    0    0  0.13450273792E+02 -0.11049810578E+02 -0.71911335834E+03  0.71932400928E+03  0.00000000000E+00 0. -1.
         11    1    5    5    0    0  0.12597141281E+02 -0.26839262572E+02  0.36099823630E+03  0.36221369466E+03  0.00000000000E+00 0. -1.
        -12    1    5    5    0    0  0.16913646695E+02  0.48104750732E+02  0.16063880943E+04  0.16071972026E+04  0.00000000000E+00 0.  1.
          5    1    4    4  501    0 -0.29491876794E+02  0.46188930861E+02  0.34566774533E+02  0.64927054704E+02  0.41800000000E+01 0.  1.
         -5    1    4    4    0  501 -0.95305822836E+02 -0.79545548000E+02  0.10662648809E+03  0.16369903615E+03  0.41800000000E+01 0.  1.
</event>
<event>
11    1  0.8299058E-009  0.1437234E+03  0.7561462E-02  0.1103470E+00
         22   -1    0    0    0    0  0.00000000000E+00  0.00000000000E+00  0.18339319353E+03  0.18339319353E+03  0.00000000000E+00 0. -1.
         22   -1    0    0    0    0 -0.00000000000E+00 -0.00000000000E+00 -0.20802037229E+04  0.20802037229E+04  0.00000000000E+00 0.  1.
        -24    2    1    2    0    0 -0.75161857970E+02  0.11382452017E+02 -0.16977204158E+04  0.17013363932E+04  0.80697259465E+02 0.  0.
         25    2    1    2    0    0  0.37183497743E+02 -0.36875156022E+01 -0.35738496030E+03  0.38048227861E+03  0.12508614716E+03 0.  0.
         24    2    1    2    0    0  0.37978360227E+02 -0.76949364152E+01  0.15829484667E+03  0.18177824463E+03  0.80526417074E+02 0.  0.
        -11    1    5    5    0    0  0.16394406486E+02  0.28176457028E+02  0.22328302490E+02  0.39512559861E+02  0.00000000000E+00 0.  1.
         12    1    5    5    0    0  0.21583953741E+02 -0.35871393443E+02  0.13596654418E+03  0.14226568477E+03  0.00000000000E+00 0. -1.
         11    1    3    3    0    0 -0.47592629347E+02 -0.32898526387E+02 -0.99687958882E+03  0.99855710203E+03  0.00000000000E+00 0. -1.
        -12    1    3    3    0    0 -0.27569228623E+02  0.44280978404E+02 -0.70084082693E+03  0.70277929118E+03  0.00000000000E+00 0.  1.
          5    1    4    4  501    0  0.78788953696E+02 -0.19372956389E+02 -0.27526360020E+03  0.28700267013E+03  0.41800000000E+01 0.  1.
         -5    1    4    4    0  501 -0.41605455953E+02  0.15685440786E+02 -0.82121360096E+02  0.93479608481E+02  0.41800000000E+01 0.  1.
</event>
<event>
11    1  0.8299058E-009  0.2542311E+03  0.7561462E-02  0.1021669E+00
         22   -1    0    0    0    0  0.00000000000E+00  0.00000000000E+00  0.10568567854E+04  0.10568567854E+04  0.00000000000E+00 0.  1.
         22   -1    0    0    0    0 -0.00000000000E+00 -0.00000000000E+00 -0.69335169325E+03  0.69335169325E+03  0.00000000000E+00 0. -1.
        -24    2    1    2    0    0  0.91539380448E+02  0.90681906274E+02 -0.60655195194E+03  0.62490255155E+03  0.77429078693E+02 0.  0.
         25    2    1    2    0    0 -0.28835189864E+03 -0.40665455746E+02  0.37257334295E+03  0.48914226112E+03  0.12509499988E+03 0.  0.
         24    2    1    2    0    0  0.19681251819E+03 -0.50016450527E+02  0.59748370113E+03  0.63616366598E+03  0.80502323921E+02 0.  0.
        -11    1    5    5    0    0  0.10946523203E+03 -0.44128678324E+02  0.44449433287E+03  0.45989693327E+03  0.00000000000E+00 0.  1.
         12    1    5    5    0    0  0.87347286157E+02 -0.58877722029E+01  0.15298936826E+03  0.17626673271E+03  0.00000000000E+00 0. -1.
         13    1    3    3    0    0  0.87002683339E+02  0.67966984293E+02 -0.57641162328E+03  0.58688954439E+03  0.00000000000E+00 0. -1.
        -14    1    3    3    0    0  0.45366971092E+01  0.22714921981E+02 -0.30140328660E+02  0.38013007155E+02  0.00000000000E+00 0.  1.
          5    1    4    4  501    0 -0.27175274625E+03  0.10757837684E+01  0.32206496971E+03  0.42141906639E+03  0.41800000000E+01 0. -1.
         -5    1    4    4    0  501 -0.16599152389E+02 -0.41741239515E+02  0.50508373241E+02  0.67723194725E+02  0.41800000000E+01 0. -1.
</event>
<event>
11    1  0.8299058E-009  0.1672528E+03  0.7561462E-02  0.1080447E+00
         22   -1    0    0    0    0  0.00000000000E+00  0.00000000000E+00  0.21069465064E+04  0.21069465064E+04  0.00000000000E+00 0. -1.
         22   -1    0    0    0    0 -0.00000000000E+00 -0.00000000000E+00 -0.30189066888E+03  0.30189066888E+03  0.00000000000E+00 0.  1.
        -24    2    1    2    0    0  0.67563998670E+02  0.80328698773E+02 -0.21197920087E+03  0.25018437734E+03  0.81482803696E+02 0.  0.
         25    2    1    2    0    0 -0.13708671947E+03 -0.92866861302E+02  0.85828137176E+02  0.22456418085E+03  0.12508229134E+03 0.  0.
         24    2    1    2    0    0  0.69522720802E+02  0.12538162529E+02  0.19312069012E+04  0.19340886171E+04  0.78409624341E+02 0.  0.
        -11    1    5    5    0    0  0.28648593532E+02 -0.23595612989E+01  0.17517156519E+03  0.17751446896E+03  0.00000000000E+00 0.  1.
         12    1    5    5    0    0  0.40874127270E+02  0.14897723827E+02  0.17560353360E+04  0.17565741481E+04  0.00000000000E+00 0. -1.
         11    1    3    3    0    0 -0.30976435132E+01 -0.13879755012E+02 -0.33040033504E+02  0.35970638144E+02  0.00000000000E+00 0. -1.
        -12    1    3    3    0    0  0.70661642183E+02  0.94208453785E+02 -0.17893916737E+03  0.21421373919E+03  0.00000000000E+00 0.  1.
          5    1    4    4  501    0  0.63964452471E+01 -0.59690859515E+02  0.25860198489E+02  0.65499125852E+02  0.41800000000E+01 0. -1.
         -5    1    4    4    0  501 -0.14348316472E+03 -0.33176001787E+02  0.59967938687E+02  0.15906505500E+03  0.41800000000E+01 0. -1.
</event>
<event>
11    1  0.8299058E-009  0.1387618E+03  0.7561462E-02  0.1108949E+00
         22   -1    0    0    0    0  0.00000000000E+00  0.00000000000E+00  0.14448305705E+03  0.14448305705E+03  0.00000000000E+00 0. -1.
         22   -1    0    0    0    0 -0.00000000000E+00 -0.00000000000E+00 -0.15752685568E+04  0.15752685568E+04  0.00000000000E+00 0.  1.
         24    2    1    2    0    0  0.55015660702E+02  0.16310956914E+02 -0.11549104822E+04  0.11592398607E+04  0.82012574931E+02 0.  0.
         25    2    1    2    0    0 -0.71451365579E+02 -0.27236587722E+02 -0.39573398074E+03  0.42201971800E+03  0.12509248384E+03 0.  0.
        -24    2    1    2    0    0  0.16435704877E+02  0.10925630808E+02  0.11985896319E+03  0.13849203518E+03  0.66515945080E+02 0.  0.
        -13    1    3    3    0    0  0.99099851049E+01  0.34347722424E+02 -0.82478350784E+03  0.82555787722E+03  0.00000000000E+00 0.  1.
         14    1    3    3    0    0  0.45105675597E+02 -0.18036765509E+02 -0.33012697440E+03  0.33368198349E+03  0.00000000000E+00 0. -1.
         13    1    5    5    0    0  0.22639335033E+02  0.15077295593E+02  0.12595245335E+03  0.12885606248E+03  0.00000000000E+00 0. -1.
        -14    1    5    5    0    0 -0.62036301557E+01 -0.41516647853E+01 -0.60934901625E+01  0.96359727043E+01  0.00000000000E+00 0.  1.
          5    1    4    4  501    0  0.62979173003E+01  0.20031959812E+02 -0.24477294671E+03  0.24570757216E+03  0.41800000000E+01 0.  1.
         -5    1    4    4    0  501 -0.77749282880E+02 -0.47268547534E+02 -0.15096103402E+03  0.17631214583E+03  0.41800000000E+01 0.  1.
</event>
<event>
11    1  0.8299058E-009  0.2828175E+03  0.7561462E-02  0.1007737E+00
         22   -1    0    0    0    0  0.00000000000E+00  0.00000000000E+00  0.25777282348E+04  0.25777282348E+04  0.00000000000E+00 0. -1.
         22   -1    0    0    0    0 -0.00000000000E+00 -0.00000000000E+00 -0.44996974235E+03  0.44996974235E+03  0.00000000000E+00 0.  1.
        -24    2    1    2    0    0 -0.64791689368E+02 -0.93802372376E+02 -0.38635073273E+03  0.41063494761E+03  0.79732825350E+02 0.  0.
         25    2    1    2    0    0  0.27692239625E+03  0.19928379427E+03  0.72612362230E+03  0.81197488927E+03  0.12509061415E+03 0.  0.
         24    2    1    2    0    0 -0.21213070688E+03 -0.10548142189E+03  0.17879856029E+04  0.18050881403E+04  0.72971986997E+02 0.  0.
        -13    1    5    5    0    0 -0.39365254261E+02 -0.21099216987E+02  0.59839575031E+03  0.60006022547E+03  0.00000000000E+00 0.  1.
         14    1    5    5    0    0 -0.17276545262E+03 -0.84382204902E+02  0.11895898526E+04  0.12050279148E+04  0.00000000000E+00 0. -1.
         11    1    3    3    0    0 -0.40864383454E+02 -0.47327203696E+02 -0.89269517739E+02  0.10898994835E+03  0.00000000000E+00 0. -1.
        -12    1    3    3    0    0 -0.23927305913E+02 -0.46475168680E+02 -0.29708121500E+03  0.30164499925E+03  0.00000000000E+00 0.  1.
          5    1    4    4  501    0  0.23949797013E+03  0.11649332562E+03  0.60011122095E+03  0.65656753081E+03  0.41800000000E+01 0. -1.
         -5    1    4    4    0  501  0.37424426119E+02  0.82790468648E+02  0.12601240135E+03  0.15540735846E+03  0.41800000000E+01 0. -1.
</event>
<event>
11    1  0.8299058E-009  0.1896678E+03  0.7561462E-02  0.1062080E+00
         22   -1    0    0    0    0  0.00000000000E+00  0.00000000000E+00  0.17471810112E+04  0.17471810112E+04  0.00000000000E+00 0. -1.
         22   -1    0    0    0    0 -0.00000000000E+00 -0.00000000000E+00 -0.17256340527E+03  0.17256340527E+03  0.00000000000E+00 0.  1.
         24    2    1    2    0    0 -0.15032159445E+03 -0.21482701100E+02 -0.10429255725E+03  0.20004470890E+03  0.77992691050E+02 0.  0.
         25    2    1    2    0    0  0.80555194995E+02 -0.47000429765E+02  0.33174660661E+03  0.36662605635E+03  0.12514261608E+03 0.  0.
        -24    2    1    2    0    0  0.69766399452E+02  0.68483130865E+02  0.13471635565E+04  0.13530736512E+04  0.80008548035E+02 0.  0.
        -13    1    3    3    0    0 -0.51204368563E+02 -0.19521612726E+02 -0.81683811596E+02  0.98362725665E+02  0.00000000000E+00 0.  1.
         14    1    3    3    0    0 -0.99117225883E+02 -0.19610883741E+01 -0.22608745655E+02  0.10168198323E+03  0.00000000000E+00 0. -1.
         11    1    5    5    0    0  0.80375897251E+02  0.71258097543E+02  0.10029854635E+04  0.10087208937E+04  0.00000000000E+00 0. -1.
        -12    1    5    5    0    0 -0.10609497799E+02 -0.27749666778E+01  0.34417809302E+03  0.34435275751E+03  0.00000000000E+00 0.  1.
          5    1    4    4  501    0  0.62746899894E+02 -0.89363717165E+02  0.21732094141E+03  0.24324660608E+03  0.41800000000E+01 0.  1.
         -5    1    4    4    0  501  0.17808295101E+02  0.42363287400E+02  0.11442566520E+03  0.12337945028E+03  0.41800000000E+01 0.  1.
</event>
<event>
11    1  0.8546817E-009  0.1797908E+03  0.7561462E-02  0.1069812E+00
         22   -1    0    0    0    0  0.00000000000E+00  0.00000000000E+00  0.10615134289E+04  0.10615134289E+04  0.00000000000E+00 0.  1.
         22   -1    0    0    0    0 -0.00000000000E+00 -0.00000000000E+00 -0.13419608739E+04  0.13419608739E+04  0.00000000000E+00 0. -1.
        -24    2    1    2    0    0 -0.46460217600E+02 -0.73546224990E-01 -0.12100074860E+04  0.12135895666E+04  0.80764860389E+02 0.  0.
         25    2    1    2    0    0  0.25129021174E+01  0.12223181411E+03 -0.62892982851E+02  0.18587475148E+03  0.12508782869E+03 0.  0.
         24    2    1    2    0    0  0.43947315483E+02 -0.12215826789E+03  0.99245302392E+03  0.10040099847E+04  0.78860863547E+02 0.  0.
        -11    1    5    5    0    0  0.62031588674E+02 -0.11466542268E+03  0.90842317707E+03  0.91773021406E+03  0.00000000000E+00 0.  1.
         12    1    5    5    0    0 -0.18084273191E+02 -0.74928452029E+01  0.84029846854E+02  0.86279770679E+02  0.00000000000E+00 0. -1.
         13    1    3    3    0    0 -0.53912961128E+01  0.36092215937E+02 -0.61049717505E+03  0.61158688252E+03  0.00000000000E+00 0. -1.
        -14    1    3    3    0    0 -0.41068921487E+02 -0.36165762162E+02 -0.59951031099E+03  0.60200268409E+03  0.00000000000E+00 0.  1.
          5    1    4    4  501    0  0.49732118065E+02  0.71227863401E+02  0.69524295941E+01  0.87249646241E+02  0.41800000000E+01 0.  1.
         -5    1    4    4    0  501 -0.47219215948E+02  0.51003950711E+02 -0.69845412446E+02  0.98625105235E+02  0.41800000000E+01 0.  1.
</event>
<event>
11    1  0.8299058E-009  0.1361610E+03  0.7561462E-02  0.1111923E+00
         22   -1    0    0    0    0  0.00000000000E+00  0.00000000000E+00  0.21255237734E+03  0.21255237734E+03  0.00000000000E+00 0. -1.
         22   -1    0    0    0    0 -0.00000000000E+00 -0.00000000000E+00 -0.49787594189E+03  0.49787594189E+03  0.00000000000E+00 0. -1.
        -24    2    1    2    0    0  0.16626391511E+02 -0.51514427686E+02 -0.25148850361E+03  0.26983375222E+03  0.81446996480E+02 0.  0.
         25    2    1    2    0    0 -0.17348889701E+02  0.50156178664E+02 -0.20797922850E+03  0.24843022801E+03  0.12508234276E+03 0.  0.
         24    2    1    2    0    0  0.72249819019E+00  0.13582490217E+01  0.17414416756E+03  0.19216433900E+03  0.81231614795E+02 0.  0.
        -11    1    5    5    0    0 -0.27784091993E+02 -0.90349837294E+01  0.20842187942E+02  0.35888486971E+02  0.00000000000E+00 0.  1.
         12    1    5    5    0    0  0.28506590183E+02  0.10393232751E+02  0.15330197962E+03  0.15627585202E+03  0.00000000000E+00 0. -1.
         11    1    3    3    0    0  0.46999050300E+02 -0.31657909673E+02 -0.10965177726E+03  0.12342870910E+03  0.00000000000E+00 0. -1.
        -12    1    3    3    0    0 -0.30372658789E+02 -0.19856518013E+02 -0.14183672635E+03  0.14640504312E+03  0.00000000000E+00 0.  1.
          5    1    4    4  501    0 -0.17367472473E+02 -0.21577523232E+02  0.39453502200E+00  0.28015114970E+02  0.41800000000E+01 0.  1.
         -5    1    4    4    0  501  0.18582771835E-01  0.71733701896E+02 -0.20837376352E+03  0.22041511304E+03  0.41800000000E+01 0.  1.
</event>
<event>
11    1  0.8299058E-009  0.2968024E+03  0.7561462E-02  0.1001554E+00
         22   -1    0    0    0    0  0.00000000000E+00  0.00000000000E+00  0.23083736811E+03  0.23083736811E+03  0.00000000000E+00 0.  1.
         22   -1    0    0    0    0 -0.00000000000E+00 -0.00000000000E+00 -0.18434498645E+04  0.18434498645E+04  0.00000000000E+00 0. -1.
         24    2    1    2    0    0 -0.20673837873E+03 -0.18148238673E+03 -0.15999571485E+04  0.16255828216E+04  0.83546507919E+02 0.  0.
         25    2    1    2    0    0  0.14187923990E+03  0.18679118494E+03 -0.12753611733E+03  0.29484323984E+03  0.12508560816E+03 0.  0.
        -24    2    1    2    0    0  0.64859138831E+02 -0.53087982060E+01  0.11488076941E+03  0.15386117118E+03  0.78998592320E+02 0.  0.
        -13    1    3    3    0    0 -0.71013210652E+02 -0.39926154584E+02 -0.68611992312E+03  0.69093959419E+03  0.00000000000E+00 0.  1.
         14    1    3    3    0    0 -0.13572516808E+03 -0.14155623215E+03 -0.91383722537E+03  0.93464322743E+03  0.00000000000E+00 0. -1.
         11    1    5    5    0    0  0.27537349667E+02  0.83384252061E+01 -0.35040605127E+01  0.28984709791E+02  0.00000000000E+00 0. -1.
        -12    1    5    5    0    0  0.37321789164E+02 -0.13647223412E+02  0.11838482992E+03  0.12487646139E+03  0.00000000000E+00 0.  1.
          5    1    4    4  501    0  0.42433248797E+02 -0.10869092117E+02 -0.28214313195E+02  0.52270810555E+02  0.41800000000E+01 0.  1.
         -5    1    4    4    0  501  0.99445991103E+02  0.19766027705E+03 -0.99321804131E+02  0.24257242928E+03  0.41800000000E+01 0.  1.
</event>
<event>
11    1  0.8299058E-009  0.1500702E+03  0.7561462E-02  0.1096807E+00
         22   -1    0    0    0    0  0.00000000000E+00  0.00000000000E+00  0.15633592354E+04  0.15633592354E+04  0.00000000000E+00 0. -1.
         22   -1    0    0    0    0 -0.00000000000E+00 -0.00000000000E+00 -0.87883992059E+02  0.87883992059E+02  0.00000000000E+00 0.  1.
        -24    2    1    2    0    0 -0.34128805367E+01  0.24882518444E+02  0.22573554027E+02  0.87363187007E+02  0.80572784641E+02 0.  0.
         25    2    1    2    0    0 -0.84017976008E+01 -0.10591996137E+03  0.73512316209E+02  0.17983678595E+03  0.12509028951E+03 0.  0.
         24    2    1    2    0    0  0.11814678137E+02  0.81037442923E+02  0.13793893732E+04  0.13840432545E+04  0.78447650818E+02 0.  0.
        -11    1    5    5    0    0 -0.10829602733E+02  0.86239624523E+02  0.92969965242E+03  0.93375371317E+03  0.00000000000E+00 0.  1.
         12    1    5    5    0    0  0.22644280870E+02 -0.52021816000E+01  0.44968972073E+03  0.45028954138E+03  0.00000000000E+00 0. -1.
         13    1    3    3    0    0 -0.10170950681E+02  0.35732308866E+02  0.46930560102E+02  0.59855856907E+02  0.00000000000E+00 0. -1.
        -14    1    3    3    0    0  0.67580701444E+01 -0.10849790422E+02 -0.24357006075E+02  0.27507330099E+02  0.00000000000E+00 0.  1.
          5    1    4    4  501    0 -0.62973145538E+02 -0.43884902152E+02  0.56442993743E+02  0.95366585545E+02  0.41800000000E+01 0.  1.
         -5    1    4    4    0  501  0.54571347937E+02 -0.62035059215E+02  0.17069322465E+02  0.84470200408E+02  0.41800000000E+01 0.  1.
</event>
<event>
11    1  0.8299058E-009  0.1458140E+03  0.7561462E-02  0.1101234E+00
         22   -1    0    0    0    0  0.00000000000E+00  0.00000000000E+00  0.54251830106E+03  0.54251830106E+03  0.00000000000E+00 0.  1.
         22   -1    0    0    0    0 -0.00000000000E+00 -0.00000000000E+00 -0.15070113972E+03  0.15070113972E+03  0.00000000000E+00 0. -1.
         24    2    1    2    0    0  0.12277421084E+01 -0.78052961723E+02 -0.63566585265E+02  0.12825471130E+03  0.79465640527E+02 0.  0.
         25    2    1    2    0    0 -0.16996978519E+02  0.64625419814E+02  0.48715359577E+02  0.14995321750E+03  0.12508972386E+03 0.  0.
        -24    2    1    2    0    0  0.15769236410E+02  0.13427541909E+02  0.40666838703E+03  0.41501151199E+03  0.80164894891E+02 0.  0.
        -13    1    3    3    0    0  0.99916272663E+01  0.12594687760E+02 -0.24169641584E+02  0.29028095864E+02  0.00000000000E+00 0.  1.
         14    1    3    3    0    0 -0.87638851579E+01 -0.90647649483E+02 -0.39396943682E+02  0.99226615438E+02  0.00000000000E+00 0. -1.
         11    1    5    5    0    0 -0.12553697739E+01  0.39828822843E+02  0.11606499458E+03  0.12271509299E+03  0.00000000000E+00 0. -1.
        -12    1    5    5    0    0  0.17024606184E+02 -0.26401280934E+02  0.29060339245E+03  0.29229641899E+03  0.00000000000E+00 0.  1.
          5    1    4    4  501    0 -0.69289027114E+02  0.44192418198E+02  0.44368632038E+02  0.93487897684E+02  0.41800000000E+01 0. -1.
         -5    1    4    4    0  501  0.52292048595E+02  0.20433001616E+02  0.43467275395E+01  0.56465319813E+02  0.41800000000E+01 0. -1.
</event>
<event>
11    1  0.8299058E-009  0.2808832E+03  0.7561462E-02  0.1008623E+00
         22   -1    0    0    0    0  0.00000000000E+00  0.00000000000E+00  0.24946294110E+04  0.24946294110E+04  0.00000000000E+00 0.  1.
         22   -1    0    0    0    0 -0.00000000000E+00 -0.00000000000E+00 -0.14690539512E+03  0.14690539512E+03  0.00000000000E+00 0. -1.
        -24    2    1    2    0    0  0.11586850718E+03  0.21909083227E+03  0.13234516416E+02  0.26093124741E+03  0.80521175542E+02 0.  0.
         25    2    1    2    0    0 -0.17851935168E+03 -0.22540059316E+03  0.11736013632E+04  0.12147683246E+04  0.12508931381E+03 0.  0.
         24    2    1    2    0    0  0.62650844498E+02  0.63097608930E+01  0.11608881362E+04  0.11658352341E+04  0.86865337008E+02 0.  0.
        -11    1    5    5    0    0  0.46706464320E+02  0.35327132850E+02  0.99230542847E+03  0.99403197307E+03  0.00000000000E+00 0.  1.
         12    1    5    5    0    0  0.15944380177E+02 -0.29017371957E+02  0.16858270774E+03  0.17180326098E+03  0.00000000000E+00 0. -1.
         13    1    3    3    0    0  0.12844822132E+03  0.19965375901E+03  0.10774364147E+02  0.23764817687E+03  0.00000000000E+00 0. -1.
        -14    1    3    3    0    0 -0.12579714138E+02  0.19437073255E+02  0.24601522687E+01  0.23283070538E+02  0.00000000000E+00 0.  1.
          5    1    4    4  501    0 -0.19284714964E+02 -0.16998225211E+02  0.33710082491E+03  0.33810542505E+03  0.41800000000E+01 0.  1.
         -5    1    4    4    0  501 -0.15923463671E+03 -0.20840236795E+03  0.83650053832E+03  0.87666289958E+03  0.41800000000E+01 0.  1.
</event>
<event>
11    1  0.8299058E-009  0.1335558E+03  0.7561462E-02  0.1114976E+00
         22   -1    0    0    0    0  0.00000000000E+00  0.00000000000E+00  0.39842272974E+03  0.39842272974E+03  0.00000000000E+00 0.  1.
         22   -1    0    0    0    0 -0.00000000000E+00 -0.00000000000E+00 -0.16602030277E+04  0.16602030277E+04  0.00000000000E+00 0. -1.
        -24    2    1    2    0    0 -0.10052073708E+02  0.16805209930E+02 -0.13796379584E+04  0.13821703562E+04  0.81305214612E+02 0.  0.
         25    2    1    2    0    0 -0.36772236164E+02 -0.21028501688E+02 -0.25591928304E+03  0.28798722659E+03  0.12509023946E+03 0.  0.
         24    2    1    2    0    0  0.46824309872E+02  0.42232917580E+01  0.37377694348E+03  0.38846817470E+03  0.94804889558E+02 0.  0.
        -13    1    5    5    0    0  0.39418610365E+02  0.39934111049E+02  0.30967391295E+03  0.31471652710E+03  0.00000000000E+00 0.  1.
         14    1    5    5    0    0  0.74056995073E+01 -0.35710819291E+02  0.64103030536E+02  0.73751647599E+02  0.00000000000E+00 0. -1.
         13    1    3    3    0    0 -0.71880743394E+01  0.13530109967E+02 -0.13769940547E+04  0.13770792857E+04  0.00000000000E+00 0. -1.
        -14    1    3    3    0    0 -0.28639993690E+01  0.32750999632E+01 -0.26439036992E+01  0.50910705088E+01  0.00000000000E+00 0.  1.
          5    1    4    4  501    0  0.29970415328E+02 -0.44574440573E+02 -0.65577809231E+02  0.84870654592E+02  0.41800000000E+01 0.  1.
         -5    1    4    4    0  501 -0.66742651492E+02  0.23545938885E+02 -0.19034147381E+03  0.20311657200E+03  0.41800000000E+01 0.  1.
</event>
<event>
11    1  0.8299058E-009  0.1653413E+03  0.7561462E-02  0.1082159E+00
         22   -1    0    0    0    0  0.00000000000E+00  0.00000000000E+00  0.15780535073E+04  0.15780535073E+04  0.00000000000E+00 0. -1.
         22   -1    0    0    0    0 -0.00000000000E+00 -0.00000000000E+00 -0.96893884153E+02  0.96893884153E+02  0.00000000000E+00 0. -1.
        -24    2    1    2    0    0 -0.58168883902E+02 -0.90540056728E+02 -0.23658597623E+02  0.13181287299E+03  0.72344891448E+02 0.  0.
         25    2    1    2    0    0  0.81201898343E+02  0.80488096349E+02  0.39116344594E+03  0.42629625370E+03  0.12509025753E+03 0.  0.
         24    2    1    2    0    0 -0.23033014441E+02  0.10051960379E+02  0.11136547749E+04  0.11168382648E+04  0.80431277925E+02 0.  0.
        -11    1    5    5    0    0 -0.39808613607E+02 -0.20669179051E+02  0.44149365360E+03  0.44376636516E+03  0.00000000000E+00 0.  1.
         12    1    5    5    0    0  0.16775599166E+02  0.30721139429E+02  0.67216112127E+03  0.67307189964E+03  0.00000000000E+00 0. -1.
         13    1    3    3    0    0 -0.53619838116E+02 -0.22927530670E+02 -0.26352747284E+02  0.63993952774E+02  0.00000000000E+00 0. -1.
        -14    1    3    3    0    0 -0.45490457864E+01 -0.67612526057E+02  0.26941496605E+01  0.67818920220E+02  0.00000000000E+00 0.  1.
          5    1    4    4  501    0  0.57636008221E+02  0.12340148408E+01  0.53942125681E+02  0.79061100164E+02  0.41800000000E+01 0. -1.
         -5    1    4    4    0  501  0.23565890122E+02  0.79254081508E+02  0.33722132026E+03  0.34723515354E+03  0.41800000000E+01 0. -1.
</event>
<event>
11    1  0.8299058E-009  0.2959378E+03  0.7561462E-02  0.1001925E+00
         22   -1    0    0    0    0  0.00000000000E+00  0.00000000000E+00  0.65145703259E+03  0.65145703259E+03  0.00000000000E+00 0. -1.
         22   -1    0    0    0    0 -0.00000000000E+00 -0.00000000000E+00 -0.41774892833E+03  0.41774892833E+03  0.00000000000E+00 0. -1.
        -24    2    1    2    0    0 -0.79282067076E+02  0.30844603440E+02 -0.25387563179E+03  0.27900285541E+03  0.78439283454E+02 0.  0.
         25    2    1    2    0    0 -0.10561407963E+03 -0.23630683058E+03  0.93643069079E+02  0.30234154643E+03  0.12508450870E+03 0.  0.
         24    2    1    2    0    0  0.18489614671E+03  0.20546222714E+03  0.39394066697E+03  0.48786155909E+03  0.80114542358E+02 0.  0.
        -11    1    5    5    0    0  0.11885813358E+03  0.77665640215E+02  0.22405112356E+03  0.26525103874E+03  0.00000000000E+00 0.  1.
         12    1    5    5    0    0  0.66038013132E+02  0.12779658693E+03  0.16988954341E+03  0.22261052034E+03  0.00000000000E+00 0. -1.
         11    1    3    3    0    0 -0.83771291398E+02  0.47936154154E+02 -0.22881784251E+03  0.24834071190E+03  0.00000000000E+00 0. -1.
        -12    1    3    3    0    0  0.44892243223E+01 -0.17091550714E+02 -0.25057789279E+02  0.30662143505E+02  0.00000000000E+00 0.  1.
          5    1    4    4  501    0 -0.39795301966E+02 -0.47767745886E+02 -0.28172035126E+02  0.68385375401E+02  0.41800000000E+01 0.  1.
         -5    1    4    4    0  501 -0.65818777667E+02 -0.18853908470E+03  0.12181510420E+03  0.23395617103E+03  0.41800000000E+01 0.  1.
</event>
<event>
11    1  0.8299058E-009  0.1807504E+03  0.7561462E-02  0.1069037E+00
         22   -1    0    0    0    0  0.00000000000E+00  0.00000000000E+00  0.32486877554E+04  0.32486877554E+04  0.00000000000E+00 0. -1.
         22   -1    0    0    0    0 -0.00000000000E+00 -0.00000000000E+00 -0.19811343729E+03  0.19811343729E+03  0.00000000000E+00 0. -1.
        -24    2    1    2    0    0 -0.10852581791E+03  0.71597040324E+02 -0.15035649844E+03  0.22608599902E+03  0.10772099606E+03 0.  0.
         25    2    1    2    0    0  0.16036174661E+03 -0.19530109864E+02  0.12365387262E+04  0.12533057569E+04  0.12509989572E+03 0.  0.
         24    2    1    2    0    0 -0.51835928697E+02 -0.52066930460E+02  0.19643920904E+04  0.19674094368E+04  0.80409443247E+02 0.  0.
        -13    1    5    5    0    0  0.78415868615E-01 -0.49111275278E+02  0.59236466938E+03  0.59439702644E+03  0.00000000000E+00 0.  1.
         14    1    5    5    0    0 -0.51914344565E+02 -0.29556551820E+01  0.13720274210E+04  0.13730124104E+04  0.00000000000E+00 0. -1.
         11    1    3    3    0    0 -0.48457731579E+02  0.92943748635E+02 -0.99709650669E+02  0.14466757272E+03  0.00000000000E+00 0. -1.
        -12    1    3    3    0    0 -0.60068086335E+02 -0.21346708311E+02 -0.50646847770E+02  0.81418426298E+02  0.00000000000E+00 0.  1.
          5    1    4    4  501    0  0.32522811919E+02  0.44532359379E+01  0.51976105797E+02  0.61616171411E+02  0.41800000000E+01 0.  1.
         -5    1    4    4    0  501  0.12783893469E+03 -0.23983345802E+02  0.11845626204E+04  0.11916895855E+04  0.41800000000E+01 0.  1.
</event>
<event>
11    1  0.8299058E-009  0.1771066E+03  0.7561462E-02  0.1072008E+00
         22   -1    0    0    0    0  0.00000000000E+00  0.00000000000E+00  0.35713535767E+03  0.35713535767E+03  0.00000000000E+00 0. -1.
         22   -1    0    0    0    0 -0.00000000000E+00 -0.00000000000E+00 -0.15800007227E+03  0.15800007227E+03  0.00000000000E+00 0. -1.
         24    2    1    2    0    0 -0.11298236064E+03 -0.39288933852E+02 -0.26572084659E+02  0.14535121200E+03  0.78180976002E+02 0.  0.
         25    2    1    2    0    0  0.14149484441E+03  0.17038435716E+02  0.95067521215E+02  0.21212339489E+03  0.12508957503E+03 0.  0.
        -24    2    1    2    0    0 -0.28512483771E+02  0.22250498136E+02  0.13063984885E+03  0.15766082305E+03  0.80511605493E+02 0.  0.
        -13    1    3    3    0    0 -0.91423150588E+01  0.12181626981E+02 -0.25201892671E+02  0.29446720611E+02  0.00000000000E+00 0.  1.
         14    1    3    3    0    0 -0.10384004558E+03 -0.51470560833E+02 -0.13701919876E+01  0.11590449139E+03  0.00000000000E+00 0. -1.
         13    1    5    5    0    0 -0.51498459550E+02 -0.13251205377E+01  0.10090682344E+03  0.11329622366E+03  0.00000000000E+00 0. -1.
        -14    1    5    5    0    0  0.22985975780E+02  0.23575618673E+02  0.29733025411E+02  0.44364599384E+02  0.00000000000E+00 0.  1.
          5    1    4    4  501    0 -0.74263505858E+01  0.19424879986E+02 -0.15760318563E+02  0.26426060748E+02  0.41800000000E+01 0.  1.
         -5    1    4    4    0  501  0.14892119500E+03 -0.23864442698E+01  0.11082783978E+03  0.18569733414E+03  0.41800000000E+01 0.  1.
</event>
<event>
11    1  0.8299058E-009  0.1251655E+03  0.7561462E-02  0.1125356E+00
         22   -1    0    0    0    0  0.00000000000E+00  0.00000000000E+00  0.25568097167E+03  0.25568097167E+03  0.00000000000E+00 0. -1.
         22   -1    0    0    0    0 -0.00000000000E+00 -0.00000000000E+00 -0.17067410696E+04  0.17067410696E+04  0.00000000000E+00 0.  1.
        -24    2    1    2    0    0 -0.18019904712E+01  0.39508713605E+01 -0.16426897472E+04  0.16447178060E+04  0.81536489867E+02 0.  0.
         25    2    1    2    0    0 -0.12075742326E+02 -0.81361471972E+01  0.19304976950E+02  0.12740656775E+03  0.12509089066E+03 0.  0.
         24    2    1    2    0    0  0.13877732797E+02  0.41852758366E+01  0.17232467229E+03  0.19029766757E+03  0.79418521779E+02 0.  0.
        -11    1    5    5    0    0  0.19637571963E+02  0.39380100274E+02  0.79643697630E+02  0.90992005706E+02  0.00000000000E+00 0.  1.
         12    1    5    5    0    0 -0.57598391653E+01 -0.35194824438E+02  0.92680974664E+02  0.99305661868E+02  0.00000000000E+00 0. -1.
         13    1    3    3    0    0  0.17895931883E+02  0.36071056780E+02 -0.60135550966E+03  0.60270211092E+03  0.00000000000E+00 0. -1.
        -14    1    3    3    0    0 -0.19697922354E+02 -0.32120185419E+02 -0.10413342375E+04  0.10420156951E+04  0.00000000000E+00 0.  1.
          5    1    4    4  501    0 -0.15238609337E+01  0.40473125815E+02 -0.34966185671E+02  0.53670314008E+02  0.41800000000E+01 0.  1.
         -5    1    4    4    0  501 -0.10551881392E+02 -0.48609273012E+02  0.54271162621E+02  0.73736253742E+02  0.41800000000E+01 0.  1.
</event>
<event>
11    1  0.8299058E-009  0.1316365E+03  0.7561462E-02  0.1117274E+00
         22   -1    0    0    0    0  0.00000000000E+00  0.00000000000E+00  0.37020418711E+03  0.37020418711E+03  0.00000000000E+00 0. -1.
         22   -1    0    0    0    0 -0.00000000000E+00 -0.00000000000E+00 -0.11221470947E+03  0.11221470947E+03  0.00000000000E+00 0. -1.
         24    2    1    2    0    0 -0.18228119838E+02  0.97271323050E+01 -0.38615816507E+02  0.92320805996E+02  0.81271572394E+02 0.  0.
         25    2    1    2    0    0  0.55150785646E+02 -0.12562118047E+01  0.86402058826E+02  0.16172808099E+03  0.12508984446E+03 0.  0.
        -24    2    1    2    0    0 -0.36922665808E+02 -0.84709205004E+01  0.21020323533E+03  0.22837000959E+03  0.80823396335E+02 0.  0.
        -13    1    3    3    0    0 -0.26697763762E+02 -0.12463302294E+02  0.15449309091E+02  0.33268388079E+02  0.00000000000E+00 0.  1.
         14    1    3    3    0    0  0.84696439233E+01  0.22190434599E+02 -0.54065125598E+02  0.59052417917E+02  0.00000000000E+00 0. -1.
         13    1    5    5    0    0  0.12104854812E+02  0.20736096381E+02  0.11410687812E+03  0.11660571529E+03  0.00000000000E+00 0. -1.
        -14    1    5    5    0    0 -0.49027520620E+02 -0.29207016882E+02  0.96096357202E+02  0.11176429430E+03  0.00000000000E+00 0.  1.
          5    1    4    4  501    0 -0.13504438789E+02 -0.43466399929E+02  0.62750146914E+02  0.77632152666E+02  0.41800000000E+01 0. -1.
         -5    1    4    4    0  501  0.68655224435E+02  0.42210188124E+02  0.23651911912E+02  0.84095928325E+02  0.41800000000E+01 0. -1.
</event>
<event>
11    1  0.8299058E-009  0.1585152E+03  0.7561462E-02  0.1088482E+00
         22   -1    0    0    0    0  0.00000000000E+00  0.00000000000E+00  0.57979516289E+03  0.57979516289E+03  0.00000000000E+00 0. -1.
         22   -1    0    0    0    0 -0.00000000000E+00 -0.00000000000E+00 -0.47241364995E+03  0.47241364995E+03  0.00000000000E+00 0.  1.
        -24    2    1    2    0    0 -0.77433991289E+02 -0.63911341915E+02 -0.31888973289E+03  0.34380124605E+03  0.80174512215E+02 0.  0.
         25    2    1    2    0    0  0.68387476909E+02  0.53884723761E+02 -0.95664109667E+02  0.17994709107E+03  0.12509565641E+03 0.  0.
         24    2    1    2    0    0  0.90465143798E+01  0.10026618153E+02  0.52193535549E+03  0.52846047572E+03  0.81679780804E+02 0.  0.
        -13    1    5    5    0    0 -0.10099304356E+02 -0.33131633197E+02  0.18257606142E+03  0.18583250327E+03  0.00000000000E+00 0.  1.
         14    1    5    5    0    0  0.19145818736E+02  0.43158251350E+02  0.33935929407E+03  0.34262797245E+03  0.00000000000E+00 0. -1.
         11    1    3    3    0    0 -0.90693588322E+01 -0.40000233342E+02 -0.46763929078E+02  0.62202387413E+02  0.00000000000E+00 0. -1.
        -12    1    3    3    0    0 -0.68364632457E+02 -0.23911108573E+02 -0.27212580382E+03  0.28159885864E+03  0.00000000000E+00 0.  1.
          5    1    4    4  501    0  0.95134349717E+02  0.36410308750E+01 -0.61899807769E+02  0.11363476670E+03  0.41800000000E+01 0. -1.
         -5    1    4    4    0  501 -0.26746872808E+02  0.50243692886E+02 -0.33764301897E+02  0.66312324364E+02  0.41800000000E+01 0. -1.
</event>
<event>
11    1  0.8299058E-009  0.2088891E+03  0.7561462E-02  0.1048410E+00
         22   -1    0    0    0    0  0.00000000000E+00  0.00000000000E+00  0.87142434332E+03  0.87142434332E+03  0.00000000000E+00 0.  1.
         22   -1    0    0    0    0 -0.00000000000E+00 -0.00000000000E+00 -0.36671272561E+03  0.36671272561E+03  0.00000000000E+00 0.  1.
         24    2    1    2    0    0 -0.13316043615E+03  0.97540355152E+02 -0.29035973491E+03  0.34318245734E+03  0.78864445272E+02 0.  0.
         25    2    1    2    0    0  0.16197806468E+03 -0.10208151060E+03  0.23461271208E+03  0.32764005256E+03  0.12508937256E+03 0.  0.
        -24    2    1    2    0    0 -0.28817628527E+02  0.45411554514E+01  0.56045864053E+03  0.56731455903E+03  0.82950848922E+02 0.  0.
        -11    1    3    3    0    0 -0.10552106261E+03  0.83579707378E+02 -0.27974720190E+03  0.31044928589E+03  0.00000000000E+00 0.  1.
         12    1    3    3    0    0 -0.27639373541E+02  0.13960647774E+02 -0.10612533009E+02  0.32733171445E+02  0.00000000000E+00 0. -1.
         13    1    5    5    0    0  0.24094037356E+02 -0.34570497475E+01  0.73526096385E+02  0.77450375587E+02  0.00000000000E+00 0. -1.
        -14    1    5    5    0    0 -0.52911665883E+02  0.79982051989E+01  0.48693254415E+03  0.48986418344E+03  0.00000000000E+00 0.  1.
          5    1    4    4  501    0  0.14482281953E+03 -0.65357155122E+02  0.10187561476E+03  0.18878908884E+03  0.41800000000E+01 0. -1.
         -5    1    4    4    0  501  0.17155245153E+02 -0.36724355482E+02  0.13273709732E+03  0.13885096373E+03  0.41800000000E+01 0. -1.
</event>
<event>
11    1  0.8299058E-009  0.2672037E+03  0.7561462E-02  0.1015114E+00
         22   -1    0    0    0    0  0.00000000000E+00  0.00000000000E+00  0.53600629371E+03  0.53600629371E+03  0.00000000000E+00 0.  1.
         22   -1    0    0    0    0 -0.00000000000E+00 -0.00000000000E+00 -0.15901306099E+04  0.15901306099E+04  0.00000000000E+00 0. -1.
         24    2    1    2    0    0 -0.45122399650E+01 -0.84320465378E+01 -0.13343845087E+04  0.13368506093E+04  0.80598229256E+02 0.  0.
         25    2    1    2    0    0 -0.21220789898E+03  0.10240629707E+03 -0.13941561686E+03  0.30100386498E+03  0.12508944976E+03 0.  0.
        -24    2    1    2    0    0  0.21672013895E+03 -0.93974250533E+02  0.41967580942E+03  0.48828242936E+03  0.80580192503E+02 0.  0.
        -11    1    3    3    0    0 -0.12225636889E+02 -0.31126914284E+02 -0.25301583094E+03  0.25521630374E+03  0.00000000000E+00 0.  1.
         12    1    3    3    0    0  0.77133969241E+01  0.22694867746E+02 -0.10813686778E+04  0.10816343055E+04  0.00000000000E+00 0. -1.
         13    1    5    5    0    0  0.67849191365E+02 -0.17969433040E+02  0.62717756986E+02  0.94127202944E+02  0.00000000000E+00 0. -1.
        -14    1    5    5    0    0  0.14887094758E+03 -0.76004817493E+02  0.35695805244E+03  0.39415522642E+03  0.00000000000E+00 0.  1.
          5    1    4    4  501    0 -0.11566033234E+03  0.54712416324E+02 -0.14458422970E+03  0.19311352323E+03  0.41800000000E+01 0. -1.
         -5    1    4    4    0  501 -0.96547566637E+02  0.47693880747E+02  0.51686128408E+01  0.10789034175E+03  0.41800000000E+01 0. -1.
</event>
<event>
11    1  0.9450597E-009  0.1694701E+03  0.7561462E-02  0.1078494E+00
         22   -1    0    0    0    0  0.00000000000E+00  0.00000000000E+00  0.80542685065E+03  0.80542685065E+03  0.00000000000E+00 0.  1.
         22   -1    0    0    0    0 -0.00000000000E+00 -0.00000000000E+00 -0.28200732442E+03  0.28200732442E+03  0.00000000000E+00 0. -1.
        -24    2    1    2    0    0  0.18712672216E+02  0.17088220668E+02 -0.16920213492E+03  0.18934956708E+03  0.81127829402E+02 0.  0.
         25    2    1    2    0    0  0.81927484109E+02 -0.72443263938E+02 -0.24141427389E+02  0.16789922460E+03  0.12508877633E+03 0.  0.
         24    2    1    2    0    0 -0.10064015632E+03  0.55355043270E+02  0.71676308854E+03  0.73018538339E+03  0.78922412214E+02 0.  0.
        -11    1    5    5    0    0  0.53178378504E+01  0.28063663273E+02  0.19428245461E+03  0.19637087556E+03  0.00000000000E+00 0.  1.
         12    1    5    5    0    0 -0.10595799417E+03  0.27291379996E+02  0.52248063392E+03  0.53381450784E+03  0.00000000000E+00 0. -1.
         13    1    3    3    0    0  0.44133902035E+02  0.45891048771E+01 -0.14642469349E+03  0.15300017012E+03  0.00000000000E+00 0. -1.
        -14    1    3    3    0    0 -0.25421229820E+02  0.12499115791E+02 -0.22777441428E+02  0.36349396956E+02  0.00000000000E+00 0.  1.
          5    1    4    4  501    0  0.51361805349E+02 -0.95903762691E+02 -0.51520530464E+02  0.12044668616E+03  0.41800000000E+01 0.  1.
         -5    1    4    4    0  501  0.30565678759E+02  0.23460498753E+02  0.27379103075E+02  0.47452538446E+02  0.41800000000E+01 0.  1.
</event>
<event>
11    1  0.8299058E-009  0.2002335E+03  0.7561462E-02  0.1054359E+00
         22   -1    0    0    0    0  0.00000000000E+00  0.00000000000E+00  0.37471461353E+03  0.37471461353E+03  0.00000000000E+00 0.  1.
         22   -1    0    0    0    0 -0.00000000000E+00 -0.00000000000E+00 -0.25930242151E+03  0.25930242151E+03  0.00000000000E+00 0.  1.
        -24    2    1    2    0    0  0.33409036448E+02  0.15937507157E+03 -0.10984661315E+03  0.21211710860E+03  0.80067547658E+02 0.  0.
         25    2    1    2    0    0  0.24284441840E+02 -0.14766608669E+03  0.21746977034E+02  0.19625041032E+03  0.12508511209E+03 0.  0.
         24    2    1    2    0    0 -0.57693478288E+02 -0.11708984879E+02  0.20351182814E+03  0.22564951612E+03  0.77685276402E+02 0.  0.
        -13    1    5    5    0    0 -0.47928437493E+02  0.13025214654E+02  0.18887357302E+03  0.19529469507E+03  0.00000000000E+00 0.  1.
         14    1    5    5    0    0 -0.97650407947E+01 -0.24734199533E+02  0.14638255123E+02  0.30354821055E+02  0.00000000000E+00 0. -1.
         11    1    3    3    0    0 -0.24661409956E+02  0.29154081246E+02 -0.15880993782E+02  0.41356396818E+02  0.00000000000E+00 0. -1.
        -12    1    3    3    0    0  0.58070446404E+02  0.13022099032E+03 -0.93965619366E+02  0.17076071178E+03  0.00000000000E+00 0.  1.
          5    1    4    4  501    0  0.28362813535E+02 -0.15590606295E+03 -0.13968551057E+02  0.15913435353E+03  0.41800000000E+01 0.  1.
         -5    1    4    4    0  501 -0.40783716946E+01  0.82399762615E+01  0.35715528091E+02  0.37116056786E+02  0.41800000000E+01 0.  1.
</event>
<event>
11    1  0.8299058E-009  0.1924300E+03  0.7561462E-02  0.1060010E+00
         22   -1    0    0    0    0  0.00000000000E+00  0.00000000000E+00  0.32245715772E+04  0.32245715772E+04  0.00000000000E+00 0. -1.
         22   -1    0    0    0    0 -0.00000000000E+00 -0.00000000000E+00 -0.45642733882E+03  0.45642733882E+03  0.00000000000E+00 0. -1.
         24    2    1    2    0    0 -0.25192815177E+02  0.45886505178E+02 -0.36980547335E+03  0.38270278662E+03  0.83457087617E+02 0.  0.
         25    2    1    2    0    0  0.66403359992E+02 -0.18468701456E+03  0.95859144181E+02  0.25170428007E+03  0.12508944608E+03 0.  0.
        -24    2    1    2    0    0 -0.41210544815E+02  0.13880050938E+03  0.30420905675E+04  0.30465918493E+04  0.80268205587E+02 0.  0.
        -11    1    3    3    0    0 -0.41179917354E+02  0.50595675604E+02 -0.16817075672E+03  0.18038046291E+03  0.00000000000E+00 0.  1.
         12    1    3    3    0    0  0.15987102177E+02 -0.47091704259E+01 -0.20163471663E+03  0.20232232371E+03  0.00000000000E+00 0. -1.
         11    1    5    5    0    0  0.20932054839E+02  0.43225001581E+02  0.12144229642E+04  0.12153722424E+04  0.00000000000E+00 0. -1.
        -12    1    5    5    0    0 -0.62142599654E+02  0.95575507797E+02  0.18276676033E+04  0.18312196069E+04  0.00000000000E+00 0.  1.
          5    1    4    4  501    0  0.13610433865E+02 -0.15484279817E+01  0.54866670313E+02  0.56705074292E+02  0.41800000000E+01 0.  1.
         -5    1    4    4    0  501  0.52792926127E+02 -0.18313858658E+03  0.40992473868E+02  0.19499920578E+03  0.41800000000E+01 0.  1.
</event>
<event>
11    1  0.8299058E-009  0.1611535E+03  0.7561462E-02  0.1085997E+00
         22   -1    0    0    0    0  0.00000000000E+00  0.00000000000E+00  0.18425035000E+04  0.18425035000E+04  0.00000000000E+00 0.  1.
         22   -1    0    0    0    0 -0.00000000000E+00 -0.00000000000E+00 -0.46747297575E+03  0.46747297575E+03  0.00000000000E+00 0. -1.
         24    2    1    2    0    0  0.49394743484E+01  0.15684504294E+02 -0.30190730180E+03  0.31284188986E+03  0.80322021185E+02 0.  0.
         25    2    1    2    0    0 -0.27347821774E+02 -0.11454229061E+03 -0.11098175463E+03  0.20452761689E+03  0.12508699578E+03 0.  0.
        -24    2    1    2    0    0  0.22408347425E+02  0.98857786317E+02  0.17879195807E+04  0.17926069691E+04  0.80674174314E+02 0.  0.
        -13    1    3    3    0    0 -0.97441211956E+01 -0.17168030980E+02 -0.18163543616E+02  0.26825426414E+02  0.00000000000E+00 0.  1.
         14    1    3    3    0    0  0.14683595544E+02  0.32852535274E+02 -0.28374375818E+03  0.28601646344E+03  0.00000000000E+00 0. -1.
         13    1    5    5    0    0  0.32582495238E+02  0.10693787601E+02  0.79160414516E+03  0.79234657740E+03  0.00000000000E+00 0. -1.
        -14    1    5    5    0    0 -0.10174147813E+02  0.88163998716E+02  0.99631543557E+03  0.10002603917E+04  0.00000000000E+00 0.  1.
          5    1    4    4  501    0 -0.29239258342E+02 -0.13785094356E+03 -0.70582989572E+02  0.15766181429E+03  0.41800000000E+01 0.  1.
         -5    1    4    4    0  501  0.18914365686E+01  0.23308652949E+02 -0.40398765057E+02  0.46865802593E+02  0.41800000000E+01 0.  1.
</event>
<event>
11    1  0.8299058E-009  0.1593013E+03  0.7561462E-02  0.1087736E+00
         22   -1    0    0    0    0  0.00000000000E+00  0.00000000000E+00  0.20407997062E+03  0.20407997062E+03  0.00000000000E+00 0. -1.
         22   -1    0    0    0    0 -0.00000000000E+00 -0.00000000000E+00 -0.27245733833E+04  0.27245733833E+04  0.00000000000E+00 0. -1.
        -24    2    1    2    0    0 -0.11404063973E+02 -0.15631305189E+02 -0.17304196945E+04  0.17323746533E+04  0.79970182645E+02 0.  0.
         25    2    1    2    0    0 -0.78651402860E+02 -0.25461647176E+02 -0.96685861378E+03  0.97841560092E+03  0.12508865033E+03 0.  0.
         24    2    1    2    0    0  0.90055466833E+02  0.41092952365E+02  0.17678489560E+03  0.21786309964E+03  0.80080041412E+02 0.  0.
        -11    1    5    5    0    0  0.22552945017E+02 -0.16396612952E+02  0.11230102036E+02  0.30059930755E+02  0.00000000000E+00 0.  1.
         12    1    5    5    0    0  0.67502521816E+02  0.57489565317E+02  0.16555479356E+03  0.18780316889E+03  0.00000000000E+00 0. -1.
         11    1    3    3    0    0  0.90800449863E+01  0.94297971498E+01 -0.14550975903E+04  0.14551564746E+04  0.00000000000E+00 0. -1.
        -12    1    3    3    0    0 -0.20484108959E+02 -0.25061102339E+02 -0.27532210420E+03  0.27721817875E+03  0.00000000000E+00 0.  1.
          5    1    4    4  501    0  0.22256801354E+02 -0.22152393740E+01 -0.48522625547E+03  0.48575947123E+03  0.41800000000E+01 0. -1.
         -5    1    4    4    0  501 -0.10090820421E+03 -0.23246407802E+02 -0.48163235831E+03  0.49265612969E+03  0.41800000000E+01 0. -1.
</event>
<event>
11    1  0.8299058E-009  0.1540644E+03  0.7561462E-02  0.1092797E+00
         22   -1    0    0    0    0  0.00000000000E+00  0.00000000000E+00  0.70176347053E+03  0.70176347053E+03  0.00000000000E+00 0. -1.
         22   -1    0    0    0    0 -0.00000000000E+00 -0.00000000000E+00 -0.24431739674E+03  0.24431739674E+03  0.00000000000E+00 0.  1.
         24    2    1    2    0    0 -0.89835584836E+02 -0.12845093320E+02 -0.17878224490E+03  0.21597139213E+03  0.80281519685E+02 0.  0.
         25    2    1    2    0    0  0.89237025349E+02 -0.61563313078E+02  0.12494470905E+03  0.20739338130E+03  0.12509015179E+03 0.  0.
        -24    2    1    2    0    0  0.59855948692E+00  0.74408406398E+02  0.51128360964E+03  0.52271609384E+03  0.79273047500E+02 0.  0.
        -13    1    3    3    0    0 -0.62710653634E+02  0.14880468258E+02 -0.16076513792E+03  0.17320359114E+03  0.00000000000E+00 0.  1.
         14    1    3    3    0    0 -0.27124931202E+02 -0.27725561578E+02 -0.18017106981E+02  0.42767800989E+02  0.00000000000E+00 0. -1.
         13    1    5    5    0    0 -0.30985375837E+02  0.56257962770E+02  0.41168512141E+03  0.41666496263E+03  0.00000000000E+00 0. -1.
        -14    1    5    5    0    0  0.31583935324E+02  0.18150443628E+02  0.99598488224E+02  0.10605113121E+03  0.00000000000E+00 0.  1.
          5    1    4    4  501    0  0.76865392786E+02 -0.12498157033E+02  0.13474199325E+03  0.15568355624E+03  0.41800000000E+01 0.  1.
         -5    1    4    4    0  501  0.12371632563E+02 -0.49065156045E+02 -0.97972841990E+01  0.51709825059E+02  0.41800000000E+01 0.  1.
</event>
<event>
11    1  0.8299058E-009  0.1882656E+03  0.7561462E-02  0.1063146E+00
         22   -1    0    0    0    0  0.00000000000E+00  0.00000000000E+00  0.27198725641E+03  0.27198725641E+03  0.00000000000E+00 0.  1.
         22   -1    0    0    0    0 -0.00000000000E+00 -0.00000000000E+00 -0.85433715760E+03  0.85433715760E+03  0.00000000000E+00 0.  1.
         24    2    1    2    0    0  0.13221814755E+03 -0.61318164285E+02 -0.37846700688E+03  0.41351251588E+03  0.80707928197E+02 0.  0.
         25    2    1    2    0    0 -0.11320843820E+03  0.75547680843E+02 -0.43197354660E+03  0.46986573929E+03  0.12509622469E+03 0.  0.
        -24    2    1    2    0    0 -0.19009709350E+02 -0.14229516558E+02  0.22809065230E+03  0.24294615884E+03  0.80209988377E+02 0.  0.
        -11    1    3    3    0    0  0.10949232426E+03 -0.13723165073E+02 -0.29289121210E+03  0.31298906763E+03  0.00000000000E+00 0.  1.
         12    1    3    3    0    0  0.22725823295E+02 -0.47594999213E+02 -0.85575794787E+02  0.10052344825E+03  0.00000000000E+00 0. -1.
         11    1    5    5    0    0  0.29769204866E+02  0.67190320030E+01  0.87172030132E+02  0.92359697848E+02  0.00000000000E+00 0. -1.
        -12    1    5    5    0    0 -0.48778914216E+02 -0.20948548561E+02  0.14091862217E+03  0.15058646099E+03  0.00000000000E+00 0.  1.
          5    1    4    4  501    0 -0.11451216796E+03  0.10477500057E+03 -0.36626532323E+03  0.39781729067E+03  0.41800000000E+01 0. -1.
         -5    1    4    4    0  501  0.13037297601E+01 -0.29227319726E+02 -0.65708223371E+02  0.72048448617E+02  0.41800000000E+01 0. -1.
</event>
<event>
11    1  0.8299058E-009  0.1398906E+03  0.7561462E-02  0.1107681E+00
         22   -1    0    0    0    0  0.00000000000E+00  0.00000000000E+00  0.13148843240E+04  0.13148843240E+04  0.00000000000E+00 0. -1.
         22   -1    0    0    0    0 -0.00000000000E+00 -0.00000000000E+00 -0.17036539227E+03  0.17036539227E+03  0.00000000000E+00 0. -1.
         24    2    1    2    0    0 -0.20737926915E+02 -0.59785761584E+02 -0.14403624455E+03  0.17650252395E+03  0.80014388194E+02 0.  0.
         25    2    1    2    0    0 -0.23693113087E+02  0.42928437398E+02  0.70851724451E+03  0.72114522153E+03  0.12509808325E+03 0.  0.
        -24    2    1    2    0    0  0.44431040002E+02  0.16857324186E+02  0.58003793174E+03  0.58760197075E+03  0.81078894209E+02 0.  0.
        -11    1    3    3    0    0  0.23373802919E+02 -0.12281576638E+02 -0.11178841872E+02  0.28672954037E+02  0.00000000000E+00 0.  1.
         12    1    3    3    0    0 -0.44111729834E+02 -0.47504184946E+02 -0.13285740267E+03  0.14782956992E+03  0.00000000000E+00 0. -1.
         11    1    5    5    0    0 -0.78387372174E+01 -0.15326536865E+02  0.31819158258E+03  0.31865691858E+03  0.00000000000E+00 0. -1.
        -12    1    5    5    0    0  0.52269777220E+02  0.32183861051E+02  0.26184634916E+03  0.26894505218E+03  0.00000000000E+00 0.  1.
          5    1    4    4  501    0 -0.14217299215E+02 -0.37585649876E+02  0.11071057947E+03  0.11785210002E+03  0.41800000000E+01 0.  1.
         -5    1    4    4    0  501 -0.94758138724E+01  0.80514087274E+02  0.59780666504E+03  0.60329312151E+03  0.41800000000E+01 0.  1.
</event>
<event>
11    1  0.8299058E-009  0.1460015E+03  0.7561462E-02  0.1101036E+00
         22   -1    0    0    0    0  0.00000000000E+00  0.00000000000E+00  0.12092508392E+04  0.12092508392E+04  0.00000000000E+00 0. -1.
         22   -1    0    0    0    0 -0.00000000000E+00 -0.00000000000E+00 -0.16121744213E+03  0.16121744213E+03  0.00000000000E+00 0. -1.
        -24    2    1    2    0    0 -0.47374120913E+02  0.27630370686E+02 -0.11489786575E+03  0.15112127708E+03  0.81414839659E+02 0.  0.
         25    2    1    2    0    0  0.97303258500E+02  0.26822390543E+02  0.23022845076E+03  0.28078398150E+03  0.12508852858E+03 0.  0.
         24    2    1    2    0    0 -0.49929137587E+02 -0.54452761229E+02  0.93270281211E+03  0.93856302278E+03  0.74215834125E+02 0.  0.
        -11    1    5    5    0    0 -0.74211342068E+01 -0.94623639135E+01  0.17293686930E+02  0.21063740679E+02  0.00000000000E+00 0.  1.
         12    1    5    5    0    0 -0.42508003381E+02 -0.44990397315E+02  0.91540912518E+03  0.91749928210E+03  0.00000000000E+00 0. -1.
         13    1    3    3    0    0  0.13501188824E+01  0.41844631025E+02 -0.77467290794E+02  0.88056669876E+02  0.00000000000E+00 0. -1.
        -14    1    3    3    0    0 -0.48724239795E+02 -0.14214260339E+02 -0.37430574956E+02  0.63064607207E+02  0.00000000000E+00 0.  1.
          5    1    4    4  501    0  0.26331011499E+02  0.10350277232E+02 -0.95452527237E+01  0.30150201573E+02  0.41800000000E+01 0. -1.
         -5    1    4    4    0  501  0.70972247001E+02  0.16472113311E+02  0.23977370348E+03  0.25063377993E+03  0.41800000000E+01 0. -1.
</event>
<event>
11    1  0.8299058E-009  0.1814850E+03  0.7561462E-02  0.1068448E+00
         22   -1    0    0    0    0  0.00000000000E+00  0.00000000000E+00  0.54387886663E+03  0.54387886663E+03  0.00000000000E+00 0.  1.
         22   -1    0    0    0    0 -0.00000000000E+00 -0.00000000000E+00 -0.58794738316E+03  0.58794738316E+03  0.00000000000E+00 0.  1.
         24    2    1    2    0    0 -0.71321519257E+02 -0.10081216611E+02 -0.46958442285E+03  0.48185701210E+03  0.80549735479E+02 0.  0.
         25    2    1    2    0    0  0.16212489548E+03  0.95072372662E+02  0.30032008824E+02  0.22775684220E+03  0.12509204546E+03 0.  0.
        -24    2    1    2    0    0 -0.90803376227E+02 -0.84991156051E+02  0.39548389750E+03  0.42221239549E+03  0.79918983864E+02 0.  0.
        -13    1    3    3    0    0 -0.53362549151E+02 -0.14590453171E+02 -0.45482737065E+03  0.45817941908E+03  0.00000000000E+00 0.  1.
         14    1    3    3    0    0 -0.17958970105E+02  0.45092365594E+01 -0.14757052209E+02  0.23677593025E+02  0.00000000000E+00 0. -1.
         11    1    5    5    0    0 -0.60756699781E+02 -0.33868046432E+01  0.16671072901E+03  0.17746919220E+03  0.00000000000E+00 0. -1.
        -12    1    5    5    0    0 -0.30046676446E+02 -0.81604351408E+02  0.22877316849E+03  0.24474320328E+03  0.00000000000E+00 0.  1.
          5    1    4    4  501    0  0.88568336636E+02  0.56284127422E+02 -0.46323129107E+02  0.11478483325E+03  0.41800000000E+01 0.  1.
         -5    1    4    4    0  501  0.73556558848E+02  0.38788245240E+02  0.76355137931E+02  0.11297200895E+03  0.41800000000E+01 0.  1.
</event>
<event>
11    1  0.8299058E-009  0.1611104E+03  0.7561462E-02  0.1086038E+00
         22   -1    0    0    0    0  0.00000000000E+00  0.00000000000E+00  0.17795573134E+03  0.17795573134E+03  0.00000000000E+00 0. -1.
         22   -1    0    0    0    0 -0.00000000000E+00 -0.00000000000E+00 -0.12468649699E+04  0.12468649699E+04  0.00000000000E+00 0. -1.
        -24    2    1    2    0    0  0.30874335805E+01 -0.95158990835E+02 -0.96230301214E+03  0.97033579067E+03  0.80372219675E+02 0.  0.
         25    2    1    2    0    0 -0.32258882608E+02  0.17122317132E+03 -0.21022702297E+03  0.30033501535E+03  0.12509080844E+03 0.  0.
         24    2    1    2    0    0  0.29171449027E+02 -0.76064180488E+02  0.10362079654E+03  0.15414989523E+03  0.79926139233E+02 0.  0.
        -11    1    5    5    0    0  0.16916378228E+02 -0.64479205988E+01 -0.97390697746E+01  0.20556969924E+02  0.00000000000E+00 0.  1.
         12    1    5    5    0    0  0.12255070799E+02 -0.69616259889E+02  0.11335986632E+03  0.13359292531E+03  0.00000000000E+00 0. -1.
         13    1    3    3    0    0 -0.32276065904E+02 -0.65525144704E+02 -0.44238411411E+03  0.44837372072E+03  0.00000000000E+00 0. -1.
        -14    1    3    3    0    0  0.35363499484E+02 -0.29633846131E+02 -0.51991889803E+03  0.52196206995E+03  0.00000000000E+00 0.  1.
          5    1    4    4  501    0  0.35172329647E+02  0.12321276500E+03 -0.15301886020E+03  0.19962645669E+03  0.41800000000E+01 0.  1.
         -5    1    4    4    0  501 -0.67431212255E+02  0.48010406319E+02 -0.57208162769E+02  0.10070855867E+03  0.41800000000E+01 0.  1.
</event>
<event>
11    1  0.8299058E-009  0.2241907E+03  0.7561462E-02  0.1038624E+00
         22   -1    0    0    0    0  0.00000000000E+00  0.00000000000E+00  0.56535130726E+03  0.56535130726E+03  0.00000000000E+00 0. -1.
         22   -1    0    0    0    0 -0.00000000000E+00 -0.00000000000E+00 -0.45596604443E+03  0.45596604443E+03  0.00000000000E+00 0. -1.
        -24    2    1    2    0    0 -0.16360971806E+03  0.11737008600E+03 -0.35009501579E+03  0.41187162263E+03  0.80795027805E+02 0.  0.
         25    2    1    2    0    0  0.14034487549E+03  0.45981634051E+01  0.82163429231E+02  0.20522211954E+03  0.12508981598E+03 0.  0.
         24    2    1    2    0    0  0.23264842565E+02 -0.12196824941E+03  0.37731684939E+03  0.40422360952E+03  0.74908042941E+02 0.  0.
        -13    1    5    5    0    0  0.50117274098E+02 -0.74143569077E+02  0.25239773315E+03  0.26779399862E+03  0.00000000000E+00 0.  1.
         14    1    5    5    0    0 -0.26852431533E+02 -0.47824680330E+02  0.12491911625E+03  0.13642961090E+03  0.00000000000E+00 0. -1.
         13    1    3    3    0    0 -0.13293596596E+03  0.12461591966E+03 -0.32029133391E+03  0.36849374087E+03  0.00000000000E+00 0. -1.
        -14    1    3    3    0    0 -0.30673752092E+02 -0.72458336603E+01 -0.29803681880E+02  0.43377881765E+02  0.00000000000E+00 0.  1.
          5    1    4    4  501    0  0.50954669331E+02 -0.53324501289E+02  0.62629047102E+02  0.96849113084E+02  0.41800000000E+01 0.  1.
         -5    1    4    4    0  501  0.89390206160E+02  0.57922664694E+02  0.19534382129E+02  0.10837300645E+03  0.41800000000E+01 0.  1.
</event>
<event>
11    1  0.8299058E-009  0.1478845E+03  0.7561462E-02  0.1099060E+00
         22   -1    0    0    0    0  0.00000000000E+00  0.00000000000E+00  0.69910584854E+03  0.69910584854E+03  0.00000000000E+00 0. -1.
         22   -1    0    0    0    0 -0.00000000000E+00 -0.00000000000E+00 -0.23647502094E+04  0.23647502094E+04  0.00000000000E+00 0.  1.
         24    2    1    2    0    0  0.27646835563E+02  0.17016038854E+01 -0.23070313206E+04  0.23086123960E+04  0.80811123285E+02 0.  0.
         25    2    1    2    0    0  0.11464258320E+02 -0.71486578525E+02  0.49743452589E+02  0.15284432729E+03  0.12508084258E+03 0.  0.
        -24    2    1    2    0    0 -0.39111093883E+02  0.69784974639E+02  0.59164350714E+03  0.60239933468E+03  0.80270159713E+02 0.  0.
        -13    1    3    3    0    0  0.22541006017E+02 -0.83758343140E+01 -0.22638515283E+04  0.22639792388E+04  0.00000000000E+00 0.  1.
         14    1    3    3    0    0  0.51058295460E+01  0.10077438199E+02 -0.43179792343E+02  0.44633157213E+02  0.00000000000E+00 0. -1.
         11    1    5    5    0    0 -0.11430786517E+01  0.69971098160E+02  0.46336768872E+03  0.46862231718E+03  0.00000000000E+00 0. -1.
        -12    1    5    5    0    0 -0.37968015231E+02 -0.18612352020E+00  0.12827581841E+03  0.13377701750E+03  0.00000000000E+00 0.  1.
          5    1    4    4  501    0 -0.30195978533E+02 -0.11201595043E+02 -0.30177478770E+02  0.44333119403E+02  0.41800000000E+01 0. -1.
         -5    1    4    4    0  501  0.41660236853E+02 -0.60284983482E+02  0.79920931359E+02  0.10851120789E+03  0.41800000000E+01 0. -1.
</event>
<event>
11    1  0.8299058E-009  0.1267302E+03  0.7561462E-02  0.1123353E+00
         22   -1    0    0    0    0  0.00000000000E+00  0.00000000000E+00  0.12567383359E+04  0.12567383359E+04  0.00000000000E+00 0.  1.
         22   -1    0    0    0    0 -0.00000000000E+00 -0.00000000000E+00 -0.10105476547E+04  0.10105476547E+04  0.00000000000E+00 0. -1.
         24    2    1    2    0    0  0.18511640021E+02  0.75832586762E+01 -0.85594987167E+03  0.86052501230E+03  0.86330338525E+02 0.  0.
         25    2    1    2    0    0 -0.87205805812E+01 -0.38473249080E+02 -0.12225502385E+03  0.17930209308E+03  0.12508681108E+03 0.  0.
        -24    2    1    2    0    0 -0.97910594394E+01  0.30889990403E+02  0.12243955768E+04  0.12274588852E+04  0.80378667240E+02 0.  0.
        -13    1    3    3    0    0  0.10617912247E+00  0.38704518231E+02 -0.20821610540E+03  0.21178290194E+03  0.00000000000E+00 0.  1.
         14    1    3    3    0    0  0.18405460898E+02 -0.31121259555E+02 -0.64773376627E+03  0.64874211036E+03  0.00000000000E+00 0. -1.
         13    1    5    5    0    0 -0.42264597516E+02  0.11988403958E+01  0.54254718421E+03  0.54419222754E+03  0.00000000000E+00 0. -1.
        -14    1    5    5    0    0  0.32473538077E+02  0.29691150008E+02  0.68184839256E+03  0.68326665768E+03  0.00000000000E+00 0.  1.
          5    1    4    4  501    0 -0.53579225213E+02  0.18620450914E+02 -0.67489813110E+02  0.88259854069E+02  0.41800000000E+01 0. -1.
         -5    1    4    4    0  501  0.44858644632E+02 -0.57093699993E+02 -0.54765210742E+02  0.91042239014E+02  0.41800000000E+01 0. -1.
</event>
<event>
11    1  0.8299058E-009  0.2961943E+03  0.7561462E-02  0.1001815E+00
         22   -1    0    0    0    0  0.00000000000E+00  0.00000000000E+00  0.10873112962E+04  0.10873112962E+04  0.00000000000E+00 0. -1.
         22   -1    0    0    0    0 -0.00000000000E+00 -0.00000000000E+00 -0.30777653097E+03  0.30777653097E+03  0.00000000000E+00 0. -1.
         24    2    1    2    0    0 -0.48074504033E+02 -0.38816213640E+02 -0.15933786016E+03  0.18895383675E+03  0.80604853201E+02 0.  0.
         25    2    1    2    0    0 -0.17953785692E+03  0.18687668987E+03  0.75337286178E+02  0.29745635471E+03  0.12509131459E+03 0.  0.
        -24    2    1    2    0    0  0.22761236096E+03 -0.14806047623E+03  0.86353533925E+03  0.90867763574E+03  0.79198939883E+02 0.  0.
        -11    1    3    3    0    0 -0.14709893864E+02 -0.25562364301E+02 -0.42889245499E+01  0.29802857580E+02  0.00000000000E+00 0.  1.
         12    1    3    3    0    0 -0.33364610169E+02 -0.13253849339E+02 -0.15504893561E+03  0.15915097917E+03  0.00000000000E+00 0. -1.
         11    1    5    5    0    0  0.20669625927E+03 -0.13225984477E+03  0.67287981612E+03  0.71622849502E+03  0.00000000000E+00 0. -1.
        -12    1    5    5    0    0  0.20916101684E+02 -0.15800631459E+02  0.19065552313E+03  0.19244914072E+03  0.00000000000E+00 0.  1.
          5    1    4    4  501    0 -0.48273446343E+02 -0.44695103927E+01  0.39398552749E+02  0.62610067112E+02  0.41800000000E+01 0.  1.
         -5    1    4    4    0  501 -0.13126441058E+03  0.19134620026E+03  0.35938733429E+02  0.23484628760E+03  0.41800000000E+01 0.  1.
</event>
<event>
11    1  0.8299058E-009  0.2719780E+03  0.7561462E-02  0.1012802E+00
         22   -1    0    0    0    0  0.00000000000E+00  0.00000000000E+00  0.50497254010E+03  0.50497254010E+03  0.00000000000E+00 0. -1.
         22   -1    0    0    0    0 -0.00000000000E+00 -0.00000000000E+00 -0.46544718301E+03  0.46544718301E+03  0.00000000000E+00 0.  1.
        -24    2    1    2    0    0 -0.16823881025E+03  0.41178256217E+02 -0.16076796787E+03  0.24925891050E+03  0.79269911763E+02 0.  0.
         25    2    1    2    0    0  0.19166034117E+03  0.20169250336E+03 -0.10470975364E+03  0.32252820566E+03  0.12508700432E+03 0.  0.
         24    2    1    2    0    0 -0.23421530914E+02 -0.24287075958E+03  0.30500307859E+03  0.39863260695E+03  0.79663689369E+02 0.  0.
        -13    1    5    5    0    0 -0.17651177140E+02 -0.47064811613E+01  0.18147026153E+02  0.25749360721E+02  0.00000000000E+00 0.  1.
         14    1    5    5    0    0 -0.57703537743E+01 -0.23816427842E+03  0.28685605244E+03  0.37288324623E+03  0.00000000000E+00 0. -1.
         11    1    3    3    0    0 -0.10581180069E+03  0.62487070936E+02 -0.88654403689E+02  0.15152681114E+03  0.00000000000E+00 0. -1.
        -12    1    3    3    0    0 -0.62427009564E+02 -0.21308814719E+02 -0.72113564176E+02  0.97732099364E+02  0.00000000000E+00 0.  1.
          5    1    4    4  501    0  0.14655632751E+03  0.69167000345E+02 -0.78202795289E+02  0.17998883482E+03  0.41800000000E+01 0. -1.
         -5    1    4    4    0  501  0.45104013660E+02  0.13252550302E+03 -0.26506958351E+02  0.14253937084E+03  0.41800000000E+01 0. -1.
</event>
<event>
11    1  0.8299058E-009  0.8922909E+03  0.7561462E-02  0.8788802E-01
         22   -1    0    0    0    0  0.00000000000E+00  0.00000000000E+00  0.14550029028E+04  0.14550029028E+04  0.00000000000E+00 0. -1.
         22   -1    0    0    0    0 -0.00000000000E+00 -0.00000000000E+00 -0.13333580970E+04  0.13333580970E+04  0.00000000000E+00 0. -1.
        -24    2    1    2    0    0  0.19307454169E+03  0.29940209297E+02 -0.48375622258E+03  0.52770435260E+03  0.79231345356E+02 0.  0.
         25    2    1    2    0    0 -0.10186968110E+04  0.14756897618E+03 -0.23867763406E+03  0.10640183606E+04  0.12509301896E+03 0.  0.
         24    2    1    2    0    0  0.82562226927E+03 -0.17750918548E+03  0.84407866236E+03  0.11966382865E+04  0.79452867331E+02 0.  0.
        -11    1    5    5    0    0  0.63219083069E+03 -0.16945792580E+03  0.65946671916E+03  0.92912732642E+03  0.00000000000E+00 0.  1.
         12    1    5    5    0    0  0.19343143858E+03 -0.80512596857E+01  0.18461194320E+03  0.26751096012E+03  0.00000000000E+00 0. -1.
         13    1    3    3    0    0  0.15465109896E+03  0.53475427409E+00 -0.42069233166E+03  0.44821790045E+03  0.00000000000E+00 0. -1.
        -14    1    3    3    0    0  0.38423442735E+02  0.29405455023E+02 -0.63063890916E+02  0.79486452142E+02  0.00000000000E+00 0.  1.
          5    1    4    4  501    0 -0.32842041187E+03 -0.10377838259E+02 -0.66873519066E+02  0.33534639765E+03  0.41800000000E+01 0. -1.
         -5    1    4    4    0  501 -0.69027639909E+03  0.15794681444E+03 -0.17180411499E+03  0.72867196300E+03  0.41800000000E+01 0. -1.
</event>
<event>
11    1  0.8299058E-009  0.3321697E+03  0.7561462E-02  0.9874263E-01
         22   -1    0    0    0    0  0.00000000000E+00  0.00000000000E+00  0.89812148151E+03  0.89812148151E+03  0.00000000000E+00 0.  1.
         22   -1    0    0    0    0 -0.00000000000E+00 -0.00000000000E+00 -0.10682133801E+04  0.10682133801E+04  0.00000000000E+00 0.  1.
         24    2    1    2    0    0 -0.70347634579E+02  0.10314222374E+02 -0.51701312199E+03  0.52755019072E+03  0.77145722811E+02 0.  0.
         25    2    1    2    0    0  0.16277908532E+03 -0.30199537885E+03 -0.45110904593E+03  0.58038406030E+03  0.12509215268E+03 0.  0.
        -24    2    1    2    0    0 -0.92431450737E+02  0.29168115647E+03  0.79803026930E+03  0.85840061061E+03  0.79861301351E+02 0.  0.
        -11    1    3    3    0    0  0.46631898127E+01  0.84648931753E+01 -0.25021877485E+03  0.25040534149E+03  0.00000000000E+00 0.  1.
         12    1    3    3    0    0 -0.75010824392E+02  0.18493291989E+01 -0.26679434713E+03  0.27714484923E+03  0.00000000000E+00 0. -1.
         13    1    5    5    0    0  0.12145467410E+02  0.58471392895E+02  0.12686437857E+03  0.14021764053E+03  0.00000000000E+00 0. -1.
        -14    1    5    5    0    0 -0.10457691815E+03  0.23320976358E+03  0.67116589073E+03  0.71818297009E+03  0.00000000000E+00 0.  1.
          5    1    4    4  501    0  0.13226322647E+03 -0.18848561352E+03 -0.20802811019E+03  0.31034425177E+03  0.41800000000E+01 0.  1.
         -5    1    4    4    0  501  0.30515858851E+02 -0.11350976533E+03 -0.24308093575E+03  0.27003980853E+03  0.41800000000E+01 0.  1.
</event>
<event>
11    1  0.8299058E-009  0.1351956E+03  0.7561462E-02  0.1113045E+00
         22   -1    0    0    0    0  0.00000000000E+00  0.00000000000E+00  0.13100342182E+04  0.13100342182E+04  0.00000000000E+00 0. -1.
         22   -1    0    0    0    0 -0.00000000000E+00 -0.00000000000E+00 -0.41497092973E+02  0.41497092973E+02  0.00000000000E+00 0. -1.
        -24    2    1    2    0    0 -0.44649128750E+02  0.35023958367E+02  0.71527220149E+02  0.12113664902E+03  0.79609811938E+02 0.  0.
         25    2    1    2    0    0  0.16130370256E+02 -0.34870595741E+02  0.27387204126E+03  0.30352693321E+03  0.12508619792E+03 0.  0.
         24    2    1    2    0    0  0.28518758494E+02 -0.15336262580E+00  0.92313786384E+03  0.92686772896E+03  0.78018768367E+02 0.  0.
        -13    1    5    5    0    0  0.30075140879E+02 -0.19300811036E+02  0.18168682981E+03  0.18516786852E+03  0.00000000000E+00 0.  1.
         14    1    5    5    0    0 -0.15563823846E+01  0.19147448410E+02  0.74145103403E+03  0.74169986044E+03  0.00000000000E+00 0. -1.
         13    1    3    3    0    0 -0.18148459821E+02 -0.23203840399E+00 -0.15307308519E+02  0.23743085936E+02  0.00000000000E+00 0. -1.
        -14    1    3    3    0    0 -0.26500668930E+02  0.35255996771E+02  0.86834528668E+02  0.97393563088E+02  0.00000000000E+00 0.  1.
          5    1    4    4  501    0  0.43598573230E+02  0.33663266972E+02  0.93744591974E+02  0.10880979761E+03  0.41800000000E+01 0. -1.
         -5    1    4    4    0  501 -0.27468202974E+02 -0.68533862714E+02  0.18012744928E+03  0.19471713560E+03  0.41800000000E+01 0. -1.
</event>
<event>
11    1  0.8299058E-009  0.1325690E+03  0.7561462E-02  0.1116152E+00
         22   -1    0    0    0    0  0.00000000000E+00  0.00000000000E+00  0.23713527937E+04  0.23713527937E+04  0.00000000000E+00 0. -1.
         22   -1    0    0    0    0 -0.00000000000E+00 -0.00000000000E+00 -0.84722021926E+02  0.84722021926E+02  0.00000000000E+00 0. -1.
         24    2    1    2    0    0  0.37444560386E+02  0.67950973029E+01 -0.51187263436E+02  0.10142849064E+03  0.78862756258E+02 0.  0.
         25    2    1    2    0    0  0.11585203444E+02 -0.85303282921E+01  0.54011327972E+03  0.55459645997E+03  0.12509154666E+03 0.  0.
        -24    2    1    2    0    0 -0.49029763830E+02  0.17352309892E+01  0.17977047555E+04  0.18000498650E+04  0.77654361532E+02 0.  0.
        -11    1    3    3    0    0 -0.13380474781E+02 -0.17530588278E+02  0.41639252673E+01  0.22443192829E+02  0.00000000000E+00 0.  1.
         12    1    3    3    0    0  0.50825035167E+02  0.24325685580E+02 -0.55351188703E+02  0.78985297807E+02  0.00000000000E+00 0. -1.
         11    1    5    5    0    0 -0.17403806353E+02  0.22754232038E+02  0.14490708799E+04  0.14493540156E+04  0.00000000000E+00 0. -1.
        -12    1    5    5    0    0 -0.31625957477E+02 -0.21019001049E+02  0.34863387565E+03  0.35069584947E+03  0.00000000000E+00 0.  1.
          5    1    4    4  501    0 -0.24630743481E+02 -0.58612731292E+02  0.25620147937E+03  0.26400529583E+03  0.41800000000E+01 0. -1.
         -5    1    4    4    0  501  0.36215946925E+02  0.50082403000E+02  0.28391180035E+03  0.29059116414E+03  0.41800000000E+01 0. -1.
</event>
<event>
11    1  0.8299058E-009  0.2008813E+03  0.7561462E-02  0.1053902E+00
         22   -1    0    0    0    0  0.00000000000E+00  0.00000000000E+00  0.72576742972E+03  0.72576742972E+03  0.00000000000E+00 0. -1.
         22   -1    0    0    0    0 -0.00000000000E+00 -0.00000000000E+00 -0.43415302496E+03  0.43415302496E+03  0.00000000000E+00 0. -1.
        -24    2    1    2    0    0  0.74886943834E+00  0.71281826532E+01 -0.35946879169E+03  0.36835342570E+03  0.80094083621E+02 0.  0.
         25    2    1    2    0    0 -0.12386360230E+03 -0.10319116403E+03  0.13085367336E+03  0.24240259076E+03  0.12508286800E+03 0.  0.
         24    2    1    2    0    0  0.12311473287E+03  0.96062981379E+02  0.52022952309E+03  0.54916443822E+03  0.80978328383E+02 0.  0.
        -13    1    5    5    0    0  0.56597487835E+02  0.52668653800E+01  0.11058530631E+03  0.12433875290E+03  0.00000000000E+00 0.  1.
         14    1    5    5    0    0  0.66517245031E+02  0.90796115999E+02  0.40964421678E+03  0.42482568532E+03  0.00000000000E+00 0. -1.
         13    1    3    3    0    0 -0.18053776941E+02  0.36841762204E+02 -0.25090143099E+03  0.25423371605E+03  0.00000000000E+00 0. -1.
        -14    1    3    3    0    0  0.18802646379E+02 -0.29713579551E+02 -0.10856736070E+03  0.11411970964E+03  0.00000000000E+00 0.  1.
          5    1    4    4  501    0 -0.34061809247E+02 -0.20879393152E+02 -0.22865972166E+02  0.46222083366E+02  0.41800000000E+01 0.  1.
         -5    1    4    4    0  501 -0.89801793057E+02 -0.82311770881E+02  0.15371964552E+03  0.19618050739E+03  0.41800000000E+01 0.  1.
</event>
<event>
11    1  0.8299058E-009  0.1458950E+03  0.7561462E-02  0.1101149E+00
         22   -1    0    0    0    0  0.00000000000E+00  0.00000000000E+00  0.15128885509E+03  0.15128885509E+03  0.00000000000E+00 0. -1.
         22   -1    0    0    0    0 -0.00000000000E+00 -0.00000000000E+00 -0.27625142788E+04  0.27625142788E+04  0.00000000000E+00 0.  1.
        -24    2    1    2    0    0 -0.92603576989E+02  0.54939380666E+02 -0.18100806947E+04  0.18149648821E+04  0.78177003017E+02 0.  0.
         25    2    1    2    0    0  0.54075512176E+01 -0.22349934318E+02 -0.91953180799E+03  0.92828541107E+03  0.12508516035E+03 0.  0.
         24    2    1    2    0    0  0.87196025771E+02 -0.32589446348E+02  0.11838707904E+03  0.17055284069E+03  0.80047186457E+02 0.  0.
        -11    1    5    5    0    0 -0.69244390928E+01  0.10782290388E+02 -0.51786565504E+00  0.12824734992E+02  0.00000000000E+00 0.  1.
         12    1    5    5    0    0  0.94120464864E+02 -0.43371736736E+02  0.11890494469E+03  0.15772810569E+03  0.00000000000E+00 0. -1.
         13    1    3    3    0    0 -0.52749604485E+02 -0.57507099303E+01 -0.48444400891E+03  0.48734134773E+03  0.00000000000E+00 0. -1.
        -14    1    3    3    0    0 -0.39853972504E+02  0.60690090596E+02 -0.13256366858E+04  0.13276235344E+04  0.00000000000E+00 0.  1.
          5    1    4    4  501    0 -0.51907648265E+02  0.19809793447E+02 -0.42885766983E+03  0.43246179627E+03  0.41800000000E+01 0. -1.
         -5    1    4    4    0  501  0.57315199483E+02 -0.42159727765E+02 -0.49067413816E+03  0.49582361480E+03  0.41800000000E+01 0. -1.
</event>
<event>
11    1  0.8299058E-009  0.1306436E+03  0.7561462E-02  0.1118481E+00
         22   -1    0    0    0    0  0.00000000000E+00  0.00000000000E+00  0.14279992808E+04  0.14279992808E+04  0.00000000000E+00 0. -1.
         22   -1    0    0    0    0 -0.00000000000E+00 -0.00000000000E+00 -0.46101904937E+03  0.46101904937E+03  0.00000000000E+00 0. -1.
         24    2    1    2    0    0 -0.28752502431E+02 -0.31345463262E+02 -0.30214407198E+03  0.31677171166E+03  0.85111882924E+02 0.  0.
         25    2    1    2    0    0  0.24146912001E+01  0.23926273162E+02 -0.12328207940E+03  0.17726618945E+03  0.12508610450E+03 0.  0.
        -24    2    1    2    0    0  0.26337811231E+02  0.74191901005E+01  0.13924063828E+04  0.13949804291E+04  0.80163195491E+02 0.  0.
        -13    1    3    3    0    0 -0.17587206696E+02 -0.58147116867E+02 -0.14914866549E+03  0.16104571232E+03  0.00000000000E+00 0.  1.
         14    1    3    3    0    0 -0.11165295735E+02  0.26801653604E+02 -0.15299540649E+03  0.15572599934E+03  0.00000000000E+00 0. -1.
         13    1    5    5    0    0  0.15568660594E+02 -0.13268752695E+02  0.12807887167E+04  0.12809520599E+04  0.00000000000E+00 0. -1.
        -14    1    5    5    0    0  0.10769150636E+02  0.20687942795E+02  0.11161766612E+03  0.11402836916E+03  0.00000000000E+00 0.  1.
          5    1    4    4  501    0  0.23494205271E+02 -0.34487191803E+02 -0.32591983670E+01  0.42064698427E+02  0.41800000000E+01 0. -1.
         -5    1    4    4    0  501 -0.21079514071E+02  0.58413464965E+02 -0.12002288103E+03  0.13520149102E+03  0.41800000000E+01 0. -1.
</event>
<event>
11    1  0.8299058E-009  0.1374241E+03  0.7561462E-02  0.1110469E+00
         22   -1    0    0    0    0  0.00000000000E+00  0.00000000000E+00  0.18598103874E+04  0.18598103874E+04  0.00000000000E+00 0.  1.
         22   -1    0    0    0    0 -0.00000000000E+00 -0.00000000000E+00 -0.92067670305E+02  0.92067670305E+02  0.00000000000E+00 0.  1.
        -24    2    1    2    0    0 -0.48878697044E+02 -0.28940448408E+02 -0.46057686804E+02  0.10908417341E+03  0.80940532461E+02 0.  0.
         25    2    1    2    0    0  0.28517503325E+02  0.64017584770E+02  0.37974319111E+03  0.40591016220E+03  0.12508664767E+03 0.  0.
         24    2    1    2    0    0  0.20361193719E+02 -0.35077136362E+02  0.14340572128E+04  0.14368837221E+04  0.80434803278E+02 0.  0.
        -11    1    5    5    0    0 -0.13643622923E+02 -0.28640154401E+02  0.11859619326E+04  0.11863861566E+04  0.00000000000E+00 0.  1.
         12    1    5    5    0    0  0.34004816642E+02 -0.64369819608E+01  0.24809528022E+03  0.25049756557E+03  0.00000000000E+00 0. -1.
         11    1    3    3    0    0 -0.66787870628E+02 -0.37234703168E+02 -0.25549186817E+02  0.80621360259E+02  0.00000000000E+00 0. -1.
        -12    1    3    3    0    0  0.17909173584E+02  0.82942547607E+01 -0.20508499987E+02  0.28462813147E+02  0.00000000000E+00 0.  1.
          5    1    4    4  501    0  0.23077602592E+02  0.75928722603E+02  0.38351073571E+03  0.39165763552E+03  0.41800000000E+01 0.  1.
         -5    1    4    4    0  501  0.54399007328E+01 -0.11911137834E+02 -0.37675445970E+01  0.14252526680E+02  0.41800000000E+01 0.  1.
</event>
<event>
11    1  0.8299058E-009  0.2056553E+03  0.7561462E-02  0.1050595E+00
         22   -1    0    0    0    0  0.00000000000E+00  0.00000000000E+00  0.42556512680E+03  0.42556512680E+03  0.00000000000E+00 0. -1.
         22   -1    0    0    0    0 -0.00000000000E+00 -0.00000000000E+00 -0.98703854159E+03  0.98703854159E+03  0.00000000000E+00 0.  1.
        -24    2    1    2    0    0  0.69371718752E+02  0.58106795975E+01 -0.77682857384E+03  0.78427707223E+03  0.82351038488E+02 0.  0.
         25    2    1    2    0    0  0.75306027145E+02 -0.94070717194E+02 -0.14220157244E+03  0.22447401780E+03  0.12508796866E+03 0.  0.
         24    2    1    2    0    0 -0.14467774590E+03  0.88260037597E+02  0.35755673150E+03  0.40385257836E+03  0.80799779776E+02 0.  0.
        -13    1    5    5    0    0 -0.94501501094E+02  0.63276926525E+02  0.14640950966E+03  0.18539214563E+03  0.00000000000E+00 0.  1.
         14    1    5    5    0    0 -0.50176244804E+02  0.24983111072E+02  0.21114722183E+03  0.21846043273E+03  0.00000000000E+00 0. -1.
         11    1    3    3    0    0  0.41411854037E+02  0.17938898693E+02 -0.14841701053E+03  0.15512689888E+03  0.00000000000E+00 0. -1.
        -12    1    3    3    0    0  0.27959864715E+02 -0.12128219095E+02 -0.62841156331E+03  0.62915017335E+03  0.00000000000E+00 0.  1.
          5    1    4    4  501    0  0.21031535252E+02  0.16424676040E+02 -0.84006898659E+02  0.88242432425E+02  0.41800000000E+01 0. -1.
         -5    1    4    4    0  501  0.54274491893E+02 -0.11049539323E+03 -0.58194673785E+02  0.13623158537E+03  0.41800000000E+01 0. -1.
</event>
<event>
11    1  0.8299058E-009  0.1340815E+03  0.7561462E-02  0.1114353E+00
         22   -1    0    0    0    0  0.00000000000E+00  0.00000000000E+00  0.26620205295E+04  0.26620205295E+04  0.00000000000E+00 0. -1.
         22   -1    0    0    0    0 -0.00000000000E+00 -0.00000000000E+00 -0.28415552931E+04  0.28415552931E+04  0.00000000000E+00 0. -1.
         24    2    1    2    0    0  0.20861252025E+02  0.43526688352E+02 -0.28356289550E+04  0.28372130845E+04  0.81588921555E+02 0.  0.
         25    2    1    2    0    0 -0.33698577565E+02 -0.41808318246E+02  0.11373937970E+04  0.11455112371E+04  0.12509122773E+03 0.  0.
        -24    2    1    2    0    0  0.12837325540E+02 -0.17183701069E+01  0.15187003944E+04  0.15208515010E+04  0.79816354271E+02 0.  0.
        -13    1    3    3    0    0 -0.27947326483E+02  0.16977018292E+02 -0.59712812451E+03  0.59802279997E+03  0.00000000000E+00 0.  1.
         14    1    3    3    0    0  0.48808578508E+02  0.26549670061E+02 -0.22385008304E+04  0.22391902845E+04  0.00000000000E+00 0. -1.
         11    1    5    5    0    0  0.26682127037E+02  0.33136670059E+02  0.91352442048E+03  0.91451453877E+03  0.00000000000E+00 0. -1.
        -12    1    5    5    0    0 -0.13844801497E+02 -0.34855040166E+02  0.60517597388E+03  0.60633696219E+03  0.00000000000E+00 0.  1.
          5    1    4    4  501    0  0.94701129692E+01 -0.64314261164E+02  0.93641067264E+03  0.93867375987E+03  0.41800000000E+01 0.  1.
         -5    1    4    4    0  501 -0.43168690534E+02  0.22505942919E+02  0.20098312437E+03  0.20683747724E+03  0.41800000000E+01 0.  1.
</event>
<event>
11    1  0.8299058E-009  0.1679529E+03  0.7561462E-02  0.1079827E+00
         22   -1    0    0    0    0  0.00000000000E+00  0.00000000000E+00  0.25348045574E+03  0.25348045574E+03  0.00000000000E+00 0. -1.
         22   -1    0    0    0    0 -0.00000000000E+00 -0.00000000000E+00 -0.12590632452E+04  0.12590632452E+04  0.00000000000E+00 0.  1.
        -24    2    1    2    0    0  0.68817422086E+01 -0.10783103103E+02 -0.84681502255E+03  0.85109419580E+03  0.84273447934E+02 0.  0.
         25    2    1    2    0    0  0.53400941991E+02  0.10494650087E+03 -0.37103394455E+03  0.40887606092E+03  0.12509203226E+03 0.  0.
         24    2    1    2    0    0 -0.60282684200E+02 -0.94163397771E+02  0.21226617761E+03  0.25257344425E+03  0.78966240205E+02 0.  0.
        -13    1    5    5    0    0 -0.17943651120E+02  0.12007597961E+01  0.23252894705E+01  0.18133488653E+02  0.00000000000E+00 0.  1.
         14    1    5    5    0    0 -0.42339033080E+02 -0.95364157567E+02  0.20994088814E+03  0.23443995560E+03  0.00000000000E+00 0. -1.
         13    1    3    3    0    0 -0.32939340497E+02  0.14556648604E+02 -0.27771480180E+03  0.28004001019E+03  0.00000000000E+00 0. -1.
        -14    1    3    3    0    0  0.39821082706E+02 -0.25339751707E+02 -0.56910022075E+03  0.57105418561E+03  0.00000000000E+00 0.  1.
          5    1    4    4  501    0  0.45678964513E+02 -0.11487007109E+02 -0.58366703082E+02  0.75117664766E+02  0.41800000000E+01 0.  1.
         -5    1    4    4    0  501  0.77219774789E+01  0.11643350798E+03 -0.31266724147E+03  0.33375839616E+03  0.41800000000E+01 0.  1.
</event>
<event>
11    1  0.8299058E-009  0.1519601E+03  0.7561462E-02  0.1094893E+00
         22   -1    0    0    0    0  0.00000000000E+00  0.00000000000E+00  0.12103513768E+04  0.12103513768E+04  0.00000000000E+00 0. -1.
         22   -1    0    0    0    0 -0.00000000000E+00 -0.00000000000E+00 -0.37401588834E+03  0.37401588834E+03  0.00000000000E+00 0.  1.
         24    2    1    2    0    0  0.58652713175E+02 -0.13733156272E+02 -0.18214525676E+03  0.20794352516E+03  0.80217671060E+02 0.  0.
         25    2    1    2    0    0 -0.10895645015E+03  0.82939140722E+02 -0.12732452039E+03  0.22496614590E+03  0.12509126355E+03 0.  0.
        -24    2    1    2    0    0  0.50303736978E+02 -0.69205984450E+02  0.11458052656E+04  0.11514575940E+04  0.75265862178E+02 0.  0.
        -11    1    3    3    0    0  0.68599888627E+02 -0.20371191016E+02 -0.89793603246E+02  0.11482082271E+03  0.00000000000E+00 0.  1.
         12    1    3    3    0    0 -0.99471754521E+01  0.66380347437E+01 -0.92351653518E+02  0.93122702453E+02  0.00000000000E+00 0. -1.
         11    1    5    5    0    0  0.33091629782E+02 -0.64282768776E+02  0.48026943340E+03  0.48568102596E+03  0.00000000000E+00 0. -1.
        -12    1    5    5    0    0  0.17212107197E+02 -0.49232156740E+01  0.66553583218E+03  0.66577656808E+03  0.00000000000E+00 0.  1.
          5    1    4    4  501    0 -0.87540961830E+02  0.10482091584E+03 -0.56798969662E+02  0.14796769833E+03  0.41800000000E+01 0.  1.
         -5    1    4    4    0  501 -0.21415488323E+02 -0.21881775117E+02 -0.70525550732E+02  0.76998447572E+02  0.41800000000E+01 0.  1.
</event>
<event>
11    1  0.8299058E-009  0.4238240E+03  0.7561462E-02  0.9581967E-01
         22   -1    0    0    0    0  0.00000000000E+00  0.00000000000E+00  0.10260319669E+03  0.10260319669E+03  0.00000000000E+00 0.  1.
         22   -1    0    0    0    0 -0.00000000000E+00 -0.00000000000E+00 -0.43767342341E+03  0.43767342341E+03  0.00000000000E+00 0.  1.
        -24    2    1    2    0    0  0.21979613836E+02  0.56775409204E+02 -0.74076208832E+02  0.12345501146E+03  0.77764417478E+02 0.  0.
         25    2    1    2    0    0 -0.35659423991E+02 -0.14829792361E+03 -0.12380477814E+03  0.23289420346E+03  0.12509283853E+03 0.  0.
         24    2    1    2    0    0  0.13679810155E+02  0.91522514404E+02 -0.13718923976E+03  0.18392740518E+03  0.80280103523E+02 0.  0.
        -13    1    5    5    0    0 -0.81183990753E+01  0.79957750619E+02 -0.13748200623E+03  0.15924965408E+03  0.00000000000E+00 0.  1.
         14    1    5    5    0    0  0.21798209230E+02  0.11564763786E+02  0.29276647306E+00  0.24677751098E+02  0.00000000000E+00 0. -1.
         13    1    3    3    0    0 -0.24675280508E+02  0.43904025662E+02 -0.37534869010E+02  0.62811617787E+02  0.00000000000E+00 0. -1.
        -14    1    3    3    0    0  0.46654894344E+02  0.12871383542E+02 -0.36541339822E+02  0.60643393676E+02  0.00000000000E+00 0.  1.
          5    1    4    4  501    0  0.38330494372E+01 -0.15657258634E+03 -0.99682986711E+02  0.18569824259E+03  0.41800000000E+01 0.  1.
         -5    1    4    4    0  501 -0.39492473428E+02  0.82746627368E+01 -0.24121791424E+02  0.47195960869E+02  0.41800000000E+01 0.  1.
</event>
<event>
11    1  0.8299058E-009  0.2536805E+03  0.7561462E-02  0.1021957E+00
         22   -1    0    0    0    0  0.00000000000E+00  0.00000000000E+00  0.35917143237E+03  0.35917143237E+03  0.00000000000E+00 0.  1.
         22   -1    0    0    0    0 -0.00000000000E+00 -0.00000000000E+00 -0.27464404621E+03  0.27464404621E+03  0.00000000000E+00 0. -1.
         24    2    1    2    0    0 -0.15226892710E+03  0.17505312437E+03 -0.75618458437E+02  0.25709220289E+03  0.80924823233E+02 0.  0.
         25    2    1    2    0    0  0.97624996970E+02 -0.17795299675E+03  0.82528081861E+02  0.25230045601E+03  0.12508687668E+03 0.  0.
        -24    2    1    2    0    0  0.54643930133E+02  0.28998723834E+01  0.77617762727E+02  0.12442281969E+03  0.80387515248E+02 0.  0.
        -11    1    3    3    0    0  0.27345060824E+01  0.12444795648E+01  0.88621031137E+01  0.93575170050E+01  0.00000000000E+00 0.  1.
         12    1    3    3    0    0 -0.15500343319E+03  0.17380864481E+03 -0.84480561551E+02  0.24773468588E+03  0.00000000000E+00 0. -1.
         11    1    5    5    0    0  0.33117384767E+02  0.36158198715E+02  0.67686209943E+02  0.83579899046E+02  0.00000000000E+00 0. -1.
        -12    1    5    5    0    0  0.21526545366E+02 -0.33258326331E+02  0.99315527849E+01  0.40842920641E+02  0.00000000000E+00 0.  1.
          5    1    4    4  501    0  0.10877149644E+03 -0.14515630457E+03  0.10611147587E+03  0.21018731861E+03  0.41800000000E+01 0.  1.
         -5    1    4    4    0  501 -0.11146499470E+02 -0.32796692183E+02 -0.23583394004E+02  0.42113137396E+02  0.41800000000E+01 0.  1.
</event>
<event>
11    1  0.8299058E-009  0.1897579E+03  0.7561462E-02  0.1062012E+00
         22   -1    0    0    0    0  0.00000000000E+00  0.00000000000E+00  0.32447885672E+03  0.32447885672E+03  0.00000000000E+00 0. -1.
         22   -1    0    0    0    0 -0.00000000000E+00 -0.00000000000E+00 -0.87835385951E+03  0.87835385951E+03  0.00000000000E+00 0. -1.
        -24    2    1    2    0    0  0.12167458092E+03 -0.67103306075E+02 -0.69739230110E+03  0.71582625195E+03  0.82119693305E+02 0.  0.
         25    2    1    2    0    0 -0.12151789585E+03  0.13667734444E+03 -0.83377700374E+02  0.23674058388E+03  0.12508783971E+03 0.  0.
         24    2    1    2    0    0 -0.15668506575E+00 -0.69574038363E+02  0.22689499868E+03  0.25026588040E+03  0.79442426333E+02 0.  0.
        -13    1    5    5    0    0 -0.14561452248E+02  0.52903701588E+01  0.10747263006E+03  0.10858356284E+03  0.00000000000E+00 0.  1.
         14    1    5    5    0    0  0.14404767182E+02 -0.74864408522E+02  0.11942236862E+03  0.14168231755E+03  0.00000000000E+00 0. -1.
         13    1    3    3    0    0  0.12077488877E+03 -0.36127565713E+02 -0.48183965421E+03  0.49805745364E+03  0.00000000000E+00 0. -1.
        -14    1    3    3    0    0  0.89969214961E+00 -0.30975740362E+02 -0.21555264689E+03  0.21776879831E+03  0.00000000000E+00 0.  1.
          5    1    4    4  501    0 -0.49877123106E+02  0.12690334945E+03 -0.15178141791E+02  0.13725901027E+03  0.41800000000E+01 0.  1.
         -5    1    4    4    0  501 -0.71640772748E+02  0.97739949847E+01 -0.68199558583E+02  0.99481573614E+02  0.41800000000E+01 0.  1.
</event>
<event>
11    1  0.8299058E-009  0.1428240E+03  0.7561462E-02  0.1104445E+00
         22   -1    0    0    0    0  0.00000000000E+00  0.00000000000E+00  0.76587251755E+03  0.76587251755E+03  0.00000000000E+00 0.  1.
         22   -1    0    0    0    0 -0.00000000000E+00 -0.00000000000E+00 -0.10713344158E+04  0.10713344158E+04  0.00000000000E+00 0. -1.
         24    2    1    2    0    0  0.53812147281E+02  0.42425087092E+02 -0.10043639886E+04  0.10093001637E+04  0.72416597858E+02 0.  0.
         25    2    1    2    0    0 -0.59457588872E+02 -0.60146295436E+02  0.30073476294E+02  0.15396384711E+03  0.12509064917E+03 0.  0.
        -24    2    1    2    0    0  0.56454415904E+01  0.17721208344E+02  0.66882861404E+03  0.67394292255E+03  0.80755406436E+02 0.  0.
        -11    1    3    3    0    0 -0.15837744052E+02  0.21422802799E+02 -0.23543820161E+03  0.23694074659E+03  0.00000000000E+00 0.  1.
         12    1    3    3    0    0  0.69649891333E+02  0.21002284294E+02 -0.76892578700E+03  0.77235941713E+03  0.00000000000E+00 0. -1.
         11    1    5    5    0    0  0.23933882508E+02  0.21253650631E+02  0.10416079302E+03  0.10896797327E+03  0.00000000000E+00 0. -1.
        -12    1    5    5    0    0 -0.18288440918E+02 -0.35324422872E+01  0.56466782102E+03  0.56497494928E+03  0.00000000000E+00 0.  1.
          5    1    4    4  501    0 -0.23773768630E+02  0.24114353613E+02 -0.29157656385E+02  0.44881348587E+02  0.41800000000E+01 0.  1.
         -5    1    4    4    0  501 -0.35683820241E+02 -0.84260649049E+02  0.59231132679E+02  0.10908249852E+03  0.41800000000E+01 0.  1.
</event>
<event>
11    1  0.8299058E-009  0.1398548E+03  0.7561462E-02  0.1107721E+00
         22   -1    0    0    0    0  0.00000000000E+00  0.00000000000E+00  0.42426756902E+03  0.42426756902E+03  0.00000000000E+00 0.  1.
         22   -1    0    0    0    0 -0.00000000000E+00 -0.00000000000E+00 -0.80684967784E+03  0.80684967784E+03  0.00000000000E+00 0.  1.
         24    2    1    2    0    0 -0.13413165764E+02  0.18834663149E+02 -0.73331229426E+03  0.73800846679E+03  0.79843087269E+02 0.  0.
         25    2    1    2    0    0  0.63380377529E+02  0.18869403893E+02  0.16578885418E+02  0.14244687698E+03  0.12507248562E+03 0.  0.
        -24    2    1    2    0    0 -0.49967211765E+02 -0.37704067042E+02  0.33415130002E+03  0.35066190310E+03  0.85955570243E+02 0.  0.
        -13    1    3    3    0    0 -0.59170478248E+01 -0.22174051322E+02 -0.52842087680E+03  0.52891901369E+03  0.00000000000E+00 0.  1.
         14    1    3    3    0    0 -0.74961179393E+01  0.41008714471E+02 -0.20489141746E+03  0.20908945309E+03  0.00000000000E+00 0. -1.
         11    1    5    5    0    0  0.19044675517E+02 -0.31793254029E+02  0.11450637383E+03  0.12035456084E+03  0.00000000000E+00 0. -1.
        -12    1    5    5    0    0 -0.69011887282E+02 -0.59108130128E+01  0.21964492619E+03  0.23030734226E+03  0.00000000000E+00 0.  1.
          5    1    4    4  501    0  0.38704920101E+02 -0.20836022336E+02 -0.46302121179E+02  0.63981008842E+02  0.41800000000E+01 0. -1.
         -5    1    4    4    0  501  0.24675457428E+02  0.39705426229E+02  0.62881006597E+02  0.78465868133E+02  0.41800000000E+01 0. -1.
</event>
<event>
11    1  0.8299058E-009  0.1362939E+03  0.7561462E-02  0.1111769E+00
         22   -1    0    0    0    0  0.00000000000E+00  0.00000000000E+00  0.21325029123E+04  0.21325029123E+04  0.00000000000E+00 0.  1.
         22   -1    0    0    0    0 -0.00000000000E+00 -0.00000000000E+00 -0.15628613542E+03  0.15628613542E+03  0.00000000000E+00 0.  1.
        -24    2    1    2    0    0  0.31746329537E+02 -0.28723362545E+02 -0.12866955071E+03  0.15709638299E+03  0.79313046049E+02 0.  0.
         25    2    1    2    0    0  0.23433720438E+02  0.10323694680E+02  0.32742450420E+03  0.35144003955E+03  0.12509027750E+03 0.  0.
         24    2    1    2    0    0 -0.55180049976E+02  0.18399667864E+02  0.17774618234E+04  0.17802526252E+04  0.80904203435E+02 0.  0.
        -13    1    5    5    0    0 -0.64454094130E+02 -0.22892630000E+01  0.16064864262E+04  0.16077805225E+04  0.00000000000E+00 0.  1.
         14    1    5    5    0    0  0.92740441544E+01  0.20688930864E+02  0.17097539726E+03  0.17247210274E+03  0.00000000000E+00 0. -1.
         13    1    3    3    0    0  0.43789933100E+02 -0.14615865470E+01 -0.27737850681E+02  0.51856367367E+02  0.00000000000E+00 0. -1.
        -14    1    3    3    0    0 -0.12043603563E+02 -0.27261775998E+02 -0.10093170003E+03  0.10524001563E+03  0.00000000000E+00 0.  1.
          5    1    4    4  501    0  0.59076916651E+01  0.26407715032E+02  0.32610423692E+03  0.32725175931E+03  0.41800000000E+01 0. -1.
         -5    1    4    4    0  501  0.17526028773E+02 -0.16084020351E+02  0.13202672761E+01  0.24188280239E+02  0.41800000000E+01 0. -1.
</event>
<event>
11    1  0.8299058E-009  0.1386469E+03  0.7561462E-02  0.1109079E+00
         22   -1    0    0    0    0  0.00000000000E+00  0.00000000000E+00  0.91853400803E+03  0.91853400803E+03  0.00000000000E+00 0. -1.
         22   -1    0    0    0    0 -0.00000000000E+00 -0.00000000000E+00 -0.41944582560E+03  0.41944582560E+03  0.00000000000E+00 0.  1.
        -24    2    1    2    0    0 -0.25934286790E+02 -0.45465927244E+02 -0.39271477916E+03  0.40433908371E+03  0.80780313626E+02 0.  0.
         25    2    1    2    0    0  0.76837075776E+02  0.53948162590E+02  0.36170070136E+03  0.39406718528E+03  0.12508880322E+03 0.  0.
         24    2    1    2    0    0 -0.50902788986E+02 -0.84822353461E+01  0.53010226024E+03  0.53957356464E+03  0.86418650192E+02 0.  0.
        -11    1    5    5    0    0  0.11468457270E+02 -0.27883997764E+02  0.97129942863E+02  0.10170186156E+03  0.00000000000E+00 0.  1.
         12    1    5    5    0    0 -0.62371246256E+02  0.19401762417E+02  0.43297231738E+03  0.43787170308E+03  0.00000000000E+00 0. -1.
         11    1    3    3    0    0  0.21576135622E+02  0.71971266241E+01 -0.60425732173E+02  0.64564675858E+02  0.00000000000E+00 0. -1.
        -12    1    3    3    0    0 -0.47510422411E+02 -0.52663053868E+02 -0.33228904699E+03  0.33977440785E+03  0.00000000000E+00 0.  1.
          5    1    4    4  501    0  0.27326342645E+02 -0.40023478010E+02  0.13977660171E+03  0.14799857628E+03  0.41800000000E+01 0.  1.
         -5    1    4    4    0  501  0.49510733131E+02  0.93971640600E+02  0.22192409965E+03  0.24606860900E+03  0.41800000000E+01 0.  1.
</event>
<event>
11    1  0.8299058E-009  0.1341715E+03  0.7561462E-02  0.1114247E+00
         22   -1    0    0    0    0  0.00000000000E+00  0.00000000000E+00  0.46741965570E+03  0.46741965570E+03  0.00000000000E+00 0.  1.
         22   -1    0    0    0    0 -0.00000000000E+00 -0.00000000000E+00 -0.35376048529E+03  0.35376048529E+03  0.00000000000E+00 0.  1.
         24    2    1    2    0    0  0.30833709837E+01 -0.23029138248E+02 -0.27460134980E+03  0.28749473355E+03  0.81899158233E+02 0.  0.
         25    2    1    2    0    0  0.44470674910E+02  0.10378681933E+02 -0.72775304447E+00  0.13316350939E+03  0.12508650064E+03 0.  0.
        -24    2    1    2    0    0 -0.47554045894E+02  0.12650456315E+02  0.38898827325E+03  0.40052189805E+03  0.81758747322E+02 0.  0.
        -13    1    3    3    0    0 -0.37024224228E+02 -0.18264448142E+02 -0.98137113897E+02  0.10646725492E+03  0.00000000000E+00 0.  1.
         14    1    3    3    0    0  0.40107595212E+02 -0.47646901056E+01 -0.17646423591E+03  0.18102747863E+03  0.00000000000E+00 0. -1.
         13    1    5    5    0    0 -0.22019107244E+02  0.23166106962E+02  0.43750032519E+02  0.54180946292E+02  0.00000000000E+00 0. -1.
        -14    1    5    5    0    0 -0.25534938650E+02 -0.10515650647E+02  0.34523824073E+03  0.34634095176E+03  0.00000000000E+00 0.  1.
          5    1    4    4  501    0  0.81763740776E+02  0.89906829186E+01 -0.27736103301E+02  0.86907453715E+02  0.41800000000E+01 0.  1.
         -5    1    4    4    0  501 -0.37293065865E+02  0.13879990144E+01  0.27008350256E+02  0.46256055673E+02  0.41800000000E+01 0.  1.
</event>
<event>
11    1  0.8299058E-009  0.1361595E+03  0.7561462E-02  0.1111924E+00
         22   -1    0    0    0    0  0.00000000000E+00  0.00000000000E+00  0.45894262182E+03  0.45894262182E+03  0.00000000000E+00 0. -1.
         22   -1    0    0    0    0 -0.00000000000E+00 -0.00000000000E+00 -0.67835962685E+03  0.67835962685E+03  0.00000000000E+00 0. -1.
        -24    2    1    2    0    0 -0.34513729308E+02  0.43044075836E+02 -0.54851218595E+03  0.55786120603E+03  0.85437211341E+02 0.  0.
         25    2    1    2    0    0 -0.72533356379E+01 -0.57639393891E+02 -0.80856943456E+02  0.15986983827E+03  0.12508240994E+03 0.  0.
         24    2    1    2    0    0  0.41767064946E+02  0.14595318055E+02  0.40995212437E+03  0.41957120438E+03  0.77599872711E+02 0.  0.
        -11    1    5    5    0    0  0.39871188126E+02  0.30024947868E+02  0.13100144074E+03  0.14018768353E+03  0.00000000000E+00 0.  1.
         12    1    5    5    0    0  0.18958768199E+01 -0.15429629813E+02  0.27895068363E+03  0.27938352085E+03  0.00000000000E+00 0. -1.
         11    1    3    3    0    0 -0.23766935414E+02  0.58165904806E+02 -0.52039899543E+03  0.52417864716E+03  0.00000000000E+00 0. -1.
        -12    1    3    3    0    0 -0.10746793894E+02 -0.15121828970E+02 -0.28113190524E+02  0.33682558867E+02  0.00000000000E+00 0.  1.
          5    1    4    4  501    0  0.15142824429E+02 -0.55173799887E+02  0.16627856417E+02  0.59727810396E+02  0.41800000000E+01 0. -1.
         -5    1    4    4    0  501 -0.22396160066E+02 -0.24655940036E+01 -0.97484799873E+02  0.10014202787E+03  0.41800000000E+01 0. -1.
</event>
<event>
11    1  0.8299058E-009  0.2671430E+03  0.7561462E-02  0.1015143E+00
         22   -1    0    0    0    0  0.00000000000E+00  0.00000000000E+00  0.17163550219E+04  0.17163550219E+04  0.00000000000E+00 0.  1.
         22   -1    0    0    0    0 -0.00000000000E+00 -0.00000000000E+00 -0.50271093769E+03  0.50271093769E+03  0.00000000000E+00 0. -1.
         24    2    1    2    0    0  0.12793985161E+02 -0.17679958210E+03 -0.17991126081E+03  0.26402594905E+03  0.76940637623E+02 0.  0.
         25    2    1    2    0    0  0.17057055347E+03  0.31980426824E+03 -0.13524665583E+03  0.40658180852E+03  0.12509206772E+03 0.  0.
        -24    2    1    2    0    0 -0.18336453864E+03 -0.14300468614E+03  0.15288020009E+04  0.15484582020E+04  0.80089645428E+02 0.  0.
        -13    1    3    3    0    0 -0.10433933665E+01 -0.30263740164E+02  0.16156133964E+01  0.30324789283E+02  0.00000000000E+00 0.  1.
         14    1    3    3    0    0  0.13837378528E+02 -0.14653584194E+03 -0.18152687421E+03  0.23370115977E+03  0.00000000000E+00 0. -1.
         13    1    5    5    0    0 -0.56576002597E+02 -0.73812948715E+02  0.80738554426E+03  0.81272419217E+03  0.00000000000E+00 0. -1.
        -14    1    5    5    0    0 -0.12678853604E+03 -0.69191737430E+02  0.72141645660E+03  0.73573400985E+03  0.00000000000E+00 0.  1.
          5    1    4    4  501    0  0.19065532593E+03  0.28223246898E+03 -0.12004998099E+03  0.36115660064E+03  0.41800000000E+01 0. -1.
         -5    1    4    4    0  501 -0.20084772455E+02  0.37571799268E+02 -0.15196674840E+02  0.45425207881E+02  0.41800000000E+01 0. -1.
</event>
<event>
11    1  0.8299058E-009  0.2315630E+03  0.7561462E-02  0.1034207E+00
         22   -1    0    0    0    0  0.00000000000E+00  0.00000000000E+00  0.75631446136E+03  0.75631446136E+03  0.00000000000E+00 0. -1.
         22   -1    0    0    0    0 -0.00000000000E+00 -0.00000000000E+00 -0.19809059931E+03  0.19809059931E+03  0.00000000000E+00 0.  1.
        -24    2    1    2    0    0 -0.17641059524E+03  0.62446678824E+02 -0.36026173320E+02  0.20741137997E+03  0.81861526802E+02 0.  0.
         25    2    1    2    0    0  0.18462155267E+03 -0.11777554017E+03  0.15284434704E+03  0.29489691335E+03  0.12508636819E+03 0.  0.
         24    2    1    2    0    0 -0.82109574366E+01  0.55328861347E+02  0.44140568834E+03  0.45209676735E+03  0.80148628369E+02 0.  0.
        -11    1    5    5    0    0  0.21396968775E+02 -0.10226326967E+02  0.73703380810E+02  0.77424778843E+02  0.00000000000E+00 0.  1.
         12    1    5    5    0    0 -0.29607926211E+02  0.65555188314E+02  0.36770230753E+03  0.37467198850E+03  0.00000000000E+00 0. -1.
         11    1    3    3    0    0  0.56967831636E+00 -0.12174088850E+02 -0.18917427146E+01  0.12333355716E+02  0.00000000000E+00 0. -1.
        -12    1    3    3    0    0 -0.17698027355E+03  0.74620767674E+02 -0.34134430606E+02  0.19507802426E+03  0.00000000000E+00 0.  1.
          5    1    4    4  501    0  0.25127730515E+02 -0.43832019426E+02 -0.13892464393E+02  0.52565404352E+02  0.41800000000E+01 0. -1.
         -5    1    4    4    0  501  0.15949382216E+03 -0.73943520745E+02  0.16673681143E+03  0.24233150900E+03  0.41800000000E+01 0. -1.
</event>
<event>
11    1  0.8299058E-009  0.1690256E+03  0.7561462E-02  0.1078883E+00
         22   -1    0    0    0    0  0.00000000000E+00  0.00000000000E+00  0.64339448144E+03  0.64339448144E+03  0.00000000000E+00 0. -1.
         22   -1    0    0    0    0 -0.00000000000E+00 -0.00000000000E+00 -0.10203356768E+04  0.10203356768E+04  0.00000000000E+00 0. -1.
         24    2    1    2    0    0  0.10033913389E+03 -0.37280210477E+02 -0.60738985784E+03  0.62185531631E+03  0.79522569979E+02 0.  0.
         25    2    1    2    0    0 -0.12967634275E+03  0.31162808042E+02 -0.38228446648E+03  0.42376409806E+03  0.12509005964E+03 0.  0.
        -24    2    1    2    0    0  0.29337208862E+02  0.61174024354E+01  0.61273312895E+03  0.61811074387E+03  0.75636697037E+02 0.  0.
        -13    1    3    3    0    0  0.21132834655E+02  0.18789730329E+02 -0.65484621665E+02  0.71329421287E+02  0.00000000000E+00 0.  1.
         14    1    3    3    0    0  0.79206299235E+02 -0.56069940807E+02 -0.54190523617E+03  0.55052589502E+03  0.00000000000E+00 0. -1.
         11    1    5    5    0    0 -0.52655229891E+01  0.47360792580E+01  0.50284872607E+03  0.50289859563E+03  0.00000000000E+00 0. -1.
        -12    1    5    5    0    0  0.34602731851E+02  0.13813231774E+01  0.10988440288E+03  0.11521214824E+03  0.00000000000E+00 0.  1.
          5    1    4    4  501    0 -0.10999392147E+03  0.68058258438E+02 -0.34151263497E+03  0.36521081795E+03  0.41800000000E+01 0. -1.
         -5    1    4    4    0  501 -0.19682421284E+02 -0.36895450395E+02 -0.40771831504E+02  0.58553280111E+02  0.41800000000E+01 0. -1.
</event>
<event>
11    1  0.8299058E-009  0.1283099E+03  0.7561462E-02  0.1121363E+00
         22   -1    0    0    0    0  0.00000000000E+00  0.00000000000E+00  0.39702114567E+03  0.39702114567E+03  0.00000000000E+00 0.  1.
         22   -1    0    0    0    0 -0.00000000000E+00 -0.00000000000E+00 -0.11535514685E+03  0.11535514685E+03  0.00000000000E+00 0. -1.
         24    2    1    2    0    0 -0.22492796181E+02 -0.11358508525E+02 -0.49050227610E+02  0.97519491884E+02  0.80431243139E+02 0.  0.
         25    2    1    2    0    0  0.23943070805E+02 -0.18723021525E+02  0.85906430244E+02  0.15476267320E+03  0.12509095925E+03 0.  0.
        -24    2    1    2    0    0 -0.14502746243E+01  0.30081530051E+02  0.24480979618E+03  0.26009412743E+03  0.82523433448E+02 0.  0.
        -11    1    3    3    0    0  0.22922368455E+02 -0.17099526092E+02  0.23452213996E+01  0.28693707177E+02  0.00000000000E+00 0.  1.
         12    1    3    3    0    0 -0.45415164636E+02  0.57410175667E+01 -0.51395449010E+02  0.68825784707E+02  0.00000000000E+00 0. -1.
         13    1    5    5    0    0 -0.15790299843E+02 -0.68565524569E+01  0.63248200482E+01  0.18339826318E+02  0.00000000000E+00 0. -1.
        -14    1    5    5    0    0  0.14340025219E+02  0.36938082507E+02  0.23848497614E+03  0.24175430111E+03  0.00000000000E+00 0.  1.
          5    1    4    4  501    0 -0.79873002292E+01 -0.37125531368E+02 -0.19591421631E+02  0.42934813914E+02  0.41800000000E+01 0.  1.
         -5    1    4    4    0  501  0.31930371034E+02  0.18402509843E+02  0.10549785187E+03  0.11182785929E+03  0.41800000000E+01 0.  1.
</event>
<event>
11    1  0.8299058E-009  0.1504159E+03  0.7561462E-02  0.1096455E+00
         22   -1    0    0    0    0  0.00000000000E+00  0.00000000000E+00  0.11637971531E+03  0.11637971531E+03  0.00000000000E+00 0.  1.
         22   -1    0    0    0    0 -0.00000000000E+00 -0.00000000000E+00 -0.14874409616E+04  0.14874409616E+04  0.00000000000E+00 0. -1.
        -24    2    1    2    0    0 -0.34349207677E+02 -0.69728489275E+02 -0.11415522403E+04  0.11474732446E+04  0.86668329710E+02 0.  0.
         25    2    1    2    0    0  0.52144706264E+02  0.12797337616E+03 -0.28568983431E+03  0.34111795083E+03  0.12508604858E+03 0.  0.
         24    2    1    2    0    0 -0.17795498587E+02 -0.58244886886E+02  0.56180828281E+02  0.11522948155E+03  0.80077470831E+02 0.  0.
        -13    1    5    5    0    0 -0.38455410590E+02 -0.54339768216E+02  0.64429730345E+02  0.92643505794E+02  0.00000000000E+00 0.  1.
         14    1    5    5    0    0  0.20659912003E+02 -0.39051186695E+01 -0.82489020644E+01  0.22585975761E+02  0.00000000000E+00 0. -1.
         13    1    3    3    0    0 -0.57262830691E+02 -0.71016287427E+02 -0.80831424175E+03  0.81344591601E+03  0.00000000000E+00 0. -1.
        -14    1    3    3    0    0  0.22913623014E+02  0.12877981520E+01 -0.33323799856E+03  0.33402732856E+03  0.00000000000E+00 0.  1.
          5    1    4    4  501    0 -0.44192400271E+01 -0.48346223581E+01 -0.12432990917E+03  0.12457247677E+03  0.41800000000E+01 0.  1.
         -5    1    4    4    0  501  0.56563946291E+02  0.13280799852E+03 -0.16135992514E+03  0.21654547405E+03  0.41800000000E+01 0.  1.
</event>
<event>
11    1  0.8299058E-009  0.1491137E+03  0.7561462E-02  0.1097788E+00
         22   -1    0    0    0    0  0.00000000000E+00  0.00000000000E+00  0.60032213543E+03  0.60032213543E+03  0.00000000000E+00 0. -1.
         22   -1    0    0    0    0 -0.00000000000E+00 -0.00000000000E+00 -0.34483937430E+03  0.34483937430E+03  0.00000000000E+00 0.  1.
         24    2    1    2    0    0 -0.41593320790E+02  0.41172680494E+02 -0.23561311080E+03  0.25566762126E+03  0.80169823673E+02 0.  0.
         25    2    1    2    0    0 -0.18255864581E+02  0.18996313121E+02 -0.48905408469E+02  0.13688010830E+03  0.12510111337E+03 0.  0.
        -24    2    1    2    0    0  0.59849185371E+02 -0.60168993615E+02  0.54000128039E+03  0.55261378017E+03  0.81107178607E+02 0.  0.
        -11    1    3    3    0    0  0.19678892409E+02  0.31537670369E+02 -0.92646262021E+02  0.99825915098E+02  0.00000000000E+00 0.  1.
         12    1    3    3    0    0 -0.61272213199E+02  0.96350101247E+01 -0.14296684878E+03  0.15584170617E+03  0.00000000000E+00 0. -1.
         13    1    5    5    0    0  0.61221945413E+02 -0.49146009454E+01  0.31415422849E+03  0.32010179503E+03  0.00000000000E+00 0. -1.
        -14    1    5    5    0    0 -0.13727600414E+01 -0.55254392669E+02  0.22584705191E+03  0.23251198514E+03  0.00000000000E+00 0.  1.
          5    1    4    4  501    0  0.33812974353E+01 -0.49533678534E+02  0.50265061749E-01  0.49824626522E+02  0.41800000000E+01 0. -1.
         -5    1    4    4    0  501 -0.21637162016E+02  0.68529991655E+02 -0.48955673531E+02  0.87055481776E+02  0.41800000000E+01 0. -1.
</event>
<event>
11    1  0.8299058E-009  0.1320816E+03  0.7561462E-02  0.1116738E+00
         22   -1    0    0    0    0  0.00000000000E+00  0.00000000000E+00  0.21441568281E+03  0.21441568281E+03  0.00000000000E+00 0.  1.
         22   -1    0    0    0    0 -0.00000000000E+00 -0.00000000000E+00 -0.56332821098E+03  0.56332821098E+03  0.00000000000E+00 0.  1.
        -24    2    1    2    0    0  0.38994956412E+02  0.11145007318E+02 -0.47409971660E+03  0.48417785533E+03  0.89514448545E+02 0.  0.
         25    2    1    2    0    0 -0.65791890093E+02 -0.19156594052E+02  0.18976633644E+00  0.14263024293E+03  0.12509117590E+03 0.  0.
         24    2    1    2    0    0  0.26796933681E+02  0.80115867342E+01  0.12499742209E+03  0.15093579553E+03  0.79843582506E+02 0.  0.
        -11    1    5    5    0    0  0.32085848082E+02 -0.21471204843E+02  0.11166221813E+03  0.11814806491E+03  0.00000000000E+00 0.  1.
         12    1    5    5    0    0 -0.52889144011E+01  0.29482791578E+02  0.13335203962E+02  0.32787730624E+02  0.00000000000E+00 0. -1.
         11    1    3    3    0    0 -0.52699499227E+01  0.14678798019E+02 -0.11316846619E+02  0.19269418800E+02  0.00000000000E+00 0. -1.
        -12    1    3    3    0    0  0.44264906335E+02 -0.35337907010E+01 -0.46278286998E+03  0.46490843653E+03  0.00000000000E+00 0.  1.
          5    1    4    4  501    0 -0.73859176031E+02  0.35928577307E+02  0.17691169469E+02  0.84121878417E+02  0.41800000000E+01 0.  1.
         -5    1    4    4    0  501  0.80672859380E+01 -0.55085171359E+02 -0.17501403133E+02  0.58508364511E+02  0.41800000000E+01 0.  1.
</event>
<event>
11    1  0.8299058E-009  0.1705442E+03  0.7561462E-02  0.1077559E+00
         22   -1    0    0    0    0  0.00000000000E+00  0.00000000000E+00  0.20666870244E+04  0.20666870244E+04  0.00000000000E+00 0.  1.
         22   -1    0    0    0    0 -0.00000000000E+00 -0.00000000000E+00 -0.23467349636E+03  0.23467349636E+03  0.00000000000E+00 0. -1.
         24    2    1    2    0    0 -0.28066732272E+02  0.30524637343E+02 -0.17087500865E+03  0.20588197556E+03  0.10709633202E+03 0.  0.
         25    2    1    2    0    0  0.89548952573E+02  0.68470204554E+02  0.11854593345E+03  0.20592717213E+03  0.12508268491E+03 0.  0.
        -24    2    1    2    0    0 -0.61482220301E+02 -0.98994841896E+02  0.18843426032E+04  0.18895513731E+04  0.77957058436E+02 0.  0.
        -13    1    3    3    0    0 -0.56431498605E+02  0.29444795030E+02 -0.47867260251E+02  0.79641600895E+02  0.00000000000E+00 0.  1.
         14    1    3    3    0    0  0.28364766334E+02  0.10798423127E+01 -0.12300774840E+03  0.12624037466E+03  0.00000000000E+00 0. -1.
         11    1    5    5    0    0 -0.24120423604E+02  0.66499119754E+01  0.52591029336E+03  0.52650513086E+03  0.00000000000E+00 0. -1.
        -12    1    5    5    0    0 -0.37361796697E+02 -0.10564475387E+03  0.13584323099E+04  0.13630462422E+04  0.00000000000E+00 0.  1.
          5    1    4    4  501    0  0.11789870721E+03  0.59023219648E+02  0.71523371855E+02  0.15005635855E+03  0.41800000000E+01 0.  1.
         -5    1    4    4    0  501 -0.28349754634E+02  0.94469849061E+01  0.47022561590E+02  0.55870813580E+02  0.41800000000E+01 0.  1.
</event>
<event>
11    1  0.8299058E-009  0.1487809E+03  0.7561462E-02  0.1098131E+00
         22   -1    0    0    0    0  0.00000000000E+00  0.00000000000E+00  0.51361681546E+03  0.51361681546E+03  0.00000000000E+00 0.  1.
         22   -1    0    0    0    0 -0.00000000000E+00 -0.00000000000E+00 -0.23563377747E+04  0.23563377747E+04  0.00000000000E+00 0.  1.
        -24    2    1    2    0    0  0.37096083579E+01 -0.21635306025E+02 -0.16829265296E+04  0.16850754231E+04  0.82192639634E+02 0.  0.
         25    2    1    2    0    0  0.52220450621E+01  0.10148971183E+03 -0.65617144665E+03  0.67567393531E+03  0.12508744181E+03 0.  0.
         24    2    1    2    0    0 -0.89316534199E+01 -0.79854405805E+02  0.49637701696E+03  0.50920523175E+03  0.80270321552E+02 0.  0.
        -13    1    5    5    0    0 -0.39559617474E+02 -0.70700005112E+02  0.37829065070E+03  0.38686854417E+03  0.00000000000E+00 0.  1.
         14    1    5    5    0    0  0.30627964054E+02 -0.91544006935E+01  0.11808636625E+03  0.12233668758E+03  0.00000000000E+00 0. -1.
         11    1    3    3    0    0 -0.35181473239E+02 -0.22847361103E+02 -0.60831357395E+03  0.60975826540E+03  0.00000000000E+00 0. -1.
        -12    1    3    3    0    0  0.38891081597E+02  0.12120550779E+01 -0.10746129556E+04  0.10753171577E+04  0.00000000000E+00 0.  1.
          5    1    4    4  501    0  0.49171520463E+01 -0.26210830056E+02 -0.20465822472E+03  0.20643073256E+03  0.41800000000E+01 0. -1.
         -5    1    4    4    0  501  0.30489301579E+00  0.12770054189E+03 -0.45151322193E+03  0.46924320276E+03  0.41800000000E+01 0. -1.
</event>
<event>
11    1  0.8299058E-009  0.1419987E+03  0.7561462E-02  0.1105347E+00
         22   -1    0    0    0    0  0.00000000000E+00  0.00000000000E+00  0.19073301477E+04  0.19073301477E+04  0.00000000000E+00 0. -1.
         22   -1    0    0    0    0 -0.00000000000E+00 -0.00000000000E+00 -0.45120995215E+02  0.45120995215E+02  0.00000000000E+00 0.  1.
        -24    2    1    2    0    0  0.28228063723E+02  0.56642548634E+02  0.62531633411E+02  0.11987979610E+03  0.80347734498E+02 0.  0.
         25    2    1    2    0    0 -0.69679157018E+02 -0.57357711598E+02  0.38353132248E+03  0.41338746839E+03  0.12509129343E+03 0.  0.
         24    2    1    2    0    0  0.41451093295E+02  0.71516296404E+00  0.14161461966E+04  0.14191838785E+04  0.83030874221E+02 0.  0.
        -13    1    5    5    0    0  0.34830542789E+02  0.19161074335E+02  0.27392293894E+03  0.27679250344E+03  0.00000000000E+00 0.  1.
         14    1    5    5    0    0  0.66205505066E+01 -0.18445911371E+02  0.11422232577E+04  0.11423913750E+04  0.00000000000E+00 0. -1.
         13    1    3    3    0    0  0.15334948085E+02 -0.19356699739E+02  0.10251163068E+02  0.26738152550E+02  0.00000000000E+00 0. -1.
        -14    1    3    3    0    0  0.12893115638E+02  0.75999248373E+02  0.52280470344E+02  0.93141643552E+02  0.00000000000E+00 0.  1.
          5    1    4    4  501    0  0.36579566462E+01 -0.33459103328E+02  0.15418446641E+02  0.37257121993E+02  0.41800000000E+01 0.  1.
         -5    1    4    4    0  501 -0.73337113664E+02 -0.23898608270E+02  0.36811287584E+03  0.37613034640E+03  0.41800000000E+01 0.  1.
</event>
<event>
11    1  0.8299058E-009  0.1522787E+03  0.7561462E-02  0.1094573E+00
         22   -1    0    0    0    0  0.00000000000E+00  0.00000000000E+00  0.30648853234E+03  0.30648853234E+03  0.00000000000E+00 0. -1.
         22   -1    0    0    0    0 -0.00000000000E+00 -0.00000000000E+00 -0.26781925004E+04  0.26781925004E+04  0.00000000000E+00 0.  1.
        -24    2    1    2    0    0  0.13922181255E+02 -0.40651447701E+01 -0.22430551851E+04  0.22446318746E+04  0.82857325998E+02 0.  0.
         25    2    1    2    0    0 -0.98484550461E+02 -0.14048134743E+02 -0.40695447414E+03  0.43721380324E+03  0.12508960371E+03 0.  0.
         24    2    1    2    0    0  0.84562369206E+02  0.18113279513E+02  0.27830569121E+03  0.30283535488E+03  0.82318340781E+02 0.  0.
        -13    1    5    5    0    0  0.75356707886E+02  0.16294133837E+02  0.11033587159E+03  0.13460362841E+03  0.00000000000E+00 0.  1.
         14    1    5    5    0    0  0.92056613200E+01  0.18191456756E+01  0.16796981961E+03  0.16823172647E+03  0.00000000000E+00 0. -1.
         11    1    3    3    0    0  0.35140703016E+01 -0.32763239125E+02 -0.40983015353E+03  0.41115268851E+03  0.00000000000E+00 0. -1.
        -12    1    3    3    0    0  0.10408110953E+02  0.28698094355E+02 -0.18332250316E+04  0.18334791861E+04  0.00000000000E+00 0.  1.
          5    1    4    4  501    0 -0.10133123507E+03 -0.52420581793E+02 -0.23912997437E+03  0.26498406299E+03  0.41800000000E+01 0.  1.
         -5    1    4    4    0  501  0.28466846060E+01  0.38372447050E+02 -0.16782449976E+03  0.17222974025E+03  0.41800000000E+01 0.  1.
</event>
<event>
11    1  0.8299058E-009  0.1431639E+03  0.7561462E-02  0.1104076E+00
         22   -1    0    0    0    0  0.00000000000E+00  0.00000000000E+00  0.18461601118E+04  0.18461601118E+04  0.00000000000E+00 0.  1.
         22   -1    0    0    0    0 -0.00000000000E+00 -0.00000000000E+00 -0.17805827285E+03  0.17805827285E+03  0.00000000000E+00 0. -1.
         24    2    1    2    0    0 -0.50223633395E+02 -0.48313190546E+02 -0.14675796008E+03  0.18026594073E+03  0.78111028726E+02 0.  0.
         25    2    1    2    0    0  0.43485609943E+02  0.53223654637E+02  0.36731010106E+03  0.39406621661E+03  0.12509083518E+03 0.  0.
        -24    2    1    2    0    0  0.67380234516E+01 -0.49104640913E+01  0.14475496979E+04  0.14498862273E+04  0.81856157180E+02 0.  0.
        -13    1    3    3    0    0  0.20236205362E+02 -0.56934000172E+01 -0.19404455884E+02  0.28608595201E+02  0.00000000000E+00 0.  1.
         14    1    3    3    0    0 -0.70459838757E+02 -0.42619790529E+02 -0.12735350419E+03  0.15165734553E+03  0.00000000000E+00 0. -1.
         11    1    5    5    0    0  0.46453445883E+01  0.20090311581E+02  0.10004211028E+03  0.10214511088E+03  0.00000000000E+00 0. -1.
        -12    1    5    5    0    0  0.20926788632E+01 -0.25000775673E+02  0.13475075877E+04  0.13477411164E+04  0.00000000000E+00 0.  1.
          5    1    4    4  501    0 -0.96941954055E+01  0.70532513156E+02  0.11283108865E+03  0.13348085931E+03  0.41800000000E+01 0. -1.
         -5    1    4    4    0  501  0.53179805349E+02 -0.17308858519E+02  0.25447901241E+03  0.26058535730E+03  0.41800000000E+01 0. -1.
</event>
<event>
11    1  0.8299058E-009  0.1344586E+03  0.7561462E-02  0.1113909E+00
         22   -1    0    0    0    0  0.00000000000E+00  0.00000000000E+00  0.16047205500E+04  0.16047205500E+04  0.00000000000E+00 0. -1.
         22   -1    0    0    0    0 -0.00000000000E+00 -0.00000000000E+00 -0.14084917878E+03  0.14084917878E+03  0.00000000000E+00 0.  1.
         24    2    1    2    0    0 -0.52423080939E+02 -0.85916986634E+00 -0.11102735083E+03  0.14651033499E+03  0.79933022198E+02 0.  0.
         25    2    1    2    0    0  0.30327769152E+02 -0.46789921701E+02  0.45720097796E+03  0.47727292808E+03  0.12509054031E+03 0.  0.
        -24    2    1    2    0    0  0.22095311787E+02  0.47649091567E+02  0.11176977441E+04  0.11217864657E+04  0.79987428737E+02 0.  0.
        -11    1    3    3    0    0 -0.56572803700E+02  0.15933081353E+02 -0.34711109454E+02  0.68258379115E+02  0.00000000000E+00 0.  1.
         12    1    3    3    0    0  0.41497227605E+01 -0.16792251219E+02 -0.76316241379E+02  0.78251955875E+02  0.00000000000E+00 0. -1.
         13    1    5    5    0    0  0.32214532039E+02  0.35203588367E+02  0.10767832328E+04  0.10778400619E+04  0.00000000000E+00 0. -1.
        -14    1    5    5    0    0 -0.10119220252E+02  0.12445503200E+02  0.40914511287E+02  0.43946403747E+02  0.00000000000E+00 0.  1.
          5    1    4    4  501    0 -0.38529087572E+02 -0.18033816979E+01  0.58781407064E+02  0.70430596981E+02  0.41800000000E+01 0.  1.
         -5    1    4    4    0  501  0.68856856724E+02 -0.44986540003E+02  0.39841957090E+03  0.40684233110E+03  0.41800000000E+01 0.  1.
</event>
<event>
11    1  0.8299058E-009  0.1395818E+03  0.7561462E-02  0.1108026E+00
         22   -1    0    0    0    0  0.00000000000E+00  0.00000000000E+00  0.11438324521E+04  0.11438324521E+04  0.00000000000E+00 0. -1.
         22   -1    0    0    0    0 -0.00000000000E+00 -0.00000000000E+00 -0.76731394062E+03  0.76731394062E+03  0.00000000000E+00 0.  1.
        -24    2    1    2    0    0  0.16680864859E+02  0.59267753457E+02 -0.74096987346E+03  0.74864123058E+03  0.87386617414E+02 0.  0.
         25    2    1    2    0    0 -0.77696973365E+02 -0.80541179788E+02  0.35350681457E+03  0.39132601340E+03  0.12508109169E+03 0.  0.
         24    2    1    2    0    0  0.61016108506E+02  0.21273426330E+02  0.76398157040E+03  0.77117914877E+03  0.82909079272E+02 0.  0.
        -11    1    5    5    0    0 -0.19547707087E+02 -0.42649100754E+00  0.93228706554E+02  0.95256949734E+02  0.00000000000E+00 0.  1.
         12    1    5    5    0    0  0.80563815592E+02  0.21699917338E+02  0.67075286384E+03  0.67592219904E+03  0.00000000000E+00 0. -1.
         11    1    3    3    0    0  0.31170132805E+02  0.23972143379E+02 -0.11552856026E+03  0.12203724462E+03  0.00000000000E+00 0. -1.
        -12    1    3    3    0    0 -0.14489267946E+02  0.35295610078E+02 -0.62544131320E+03  0.62660398597E+03  0.00000000000E+00 0.  1.
          5    1    4    4  501    0  0.31329799672E+02 -0.40991487110E+02  0.10625660157E+03  0.11819389214E+03  0.41800000000E+01 0. -1.
         -5    1    4    4    0  501 -0.10902677304E+03 -0.39549692678E+02  0.24725021301E+03  0.27313212125E+03  0.41800000000E+01 0. -1.
</event>
<event>
11    1  0.8299058E-009  0.1348430E+03  0.7561462E-02  0.1113458E+00
         22   -1    0    0    0    0  0.00000000000E+00  0.00000000000E+00  0.42401794289E+03  0.42401794289E+03  0.00000000000E+00 0.  1.
         22   -1    0    0    0    0 -0.00000000000E+00 -0.00000000000E+00 -0.82390699390E+03  0.82390699390E+03  0.00000000000E+00 0. -1.
        -24    2    1    2    0    0  0.15387067673E+02  0.16183924851E+02 -0.78232152361E+03  0.78684045889E+03  0.81192734729E+02 0.  0.
         25    2    1    2    0    0  0.38345022429E+02 -0.14042100407E+02  0.10983292289E+03  0.17138469418E+03  0.12506766617E+03 0.  0.
         24    2    1    2    0    0 -0.53732090103E+02 -0.21418244439E+01  0.27259954970E+03  0.28969978372E+03  0.81998324817E+02 0.  0.
        -13    1    5    5    0    0 -0.34035648067E+02  0.33719002748E+02  0.20631694541E+03  0.21180670067E+03  0.00000000000E+00 0.  1.
         14    1    5    5    0    0 -0.19696442036E+02 -0.35860827192E+02  0.66282604294E+02  0.77893083055E+02  0.00000000000E+00 0. -1.
         13    1    3    3    0    0  0.31114639894E+02  0.21863955963E+02 -0.74469729094E+03  0.74566762603E+03  0.00000000000E+00 0. -1.
        -14    1    3    3    0    0 -0.15727572221E+02 -0.56800311120E+01 -0.37624232669E+02  0.41172832855E+02  0.00000000000E+00 0.  1.
          5    1    4    4  501    0 -0.33259723630E+02  0.31950488951E+02  0.40957673801E+02  0.61822701359E+02  0.41800000000E+01 0. -1.
         -5    1    4    4    0  501  0.71604746060E+02 -0.45992589358E+02  0.68875249091E+02  0.10956199282E+03  0.41800000000E+01 0. -1.
</event>
<event>
11    1  0.8299058E-009  0.1587431E+03  0.7561462E-02  0.1088265E+00
         22   -1    0    0    0    0  0.00000000000E+00  0.00000000000E+00  0.68546578704E+02  0.68546578704E+02  0.00000000000E+00 0. -1.
         22   -1    0    0    0    0 -0.00000000000E+00 -0.00000000000E+00 -0.24019825790E+04  0.24019825790E+04  0.00000000000E+00 0.  1.
         24    2    1    2    0    0  0.15487579324E+02 -0.81688070184E+02 -0.13542204481E+04  0.13593190202E+04  0.83200786687E+02 0.  0.
         25    2    1    2    0    0 -0.20417877656E+02  0.17388073100E+03 -0.96479539146E+03  0.98849850617E+03  0.12509097083E+03 0.  0.
        -24    2    1    2    0    0  0.49302983319E+01 -0.92192660814E+02 -0.14420160751E+02  0.12271163127E+03  0.79538725559E+02 0.  0.
        -13    1    3    3    0    0 -0.31530326794E+02 -0.34304538311E+02 -0.74420960802E+03  0.74566675099E+03  0.00000000000E+00 0.  1.
         14    1    3    3    0    0  0.47017906118E+02 -0.47383531873E+02 -0.61001084004E+03  0.61365226925E+03  0.00000000000E+00 0. -1.
         11    1    5    5    0    0 -0.98901058532E+01 -0.10092598843E+03 -0.22233578756E+02  0.10381811671E+03  0.00000000000E+00 0. -1.
        -12    1    5    5    0    0  0.14820404185E+02  0.87333276129E+01  0.78134180051E+01  0.18893514557E+02  0.00000000000E+00 0.  1.
          5    1    4    4  501    0 -0.14245633533E+02  0.16462766644E+03 -0.96225334539E+03  0.97634736633E+03  0.41800000000E+01 0.  1.
         -5    1    4    4    0  501 -0.61722441229E+01  0.92530645564E+01 -0.25420460718E+01  0.12151139841E+02  0.41800000000E+01 0.  1.
</event>
<event>
11    1  0.8299058E-009  0.1406242E+03  0.7561462E-02  0.1106863E+00
         22   -1    0    0    0    0  0.00000000000E+00  0.00000000000E+00  0.43703399746E+03  0.43703399746E+03  0.00000000000E+00 0.  1.
         22   -1    0    0    0    0 -0.00000000000E+00 -0.00000000000E+00 -0.51819255823E+03  0.51819255823E+03  0.00000000000E+00 0. -1.
        -24    2    1    2    0    0 -0.64745288173E+01  0.30802920439E+02 -0.44630051225E+03  0.45485216090E+03  0.81948774302E+02 0.  0.
         25    2    1    2    0    0  0.42208571571E+02 -0.79848032130E+02  0.41003131498E+02  0.15965341384E+03  0.12510269386E+03 0.  0.
         24    2    1    2    0    0 -0.35734042754E+02  0.49045111691E+02  0.32413881999E+03  0.34072098094E+03  0.85688198943E+02 0.  0.
        -13    1    5    5    0    0 -0.88616673756E+01  0.57277299378E+02  0.29340235930E+03  0.29907216957E+03  0.00000000000E+00 0.  1.
         14    1    5    5    0    0 -0.26872375378E+02 -0.82321876864E+01  0.30736460694E+02  0.41648811370E+02  0.00000000000E+00 0. -1.
         11    1    3    3    0    0  0.19736051686E+02  0.50756507440E+02 -0.25695894770E+03  0.26266639600E+03  0.00000000000E+00 0. -1.
        -12    1    3    3    0    0 -0.26210580503E+02 -0.19953587001E+02 -0.18934156455E+03  0.19218576490E+03  0.00000000000E+00 0.  1.
          5    1    4    4  501    0 -0.12543209290E+02 -0.84019811172E+02  0.56904748079E+02  0.10233417573E+03  0.41800000000E+01 0.  1.
         -5    1    4    4    0  501  0.54751780861E+02  0.41717790419E+01 -0.15901616580E+02  0.57319238112E+02  0.41800000000E+01 0.  1.
</event>
<event>
11    1  0.8299058E-009  0.1367094E+03  0.7561462E-02  0.1111290E+00
         22   -1    0    0    0    0  0.00000000000E+00  0.00000000000E+00  0.26286843793E+03  0.26286843793E+03  0.00000000000E+00 0.  1.
         22   -1    0    0    0    0 -0.00000000000E+00 -0.00000000000E+00 -0.12044407871E+04  0.12044407871E+04  0.00000000000E+00 0. -1.
        -24    2    1    2    0    0 -0.16549794995E+02  0.73324731269E+01 -0.11388089800E+04  0.11421054406E+04  0.84801437100E+02 0.  0.
         25    2    1    2    0    0  0.67430748087E+02 -0.13520351268E+02  0.53017382896E+02  0.15227665897E+03  0.12509049640E+03 0.  0.
         24    2    1    2    0    0 -0.50880953093E+02  0.61878781409E+01  0.14421924794E+03  0.17292712543E+03  0.80482532326E+02 0.  0.
        -11    1    5    5    0    0 -0.29623988489E+02 -0.35612764656E+02  0.53229731683E+02  0.70563829513E+02  0.00000000000E+00 0.  1.
         12    1    5    5    0    0 -0.21256964604E+02  0.41800642797E+02  0.90989516252E+02  0.10236329591E+03  0.00000000000E+00 0. -1.
         13    1    3    3    0    0 -0.22828137984E+02 -0.88442522152E+01 -0.10904960720E+04  0.10907708411E+04  0.00000000000E+00 0. -1.
        -14    1    3    3    0    0  0.62783429895E+01  0.16176725342E+02 -0.48312907982E+02  0.51334599552E+02  0.00000000000E+00 0.  1.
          5    1    4    4  501    0 -0.30386431921E+02 -0.10958469632E+02 -0.12009674979E+02  0.34714953474E+02  0.41800000000E+01 0.  1.
         -5    1    4    4    0  501  0.97817180009E+02 -0.25618816359E+01  0.65027057876E+02  0.11756170549E+03  0.41800000000E+01 0.  1.
</event>
<event>
11    1  0.8299058E-009  0.1322959E+03  0.7561462E-02  0.1116480E+00
         22   -1    0    0    0    0  0.00000000000E+00  0.00000000000E+00  0.30067062006E+03  0.30067062006E+03  0.00000000000E+00 0.  1.
         22   -1    0    0    0    0 -0.00000000000E+00 -0.00000000000E+00 -0.30157784727E+03  0.30157784727E+03  0.00000000000E+00 0. -1.
         24    2    1    2    0    0  0.37916034511E+02  0.19533870608E+02 -0.22273769966E+03  0.24076712403E+03  0.80854977519E+02 0.  0.
         25    2    1    2    0    0 -0.47481807774E+02 -0.84751287358E+01  0.90412570739E+01  0.13437140015E+03  0.12509028328E+03 0.  0.
        -24    2    1    2    0    0  0.95657732627E+01 -0.11058741872E+02  0.21278921537E+03  0.22710994315E+03  0.78012026695E+02 0.  0.
        -11    1    3    3    0    0  0.45101046609E+01 -0.19791061450E+02 -0.11522891261E+02  0.23341040688E+02  0.00000000000E+00 0.  1.
         12    1    3    3    0    0  0.33405929850E+02  0.39324932057E+02 -0.21121480839E+03  0.21742608334E+03  0.00000000000E+00 0. -1.
         11    1    5    5    0    0 -0.31985941246E+02 -0.14482364704E+02  0.69315662198E+02  0.77701353596E+02  0.00000000000E+00 0. -1.
        -12    1    5    5    0    0  0.41551714509E+02  0.34236228322E+01  0.14347355317E+03  0.14940858955E+03  0.00000000000E+00 0.  1.
          5    1    4    4  501    0 -0.56271515184E+01  0.46994493716E+02 -0.28371617651E+02  0.55340476705E+02  0.41800000000E+01 0. -1.
         -5    1    4    4    0  501 -0.41854656255E+02 -0.55469622452E+02  0.37412874724E+02  0.79030923443E+02  0.41800000000E+01 0. -1.
</event>
<event>
11    1  0.8299058E-009  0.2561372E+03  0.7561462E-02  0.1020680E+00
         22   -1    0    0    0    0  0.00000000000E+00  0.00000000000E+00  0.49000855218E+03  0.49000855218E+03  0.00000000000E+00 0.  1.
         22   -1    0    0    0    0 -0.00000000000E+00 -0.00000000000E+00 -0.50884871522E+03  0.50884871522E+03  0.00000000000E+00 0. -1.
        -24    2    1    2    0    0 -0.38571997951E+02 -0.10676803190E+03 -0.25783932200E+03  0.29320613941E+03  0.81249692630E+02 0.  0.
         25    2    1    2    0    0  0.21125772240E+03  0.22394656260E+03 -0.55686441022E+02  0.33694455034E+03  0.12509501236E+03 0.  0.
         24    2    1    2    0    0 -0.17268572445E+03 -0.11717853070E+03  0.29468559998E+03  0.36870657765E+03  0.74523620924E+02 0.  0.
        -13    1    5    5    0    0 -0.17869628498E+03 -0.10889871425E+03  0.28956236181E+03  0.35726412303E+03  0.00000000000E+00 0.  1.
         14    1    5    5    0    0  0.60105605217E+01 -0.82798164487E+01  0.51232381726E+01  0.11442454614E+02  0.00000000000E+00 0. -1.
         13    1    3    3    0    0 -0.43009628495E+02 -0.11181741893E+03 -0.25989305176E+03  0.28617715085E+03  0.00000000000E+00 0. -1.
        -14    1    3    3    0    0  0.44376305436E+01  0.50493870287E+01  0.20537297513E+01  0.70289885545E+01  0.00000000000E+00 0.  1.
          5    1    4    4  501    0  0.43343799011E+02  0.90343313841E+02  0.31750046885E+02  0.10519570878E+03  0.41800000000E+01 0. -1.
         -5    1    4    4    0  501  0.16791392339E+03  0.13360324876E+03 -0.87436487907E+02  0.23174884156E+03  0.41800000000E+01 0. -1.
</event>
<event>
11    1  0.8299058E-009  0.2426357E+03  0.7561462E-02  0.1027897E+00
         22   -1    0    0    0    0  0.00000000000E+00  0.00000000000E+00  0.77248377137E+03  0.77248377137E+03  0.00000000000E+00 0. -1.
         22   -1    0    0    0    0 -0.00000000000E+00 -0.00000000000E+00 -0.56281407210E+03  0.56281407210E+03  0.00000000000E+00 0.  1.
        -24    2    1    2    0    0 -0.18607906242E+03  0.11096180247E+03 -0.44355859278E+03  0.50044815226E+03  0.82256846472E+02 0.  0.
         25    2    1    2    0    0  0.12485483359E+03 -0.11741969121E+03  0.43281744804E+02  0.21655585982E+03  0.12508803953E+03 0.  0.
         24    2    1    2    0    0  0.61224228835E+02  0.64578887461E+01  0.60994654724E+03  0.61829383139E+03  0.80388810953E+02 0.  0.
        -13    1    5    5    0    0  0.66278614920E+01 -0.96154279705E+01  0.92252832949E+01  0.14882568827E+02  0.00000000000E+00 0.  1.
         14    1    5    5    0    0  0.54596367343E+02  0.16073316717E+02  0.60072126394E+03  0.60341126257E+03  0.00000000000E+00 0. -1.
         11    1    3    3    0    0 -0.53545257622E+02 -0.44382092985E+01 -0.13592815831E+03  0.14616174786E+03  0.00000000000E+00 0. -1.
        -12    1    3    3    0    0 -0.13253380480E+03  0.11540001176E+03 -0.30763043447E+03  0.35428640440E+03  0.00000000000E+00 0.  1.
          5    1    4    4  501    0 -0.23539624917E+02 -0.68993193990E+01 -0.47861729356E+01  0.25339581701E+02  0.41800000000E+01 0. -1.
         -5    1    4    4    0  501  0.14839445850E+03 -0.11052037181E+03  0.48067917739E+02  0.19121627812E+03  0.41800000000E+01 0. -1.
</event>
<event>
11    1  0.8299058E-009  0.2009006E+03  0.7561462E-02  0.1053889E+00
         22   -1    0    0    0    0  0.00000000000E+00  0.00000000000E+00  0.38561927564E+03  0.38561927564E+03  0.00000000000E+00 0. -1.
         22   -1    0    0    0    0 -0.00000000000E+00 -0.00000000000E+00 -0.70587117175E+03  0.70587117175E+03  0.00000000000E+00 0. -1.
         24    2    1    2    0    0 -0.14036741177E+03 -0.66662742892E+02 -0.60257473028E+03  0.62713239852E+03  0.77793368142E+02 0.  0.
         25    2    1    2    0    0  0.15589739635E+03  0.87615006041E+02  0.59724497527E+02  0.22625553686E+03  0.12507663604E+03 0.  0.
        -24    2    1    2    0    0 -0.15529984580E+02 -0.20952263149E+02  0.22259833665E+03  0.23810251200E+03  0.80390353844E+02 0.  0.
        -11    1    3    3    0    0 -0.52795167173E+02 -0.67613768113E+02 -0.27650071302E+03  0.28950232402E+03  0.00000000000E+00 0.  1.
         12    1    3    3    0    0 -0.87572244597E+02  0.95102522076E+00 -0.32607401726E+03  0.33763007450E+03  0.00000000000E+00 0. -1.
         13    1    5    5    0    0  0.23867453213E+02  0.14524523690E+02  0.11230954792E+03  0.11573267328E+03  0.00000000000E+00 0. -1.
        -14    1    5    5    0    0 -0.39397437793E+02 -0.35476786839E+02  0.11028878873E+03  0.12236983872E+03  0.00000000000E+00 0.  1.
          5    1    4    4  501    0  0.12917926111E+03  0.39344529495E+02  0.90815524497E+02  0.16278883682E+03  0.41800000000E+01 0.  1.
         -5    1    4    4    0  501  0.26718135237E+02  0.48270476546E+02 -0.31091026970E+02  0.63466700045E+02  0.41800000000E+01 0.  1.
</event>
<event>
11    1  0.8299058E-009  0.1667000E+03  0.7561462E-02  0.1080940E+00
         22   -1    0    0    0    0  0.00000000000E+00  0.00000000000E+00  0.50250512572E+03  0.50250512572E+03  0.00000000000E+00 0. -1.
         22   -1    0    0    0    0 -0.00000000000E+00 -0.00000000000E+00 -0.25760449023E+04  0.25760449023E+04  0.00000000000E+00 0. -1.
        -24    2    1    2    0    0 -0.40950661834E+02  0.10271365327E+03 -0.24469641592E+04  0.24507435872E+04  0.79268421270E+02 0.  0.
         25    2    1    2    0    0  0.29816932568E+02 -0.95120481676E+02 -0.71975493534E+02  0.17540285797E+03  0.12509490562E+03 0.  0.
         24    2    1    2    0    0  0.11133729266E+02 -0.75931715989E+01  0.44539987612E+03  0.45240358288E+03  0.78143048154E+02 0.  0.
        -13    1    5    5    0    0  0.17623621006E+01 -0.22797544624E+02  0.36217168986E+02  0.42831265338E+02  0.00000000000E+00 0.  1.
         14    1    5    5    0    0  0.93713671656E+01  0.15204373025E+02  0.40918270713E+03  0.40957231754E+03  0.00000000000E+00 0. -1.
         11    1    3    3    0    0 -0.47214065546E+02  0.10117805067E+03 -0.16589321233E+04  0.16626851643E+04  0.00000000000E+00 0. -1.
        -12    1    3    3    0    0  0.62634037114E+01  0.15356026001E+01 -0.78803203590E+03  0.78805842290E+03  0.00000000000E+00 0.  1.
          5    1    4    4  501    0 -0.78133765896E+01 -0.11384225257E+03 -0.68185227447E+02  0.13299550731E+03  0.41800000000E+01 0.  1.
         -5    1    4    4    0  501  0.37630309158E+02  0.18721770890E+02 -0.37902660874E+01  0.42407350655E+02  0.41800000000E+01 0.  1.
</event>
<event>
11    1  0.8299058E-009  0.1318609E+03  0.7561462E-02  0.1117003E+00
         22   -1    0    0    0    0  0.00000000000E+00  0.00000000000E+00  0.13897290784E+04  0.13897290784E+04  0.00000000000E+00 0.  1.
         22   -1    0    0    0    0 -0.00000000000E+00 -0.00000000000E+00 -0.22767343220E+03  0.22767343220E+03  0.00000000000E+00 0. -1.
         24    2    1    2    0    0 -0.72138326357E+00 -0.42356378550E+02 -0.20205372342E+03  0.22172591716E+03  0.80883199707E+02 0.  0.
         25    2    1    2    0    0 -0.20028578768E+02  0.17124075438E+02  0.27664319017E+03  0.30477587583E+03  0.12514991767E+03 0.  0.
        -24    2    1    2    0    0  0.20749962032E+02  0.25232303112E+02  0.10874661794E+04  0.10909007176E+04  0.80090287941E+02 0.  0.
        -11    1    3    3    0    0 -0.10455789841E+02  0.90937160661E+01 -0.91968566609E+00  0.13887585636E+02  0.00000000000E+00 0.  1.
         12    1    3    3    0    0  0.97344065771E+01 -0.51450094616E+02 -0.20113403775E+03  0.20783833152E+03  0.00000000000E+00 0. -1.
         13    1    5    5    0    0  0.29762567302E+02 -0.12211224073E+02  0.19760748130E+03  0.20020899349E+03  0.00000000000E+00 0. -1.
        -14    1    5    5    0    0 -0.90126052709E+01  0.37443527184E+02  0.88985869812E+03  0.89069172411E+03  0.00000000000E+00 0.  1.
          5    1    4    4  501    0  0.18170983605E+02  0.86386712959E+01 -0.43795733330E+01  0.21011053032E+02  0.41800000000E+01 0.  1.
         -5    1    4    4    0  501 -0.38199562373E+02  0.84854041421E+01  0.28102276351E+03  0.28376482280E+03  0.41800000000E+01 0.  1.
</event>
<event>
11    1  0.8299058E-009  0.1481942E+03  0.7561462E-02  0.1098738E+00
         22   -1    0    0    0    0  0.00000000000E+00  0.00000000000E+00  0.71528544103E+02  0.71528544103E+02  0.00000000000E+00 0.  1.
         22   -1    0    0    0    0 -0.00000000000E+00 -0.00000000000E+00 -0.33034655619E+04  0.33034655619E+04  0.00000000000E+00 0. -1.
        -24    2    1    2    0    0  0.35501574074E+02 -0.50719365393E+02 -0.28641220113E+04  0.28659391919E+04  0.81115599948E+02 0.  0.
         25    2    1    2    0    0 -0.91266850341E+02 -0.75741215044E+01 -0.36305613948E+03  0.39477208042E+03  0.12509288459E+03 0.  0.
         24    2    1    2    0    0  0.55765276266E+02  0.58293486898E+02 -0.47588670313E+01  0.11428283365E+03  0.80808555240E+02 0.  0.
        -13    1    5    5    0    0  0.64057741083E+02  0.70467710049E+02  0.69225285514E+01  0.95483054799E+02  0.00000000000E+00 0.  1.
         14    1    5    5    0    0 -0.82924648166E+01 -0.12174223152E+02 -0.11681395583E+02  0.18799778851E+02  0.00000000000E+00 0. -1.
         11    1    3    3    0    0  0.17502694942E+02 -0.52826889466E+02 -0.27334643248E+04  0.27340307678E+04  0.00000000000E+00 0. -1.
        -12    1    3    3    0    0  0.17998879132E+02  0.21075240727E+01 -0.13065768648E+03  0.13190842408E+03  0.00000000000E+00 0.  1.
          5    1    4    4  501    0 -0.10672607197E+02  0.13341809644E+01  0.85739385822E+01  0.14376001045E+02  0.41800000000E+01 0. -1.
         -5    1    4    4    0  501 -0.80594243143E+02 -0.89083024688E+01 -0.37163007806E+03  0.38039607937E+03  0.41800000000E+01 0. -1.
</event>
<event>
11    1  0.8299058E-009  0.1462429E+03  0.7561462E-02  0.1100781E+00
         22   -1    0    0    0    0  0.00000000000E+00  0.00000000000E+00  0.86981149491E+03  0.86981149491E+03  0.00000000000E+00 0. -1.
         22   -1    0    0    0    0 -0.00000000000E+00 -0.00000000000E+00 -0.23951267805E+03  0.23951267805E+03  0.00000000000E+00 0.  1.
         24    2    1    2    0    0 -0.73335770745E+02 -0.11746151684E+02 -0.19810746473E+03  0.22632731895E+03  0.80382711900E+02 0.  0.
         25    2    1    2    0    0  0.11660339221E+03 -0.38969000054E+02  0.29803702974E+03  0.34581438801E+03  0.12508631349E+03 0.  0.
        -24    2    1    2    0    0 -0.43267621463E+02  0.50715151738E+02  0.53036925185E+03  0.53718246600E+03  0.53191585684E+02 0.  0.
        -13    1    3    3    0    0 -0.78103885505E+02 -0.17091577807E+02 -0.20264569701E+03  0.21784769331E+03  0.00000000000E+00 0.  1.
         14    1    3    3    0    0  0.47681147601E+01  0.53454261233E+01  0.45382322817E+01  0.84796256432E+01  0.00000000000E+00 0. -1.
         11    1    5    5    0    0 -0.39342714222E+02  0.61564270547E+02  0.47848957216E+03  0.48403541114E+03  0.00000000000E+00 0. -1.
        -12    1    5    5    0    0 -0.39249072411E+01 -0.10849118808E+02  0.51879679696E+02  0.53147054867E+02  0.00000000000E+00 0.  1.
          5    1    4    4  501    0  0.49941374983E+02 -0.80369991829E+02  0.13605308058E+03  0.16577511772E+03  0.41800000000E+01 0. -1.
         -5    1    4    4    0  501  0.66662017225E+02  0.41400991774E+02  0.16198394916E+03  0.18003927029E+03  0.41800000000E+01 0. -1.
</event>
<event>
11    1  0.8299058E-009  0.1593612E+03  0.7561462E-02  0.1087680E+00
         22   -1    0    0    0    0  0.00000000000E+00  0.00000000000E+00  0.19807419601E+04  0.19807419601E+04  0.00000000000E+00 0. -1.
         22   -1    0    0    0    0 -0.00000000000E+00 -0.00000000000E+00 -0.45538841229E+03  0.45538841229E+03  0.00000000000E+00 0.  1.
         24    2    1    2    0    0  0.56576478868E+02 -0.78922260039E+02 -0.40581921550E+03  0.42501624696E+03  0.80746228541E+02 0.  0.
         25    2    1    2    0    0 -0.10941517493E+03  0.91588454341E+02  0.19573384743E+03  0.27261609679E+03  0.12509065404E+03 0.  0.
        -24    2    1    2    0    0  0.52838696061E+02 -0.12666194302E+02  0.17354389158E+04  0.17384980286E+04  0.87605961742E+02 0.  0.
        -13    1    3    3    0    0  0.28096607870E+02 -0.55496949843E+02 -0.36393121079E+03  0.36920896117E+03  0.00000000000E+00 0.  1.
         14    1    3    3    0    0  0.28479870998E+02 -0.23425310196E+02 -0.41888004706E+02  0.55807285797E+02  0.00000000000E+00 0. -1.
         11    1    5    5    0    0  0.70690344261E+02 -0.29786091817E+02  0.14317873319E+04  0.14338407512E+04  0.00000000000E+00 0. -1.
        -12    1    5    5    0    0 -0.17851648200E+02  0.17119897515E+02  0.30365158396E+03  0.30465727740E+03  0.00000000000E+00 0.  1.
          5    1    4    4  501    0 -0.90082200814E+02  0.99148403852E+02  0.20852181093E+03  0.24787905705E+03  0.41800000000E+01 0. -1.
         -5    1    4    4    0  501 -0.19332974115E+02 -0.75599495111E+01 -0.12787963503E+02  0.24737039744E+02  0.41800000000E+01 0. -1.
</event>
<event>
11    1  0.8299058E-009  0.2550875E+03  0.7561462E-02  0.1021223E+00
         22   -1    0    0    0    0  0.00000000000E+00  0.00000000000E+00  0.49984849713E+03  0.49984849713E+03  0.00000000000E+00 0.  1.
         22   -1    0    0    0    0 -0.00000000000E+00 -0.00000000000E+00 -0.58976262218E+03  0.58976262218E+03  0.00000000000E+00 0. -1.
         24    2    1    2    0    0  0.69703225305E+02 -0.83455893962E+02 -0.41397848283E+03  0.43568447160E+03  0.81359379880E+02 0.  0.
         25    2    1    2    0    0  0.13007150797E+03  0.18971918594E+03  0.14174414244E+02  0.26222445319E+03  0.12509509635E+03 0.  0.
        -24    2    1    2    0    0 -0.19977473328E+03 -0.10626329198E+03  0.30988994354E+03  0.39170219451E+03  0.78721031520E+02 0.  0.
        -13    1    3    3    0    0  0.22374582470E+02 -0.12975159354E+02 -0.24712060223E+03  0.24847045850E+03  0.00000000000E+00 0.  1.
         14    1    3    3    0    0  0.47328642835E+02 -0.70480734608E+02 -0.16685788060E+03  0.18721401310E+03  0.00000000000E+00 0. -1.
         11    1    5    5    0    0 -0.13244929734E+03 -0.67615790090E+02  0.13705777037E+03  0.20223635641E+03  0.00000000000E+00 0. -1.
        -12    1    5    5    0    0 -0.67325435937E+02 -0.38647501886E+02  0.17283217317E+03  0.18946583810E+03  0.00000000000E+00 0.  1.
          5    1    4    4  501    0  0.60737702006E+02  0.14407772896E+03  0.59748882860E+02  0.16743614255E+03  0.41800000000E+01 0.  1.
         -5    1    4    4    0  501  0.69333805965E+02  0.45641456974E+02 -0.45574468616E+02  0.94788310639E+02  0.41800000000E+01 0.  1.
</event>
<event>
11    1  0.8299058E-009  0.1401010E+03  0.7561462E-02  0.1107446E+00
         22   -1    0    0    0    0  0.00000000000E+00  0.00000000000E+00  0.16572503922E+04  0.16572503922E+04  0.00000000000E+00 0. -1.
         22   -1    0    0    0    0 -0.00000000000E+00 -0.00000000000E+00 -0.10054678317E+03  0.10054678317E+03  0.00000000000E+00 0. -1.
        -24    2    1    2    0    0  0.45139420847E+02 -0.32071228658E+02 -0.63230545192E+02  0.11620206255E+03  0.80241426164E+02 0.  0.
         25    2    1    2    0    0  0.20214157659E+02 -0.99028489521E+01  0.49846638753E+03  0.51441553362E+03  0.12509165897E+03 0.  0.
         24    2    1    2    0    0 -0.65353578506E+02  0.41974077610E+02  0.11214677667E+04  0.11271795792E+04  0.82528410903E+02 0.  0.
        -13    1    5    5    0    0 -0.49921376262E+02  0.67213245913E+02  0.81855217658E+03  0.82282284243E+03  0.00000000000E+00 0.  1.
         14    1    5    5    0    0 -0.15432202245E+02 -0.25239168303E+02  0.30291559011E+03  0.30435673676E+03  0.00000000000E+00 0. -1.
         13    1    3    3    0    0  0.52748401027E+02 -0.31408990602E+02 -0.78186650145E+02  0.99408605072E+02  0.00000000000E+00 0. -1.
        -14    1    3    3    0    0 -0.76089801798E+01 -0.66223805613E+00  0.14956104952E+02  0.16793457475E+02  0.00000000000E+00 0.  1.
          5    1    4    4  501    0  0.62340467602E+02 -0.39224068855E+02  0.24943840047E+03  0.26011891417E+03  0.41800000000E+01 0.  1.
         -5    1    4    4    0  501 -0.42126309942E+02  0.29321219903E+02  0.24902798706E+03  0.25429661945E+03  0.41800000000E+01 0.  1.
</event>
<event>
11    1  0.8299058E-009  0.1412303E+03  0.7561462E-02  0.1106192E+00
         22   -1    0    0    0    0  0.00000000000E+00  0.00000000000E+00  0.17251174006E+03  0.17251174006E+03  0.00000000000E+00 0.  1.
         22   -1    0    0    0    0 -0.00000000000E+00 -0.00000000000E+00 -0.12678374432E+04  0.12678374432E+04  0.00000000000E+00 0. -1.
         24    2    1    2    0    0  0.18913549640E+02  0.14904337296E+02 -0.11359864615E+04  0.11389753415E+04  0.78865239498E+02 0.  0.
         25    2    1    2    0    0 -0.43055381293E+02  0.47203710325E+02 -0.62990040231E+02  0.15393721168E+03  0.12508782452E+03 0.  0.
        -24    2    1    2    0    0  0.24141831652E+02 -0.62108047622E+02  0.10365079859E+03  0.14743663016E+03  0.80955754883E+02 0.  0.
        -11    1    3    3    0    0 -0.25960884512E+01 -0.13652739807E+02 -0.38925088923E+02  0.41331580264E+02  0.00000000000E+00 0.  1.
         12    1    3    3    0    0  0.21509638091E+02  0.28557077104E+02 -0.10970613726E+04  0.10976437612E+04  0.00000000000E+00 0. -1.
         13    1    5    5    0    0  0.23533385348E+02 -0.45653542553E+00 -0.35170741392E+01  0.23799127317E+02  0.00000000000E+00 0. -1.
        -14    1    5    5    0    0  0.60844630413E+00 -0.61651512196E+02  0.10716787273E+03  0.12363750284E+03  0.00000000000E+00 0.  1.
          5    1    4    4  501    0  0.12050190545E+02 -0.35378813489E+02 -0.33291704269E+02  0.50226263142E+02  0.41800000000E+01 0.  1.
         -5    1    4    4    0  501 -0.55105571838E+02  0.82582523815E+02 -0.29698335962E+02  0.10371094854E+03  0.41800000000E+01 0.  1.
</event>
<event>
11    1  0.8299058E-009  0.1879664E+03  0.7561462E-02  0.1063375E+00
         22   -1    0    0    0    0  0.00000000000E+00  0.00000000000E+00  0.24287129737E+04  0.24287129737E+04  0.00000000000E+00 0.  1.
         22   -1    0    0    0    0 -0.00000000000E+00 -0.00000000000E+00 -0.66465062498E+03  0.66465062498E+03  0.00000000000E+00 0. -1.
        -24    2    1    2    0    0  0.43485414794E+02  0.14692021666E+03 -0.51635977231E+03  0.54376026155E+03  0.74640982146E+02 0.  0.
         25    2    1    2    0    0  0.79951324734E+02 -0.10197891719E+03 -0.70663166662E+02  0.19347596874E+03  0.12509098080E+03 0.  0.
         24    2    1    2    0    0 -0.12343673953E+03 -0.44941299470E+02  0.23510852877E+04  0.23561273684E+04  0.80484762629E+02 0.  0.
        -11    1    5    5    0    0 -0.79349563750E+02 -0.85355583974E+01  0.18623215140E+04  0.18640307483E+04  0.00000000000E+00 0.  1.
         12    1    5    5    0    0 -0.44087175778E+02 -0.36405741073E+02  0.48876377366E+03  0.49209662007E+03  0.00000000000E+00 0. -1.
         13    1    3    3    0    0  0.23790336502E+02  0.59710657804E+02 -0.34011649728E+03  0.34613664136E+03  0.00000000000E+00 0. -1.
        -14    1    3    3    0    0  0.19695078293E+02  0.87209558858E+02 -0.17624327502E+03  0.19762362019E+03  0.00000000000E+00 0.  1.
          5    1    4    4  501    0 -0.26158975980E+02 -0.60602638953E+02 -0.25524095611E+02  0.70893749578E+02  0.41800000000E+01 0. -1.
         -5    1    4    4    0  501  0.10611030071E+03 -0.41376278238E+02 -0.45139071051E+02  0.12258221916E+03  0.41800000000E+01 0. -1.
</event>
<event>
11    1  0.8299058E-009  0.1383202E+03  0.7561462E-02  0.1109449E+00
         22   -1    0    0    0    0  0.00000000000E+00  0.00000000000E+00  0.12256297796E+03  0.12256297796E+03  0.00000000000E+00 0. -1.
         22   -1    0    0    0    0 -0.00000000000E+00 -0.00000000000E+00 -0.14326689061E+04  0.14326689061E+04  0.00000000000E+00 0. -1.
        -24    2    1    2    0    0  0.41834955214E+02 -0.44194130943E+02 -0.10696950432E+04  0.10748209664E+04  0.85377630003E+02 0.  0.
         25    2    1    2    0    0 -0.60200201280E+02  0.77116519887E+01 -0.32562976380E+03  0.35407109478E+03  0.12509221908E+03 0.  0.
         24    2    1    2    0    0  0.18365246066E+02  0.36482478955E+02  0.85218878865E+02  0.12633982287E+03  0.83852489497E+02 0.  0.
        -13    1    5    5    0    0  0.46487172447E+02  0.30899914468E+02  0.79443210559E+02  0.97093180091E+02  0.00000000000E+00 0.  1.
         14    1    5    5    0    0 -0.28121926381E+02  0.55825644865E+01  0.57756683059E+01  0.29246642782E+02  0.00000000000E+00 0. -1.
         13    1    3    3    0    0  0.56006923637E+02 -0.61032239468E+02 -0.84780716957E+03  0.85184429711E+03  0.00000000000E+00 0. -1.
        -14    1    3    3    0    0 -0.14171968422E+02  0.16838108525E+02 -0.22188787361E+03  0.22297666928E+03  0.00000000000E+00 0.  1.
          5    1    4    4  501    0 -0.82998712635E+02  0.29461735272E+02 -0.13796313753E+03  0.16373173138E+03  0.41800000000E+01 0.  1.
         -5    1    4    4    0  501  0.22798511356E+02 -0.21750083283E+02 -0.18766662627E+03  0.19033936340E+03  0.41800000000E+01 0.  1.
</event>
<event>
11    1  0.8299058E-009  0.1669021E+03  0.7561462E-02  0.1080759E+00
         22   -1    0    0    0    0  0.00000000000E+00  0.00000000000E+00  0.10482732756E+04  0.10482732756E+04  0.00000000000E+00 0. -1.
         22   -1    0    0    0    0 -0.00000000000E+00 -0.00000000000E+00 -0.13405766124E+04  0.13405766124E+04  0.00000000000E+00 0. -1.
        -24    2    1    2    0    0 -0.35786847042E+02 -0.17585999769E+02 -0.12827465530E+04  0.12858700066E+04  0.80205916705E+02 0.  0.
         25    2    1    2    0    0  0.68293248536E+02 -0.88530730523E+02  0.85299997854E+02  0.18821583058E+03  0.12508977258E+03 0.  0.
         24    2    1    2    0    0 -0.32506401494E+02  0.10611673029E+03  0.90514321833E+03  0.91476405072E+03  0.72052732100E+02 0.  0.
        -13    1    5    5    0    0 -0.75480848621E+01 -0.78392956442E+00  0.27677676643E+03  0.27688078042E+03  0.00000000000E+00 0.  1.
         14    1    5    5    0    0 -0.24958316632E+02  0.10690065986E+03  0.62836645191E+03  0.63788327030E+03  0.00000000000E+00 0. -1.
         13    1    3    3    0    0 -0.47394309974E+02  0.62185936761E+01 -0.11168810571E+04  0.11179034785E+04  0.00000000000E+00 0. -1.
        -14    1    3    3    0    0  0.11607462932E+02 -0.23804593445E+02 -0.16586549587E+03  0.16796652817E+03  0.00000000000E+00 0.  1.
          5    1    4    4  501    0  0.50545329364E+02 -0.71006782136E+02  0.11807427317E+03  0.14681893547E+03  0.41800000000E+01 0.  1.
         -5    1    4    4    0  501  0.17747919172E+02 -0.17523948387E+02 -0.32774275313E+02  0.41396895104E+02  0.41800000000E+01 0.  1.
</event>
<event>
11    1  0.8299058E-009  0.1367461E+03  0.7561462E-02  0.1111247E+00
         22   -1    0    0    0    0  0.00000000000E+00  0.00000000000E+00  0.15149292444E+03  0.15149292444E+03  0.00000000000E+00 0.  1.
         22   -1    0    0    0    0 -0.00000000000E+00 -0.00000000000E+00 -0.51275614804E+03  0.51275614804E+03  0.00000000000E+00 0.  1.
        -24    2    1    2    0    0 -0.26732101942E+02 -0.21601811818E+01 -0.33217267118E+03  0.34250356074E+03  0.79061583482E+02 0.  0.
         25    2    1    2    0    0  0.78351918707E+02  0.80582073180E+01 -0.11846284623E+03  0.18943557979E+03  0.12509370521E+03 0.  0.
         24    2    1    2    0    0 -0.51619816765E+02 -0.58980261362E+01  0.89372293819E+02  0.13230993195E+03  0.82577957073E+02 0.  0.
        -11    1    5    5    0    0 -0.18924931198E+02  0.32852481905E+02  0.66804806855E+02  0.76813545727E+02  0.00000000000E+00 0.  1.
         12    1    5    5    0    0 -0.32694885567E+02 -0.38750508041E+02  0.22567486963E+02  0.55496386220E+02  0.00000000000E+00 0. -1.
         11    1    3    3    0    0 -0.16054136235E+02 -0.35434823385E+02 -0.93257372320E+02  0.10104602660E+03  0.00000000000E+00 0. -1.
        -12    1    3    3    0    0 -0.10677965707E+02  0.33274642203E+02 -0.23891529886E+03  0.24145753415E+03  0.00000000000E+00 0.  1.
          5    1    4    4  501    0  0.57242603682E+02 -0.12037403572E+02 -0.14076958975E+03  0.15249644114E+03  0.41800000000E+01 0.  1.
         -5    1    4    4    0  501  0.21109315026E+02  0.20095610890E+02  0.22306743520E+02  0.36939138652E+02  0.41800000000E+01 0.  1.
</event>
<event>
11    1  0.8299058E-009  0.2404064E+03  0.7561462E-02  0.1029138E+00
         22   -1    0    0    0    0  0.00000000000E+00  0.00000000000E+00  0.24342619639E+03  0.24342619639E+03  0.00000000000E+00 0. -1.
         22   -1    0    0    0    0 -0.00000000000E+00 -0.00000000000E+00 -0.11851018323E+04  0.11851018323E+04  0.00000000000E+00 0. -1.
         24    2    1    2    0    0  0.85993405066E+02  0.18651806469E+03 -0.71108873364E+03  0.74456949372E+03  0.80948685623E+02 0.  0.
         25    2    1    2    0    0 -0.61424291346E+02 -0.19690878588E+03 -0.41531942923E+03  0.48029590879E+03  0.12509163911E+03 0.  0.
        -24    2    1    2    0    0 -0.24569113720E+02  0.10390721185E+02  0.18473252694E+03  0.20366262619E+03  0.81490799242E+02 0.  0.
        -13    1    3    3    0    0  0.64000946475E+01 -0.15535068105E+01 -0.23467430691E+01  0.69915518978E+01  0.00000000000E+00 0.  1.
         14    1    3    3    0    0  0.79593310418E+02  0.18807157150E+03 -0.70874199057E+03  0.73757794183E+03  0.00000000000E+00 0. -1.
         11    1    5    5    0    0  0.10938329517E+02  0.81912850821E+01  0.15941122520E+03  0.15999588409E+03  0.00000000000E+00 0. -1.
        -12    1    5    5    0    0 -0.35507443237E+02  0.21994361031E+01  0.25321301742E+02  0.43666742108E+02  0.00000000000E+00 0.  1.
          5    1    4    4  501    0 -0.24576636853E+02 -0.42985180859E+02 -0.23559584950E+03  0.24077918007E+03  0.41800000000E+01 0.  1.
         -5    1    4    4    0  501 -0.36847654493E+02 -0.15392360502E+03 -0.17972357973E+03  0.23951672872E+03  0.41800000000E+01 0.  1.
</event>
<event>
11    1  0.8299058E-009  0.1329669E+03  0.7561462E-02  0.1115676E+00
         22   -1    0    0    0    0  0.00000000000E+00  0.00000000000E+00  0.20311857203E+04  0.20311857203E+04  0.00000000000E+00 0. -1.
         22   -1    0    0    0    0 -0.00000000000E+00 -0.00000000000E+00 -0.67029816158E+03  0.67029816158E+03  0.00000000000E+00 0. -1.
        -24    2    1    2    0    0  0.37662367293E+02 -0.23877193894E+02 -0.64226343824E+03  0.64870764150E+03  0.79565732229E+02 0.  0.
         25    2    1    2    0    0 -0.63039055671E+02  0.52371001382E+02  0.21194334247E+03  0.25939132139E+03  0.12508889987E+03 0.  0.
         24    2    1    2    0    0  0.25376688378E+02 -0.28493807488E+02  0.17912076545E+04  0.17933849190E+04  0.79678935647E+02 0.  0.
        -11    1    5    5    0    0 -0.17466887814E+02 -0.39593001424E+02  0.10069477139E+04  0.10078771733E+04  0.00000000000E+00 0.  1.
         12    1    5    5    0    0  0.42843576193E+02  0.11099193936E+02  0.78425994059E+03  0.78550774569E+03  0.00000000000E+00 0. -1.
         13    1    3    3    0    0  0.64931082720E+01 -0.37391917135E+02 -0.53145149694E+03  0.53280485126E+03  0.00000000000E+00 0. -1.
        -14    1    3    3    0    0  0.31169259021E+02  0.13514723241E+02 -0.11081194130E+03  0.11590279024E+03  0.00000000000E+00 0.  1.
          5    1    4    4  501    0 -0.27863213877E+01  0.73859848517E+02  0.16204312437E+03  0.17815298865E+03  0.41800000000E+01 0. -1.
         -5    1    4    4    0  501 -0.60252734284E+02 -0.21488847134E+02  0.49900218097E+02  0.81238332737E+02  0.41800000000E+01 0. -1.
</event>
<event>
11    1  0.8299058E-009  0.1376131E+03  0.7561462E-02  0.1110253E+00
         22   -1    0    0    0    0  0.00000000000E+00  0.00000000000E+00  0.58599118552E+03  0.58599118552E+03  0.00000000000E+00 0.  1.
         22   -1    0    0    0    0 -0.00000000000E+00 -0.00000000000E+00 -0.25800205451E+03  0.25800205451E+03  0.00000000000E+00 0.  1.
         24    2    1    2    0    0  0.26271705222E+02 -0.18646927401E+01 -0.18729022392E+03  0.20580103458E+03  0.81134199229E+02 0.  0.
         25    2    1    2    0    0 -0.48559026831E+02  0.53490711651E+02  0.37326446633E+02  0.14919720496E+03  0.12508919629E+03 0.  0.
        -24    2    1    2    0    0  0.22287321609E+02 -0.51626018910E+02  0.47795290830E+03  0.48899500050E+03  0.86690007665E+02 0.  0.
        -11    1    3    3    0    0  0.21474317603E+02 -0.75269167592E+01 -0.19427894051E+03  0.19560702318E+03  0.00000000000E+00 0.  1.
         12    1    3    3    0    0  0.47973876183E+01  0.56622240190E+01  0.69887165910E+01  0.10194011398E+02  0.00000000000E+00 0. -1.
         13    1    5    5    0    0 -0.32960345219E+02 -0.14143246018E+02  0.14087920532E+03  0.14537319648E+03  0.00000000000E+00 0. -1.
        -14    1    5    5    0    0  0.55247666828E+02 -0.37482772892E+02  0.33707370298E+03  0.34362180401E+03  0.00000000000E+00 0.  1.
          5    1    4    4  501    0  0.12543357590E+02  0.72411362723E+02  0.42310980835E+02  0.84902489776E+02  0.41800000000E+01 0. -1.
         -5    1    4    4    0  501 -0.61102384421E+02 -0.18920651072E+02 -0.49845342017E+01  0.64294715180E+02  0.41800000000E+01 0. -1.
</event>
<event>
11    1  0.8299058E-009  0.1389325E+03  0.7561462E-02  0.1108756E+00
         22   -1    0    0    0    0  0.00000000000E+00  0.00000000000E+00  0.77063455476E+02  0.77063455476E+02  0.00000000000E+00 0.  1.
         22   -1    0    0    0    0 -0.00000000000E+00 -0.00000000000E+00 -0.88373084136E+03  0.88373084136E+03  0.00000000000E+00 0.  1.
        -24    2    1    2    0    0  0.59504439812E+02  0.24027026799E+02 -0.69788017513E+03  0.70539303212E+03  0.80153069465E+02 0.  0.
         25    2    1    2    0    0 -0.34080471522E+02  0.71345246553E+01 -0.10227192073E+03  0.16528630128E+03  0.12509050980E+03 0.  0.
         24    2    1    2    0    0 -0.25423968290E+02 -0.31161551454E+02 -0.65152900221E+01  0.90114963432E+02  0.80379333025E+02 0.  0.
        -11    1    5    5    0    0  0.17689666836E+02 -0.41274296502E+02  0.22921903767E+01  0.44963829922E+02  0.00000000000E+00 0.  1.
         12    1    5    5    0    0 -0.43113635126E+02  0.10112745049E+02 -0.88074803988E+01  0.45151133510E+02  0.00000000000E+00 0. -1.
         13    1    3    3    0    0  0.21713236583E+02  0.34534491261E+02 -0.13211025484E+03  0.13826501786E+03  0.00000000000E+00 0. -1.
        -14    1    3    3    0    0  0.37791203230E+02 -0.10507464462E+02 -0.56576992030E+03  0.56712801426E+03  0.00000000000E+00 0.  1.
          5    1    4    4  501    0  0.31095638906E+02  0.42788868013E+02 -0.27351823170E+02  0.59694393502E+02  0.41800000000E+01 0.  1.
         -5    1    4    4    0  501 -0.65176110428E+02 -0.35654343358E+02 -0.74920097556E+02  0.10559190778E+03  0.41800000000E+01 0.  1.
</event>
<event>
11    1  0.8299058E-009  0.1409441E+03  0.7561462E-02  0.1106509E+00
         22   -1    0    0    0    0  0.00000000000E+00  0.00000000000E+00  0.10976117499E+03  0.10976117499E+03  0.00000000000E+00 0.  1.
         22   -1    0    0    0    0 -0.00000000000E+00 -0.00000000000E+00 -0.12418504561E+04  0.12418504561E+04  0.00000000000E+00 0.  1.
         24    2    1    2    0    0 -0.54613261421E+02  0.25632264904E+02 -0.83342482427E+03  0.83928155518E+03  0.78466361128E+02 0.  0.
         25    2    1    2    0    0  0.94847585237E+02 -0.76143365064E+01 -0.36559648399E+03  0.39794817701E+03  0.12509164615E+03 0.  0.
        -24    2    1    2    0    0 -0.40234323815E+02 -0.18017928398E+02  0.66932027140E+02  0.11438189890E+03  0.81608063221E+02 0.  0.
        -13    1    3    3    0    0 -0.18901061713E+02  0.52067019056E+01 -0.68444063735E+03  0.68472136372E+03  0.00000000000E+00 0.  1.
         14    1    3    3    0    0 -0.35712199709E+02  0.20425562999E+02 -0.14898418691E+03  0.15456019145E+03  0.00000000000E+00 0. -1.
         13    1    5    5    0    0 -0.23046481968E+01  0.30765958795E+02  0.24912373449E+02  0.39654532840E+02  0.00000000000E+00 0. -1.
        -14    1    5    5    0    0 -0.37929675619E+02 -0.48783887193E+02  0.42019653691E+02  0.74727366062E+02  0.00000000000E+00 0.  1.
          5    1    4    4  501    0  0.62697133078E+02 -0.12806132282E+02 -0.35871326643E+03  0.36440033951E+03  0.41800000000E+01 0.  1.
         -5    1    4    4    0  501  0.32150452159E+02  0.51917957751E+01 -0.68832175629E+01  0.33547837508E+02  0.41800000000E+01 0.  1.
</event>
<event>
11    1  0.8299058E-009  0.1407694E+03  0.7561462E-02  0.1106702E+00
         22   -1    0    0    0    0  0.00000000000E+00  0.00000000000E+00  0.24476833653E+03  0.24476833653E+03  0.00000000000E+00 0.  1.
         22   -1    0    0    0    0 -0.00000000000E+00 -0.00000000000E+00 -0.14378154325E+04  0.14378154325E+04  0.00000000000E+00 0.  1.
         24    2    1    2    0    0  0.58123444697E+02  0.33435325958E+02 -0.12892619405E+04  0.12935104778E+04  0.80478253370E+02 0.  0.
         25    2    1    2    0    0 -0.32437759056E+02 -0.12373151653E+01 -0.10665646086E+03  0.16756191524E+03  0.12509058971E+03 0.  0.
        -24    2    1    2    0    0 -0.25685685641E+02 -0.32198010793E+02  0.20287130533E+03  0.22151137600E+03  0.78829289132E+02 0.  0.
        -13    1    3    3    0    0  0.35209537966E+02  0.30673578151E+02 -0.12114054442E+04  0.12123051308E+04  0.00000000000E+00 0.  1.
         14    1    3    3    0    0  0.22913906731E+02  0.27617478077E+01 -0.77856496286E+02  0.81205347032E+02  0.00000000000E+00 0. -1.
         11    1    5    5    0    0 -0.18310023349E+02  0.57284529341E+00  0.26710625338E+01  0.18512689751E+02  0.00000000000E+00 0. -1.
        -12    1    5    5    0    0 -0.73756622918E+01 -0.32770856087E+02  0.20020024279E+03  0.20299868625E+03  0.00000000000E+00 0.  1.
          5    1    4    4  501    0  0.36061572088E+02 -0.82546961128E+01  0.37052481480E+01  0.37413610534E+02  0.41800000000E+01 0.  1.
         -5    1    4    4    0  501 -0.68499331144E+02  0.70173809475E+01 -0.11036170901E+03  0.13014830471E+03  0.41800000000E+01 0.  1.
</event>
<event>
11    1  0.8299058E-009  0.2494972E+03  0.7561462E-02  0.1024167E+00
         22   -1    0    0    0    0  0.00000000000E+00  0.00000000000E+00  0.14349534765E+04  0.14349534765E+04  0.00000000000E+00 0. -1.
         22   -1    0    0    0    0 -0.00000000000E+00 -0.00000000000E+00 -0.26635800078E+03  0.26635800078E+03  0.00000000000E+00 0.  1.
        -24    2    1    2    0    0 -0.20090215707E+03  0.63479499751E+02 -0.12758016803E+03  0.25867083294E+03  0.79009979974E+02 0.  0.
         25    2    1    2    0    0  0.20687479112E+03 -0.12536343090E+03  0.19081700013E+03  0.33252402885E+03  0.12509169923E+03 0.  0.
         24    2    1    2    0    0 -0.59726340502E+01  0.61883931151E+02  0.11053586436E+04  0.11101166155E+04  0.81706032120E+02 0.  0.
        -13    1    5    5    0    0  0.33823167057E+02  0.76773763440E+01  0.44176131141E+03  0.44312075668E+03  0.00000000000E+00 0.  1.
         14    1    5    5    0    0 -0.39795801107E+02  0.54206554807E+02  0.66359733217E+03  0.66699585878E+03  0.00000000000E+00 0. -1.
         11    1    3    3    0    0  0.31176833742E+01  0.11933238651E+02 -0.16858611660E+02  0.20888631392E+02  0.00000000000E+00 0. -1.
        -12    1    3    3    0    0 -0.20401984044E+03  0.51546261100E+02 -0.11072155637E+03  0.23778220155E+03  0.00000000000E+00 0.  1.
          5    1    4    4  501    0  0.89432419175E+02 -0.11921700599E+03  0.13938103288E+03  0.20409653805E+03  0.41800000000E+01 0. -1.
         -5    1    4    4    0  501  0.11744237194E+03 -0.61464249107E+01  0.51435967260E+02  0.12842749081E+03  0.41800000000E+01 0. -1.
</event>
<event>
11    1  0.8299058E-009  0.1530569E+03  0.7561462E-02  0.1093796E+00
         22   -1    0    0    0    0  0.00000000000E+00  0.00000000000E+00  0.14630743682E+04  0.14630743682E+04  0.00000000000E+00 0.  1.
         22   -1    0    0    0    0 -0.00000000000E+00 -0.00000000000E+00 -0.17892736675E+04  0.17892736675E+04  0.00000000000E+00 0.  1.
        -24    2    1    2    0    0 -0.80309907449E+02  0.36921286981E+02 -0.17730732262E+04  0.17772223201E+04  0.83172393802E+02 0.  0.
         25    2    1    2    0    0  0.18838462580E+02 -0.68266409772E+02  0.44828200404E+03  0.47076465269E+03  0.12508961870E+03 0.  0.
         24    2    1    2    0    0  0.61471444868E+02  0.31345122791E+02  0.99859192286E+03  0.10043610629E+04  0.82426094414E+02 0.  0.
        -11    1    5    5    0    0  0.71187498513E+02  0.49340161086E+02  0.84076782644E+03  0.84521751604E+03  0.00000000000E+00 0.  1.
         12    1    5    5    0    0 -0.97160536448E+01 -0.17995038295E+02  0.15782409642E+03  0.15914354688E+03  0.00000000000E+00 0. -1.
         13    1    3    3    0    0  0.26089556678E+01 -0.20371961867E+02 -0.31848188375E+03  0.31914343759E+03  0.00000000000E+00 0. -1.
        -14    1    3    3    0    0 -0.82918863116E+02  0.57293248849E+02 -0.14545913424E+04  0.14580788826E+04  0.00000000000E+00 0.  1.
          5    1    4    4  501    0  0.11635121327E+02 -0.10047995506E+03  0.39645211687E+03  0.40917398596E+03  0.41800000000E+01 0. -1.
         -5    1    4    4    0  501  0.72033412532E+01  0.32213545283E+02  0.51829887168E+02  0.61590666734E+02  0.41800000000E+01 0. -1.
</event>
<event>
11    1  0.8299058E-009  0.2049807E+03  0.7561462E-02  0.1051056E+00
         22   -1    0    0    0    0  0.00000000000E+00  0.00000000000E+00  0.43081033435E+03  0.43081033435E+03  0.00000000000E+00 0.  1.
         22   -1    0    0    0    0 -0.00000000000E+00 -0.00000000000E+00 -0.15695485221E+04  0.15695485221E+04  0.00000000000E+00 0. -1.
         24    2    1    2    0    0 -0.69030642475E+02 -0.14354868506E+03 -0.13892667105E+04  0.14021139724E+04  0.10242140409E+03 0.  0.
         25    2    1    2    0    0  0.50025230840E+02  0.20379440768E+03 -0.76343270229E+02  0.25595192364E+03  0.12509359689E+03 0.  0.
        -24    2    1    2    0    0  0.19005411635E+02 -0.60245722614E+02  0.32687179304E+03  0.34229296039E+03  0.79552177129E+02 0.  0.
        -11    1    3    3    0    0 -0.19151554004E+02 -0.70721752119E+02 -0.28298788210E+03  0.29231915719E+03  0.00000000000E+00 0.  1.
         12    1    3    3    0    0 -0.49879088471E+02 -0.72826932943E+02 -0.11062788284E+04  0.11097948152E+04  0.00000000000E+00 0. -1.
         13    1    5    5    0    0  0.13459374979E+02 -0.57236066983E+02  0.10508056957E+03  0.12041199375E+03  0.00000000000E+00 0. -1.
        -14    1    5    5    0    0  0.55460366558E+01 -0.30096556318E+01  0.22179122347E+03  0.22188096664E+03  0.00000000000E+00 0.  1.
          5    1    4    4  501    0  0.85331928685E+02  0.16231225162E+03 -0.33350988577E+02  0.18643112916E+03  0.41800000000E+01 0. -1.
         -5    1    4    4    0  501 -0.35306697845E+02  0.41482156056E+02 -0.42992281652E+02  0.69520794482E+02  0.41800000000E+01 0. -1.
</event>
<event>
11    1  0.8299058E-009  0.1418427E+03  0.7561462E-02  0.1105518E+00
         22   -1    0    0    0    0  0.00000000000E+00  0.00000000000E+00  0.37961067365E+03  0.37961067365E+03  0.00000000000E+00 0. -1.
         22   -1    0    0    0    0 -0.00000000000E+00 -0.00000000000E+00 -0.40163358368E+03  0.40163358368E+03  0.00000000000E+00 0.  1.
        -24    2    1    2    0    0 -0.64867511301E+02  0.12024916566E+02 -0.34334772671E+03  0.35876600289E+03  0.80454898862E+02 0.  0.
         25    2    1    2    0    0  0.74819737275E+02 -0.73907914486E+02  0.14330893477E+03  0.21735740949E+03  0.12508564971E+03 0.  0.
         24    2    1    2    0    0 -0.99522259743E+01  0.61882997919E+02  0.17801588191E+03  0.20512084495E+03  0.80351444231E+02 0.  0.
        -13    1    5    5    0    0  0.24843658257E+01  0.66193851295E+01 -0.79969051218E+01  0.10674213066E+02  0.00000000000E+00 0.  1.
         14    1    5    5    0    0 -0.12436591800E+02  0.55263612790E+02  0.18601278703E+03  0.19444663189E+03  0.00000000000E+00 0. -1.
         11    1    3    3    0    0 -0.59172648624E+02 -0.24198088664E+02 -0.17096743128E+03  0.18252893578E+03  0.00000000000E+00 0. -1.
        -12    1    3    3    0    0 -0.56948626770E+01  0.36223005231E+02 -0.17238029543E+03  0.17623706711E+03  0.00000000000E+00 0.  1.
          5    1    4    4  501    0  0.54292521479E+01 -0.88587351955E+02  0.56987828833E+02  0.10555700233E+03  0.41800000000E+01 0.  1.
         -5    1    4    4    0  501  0.69390485127E+02  0.14679437470E+02  0.86321105935E+02  0.11180040716E+03  0.41800000000E+01 0.  1.
</event>
<event>
11    1  0.8299058E-009  0.1392430E+03  0.7561462E-02  0.1108407E+00
         22   -1    0    0    0    0  0.00000000000E+00  0.00000000000E+00  0.32169378905E+04  0.32169378905E+04  0.00000000000E+00 0.  1.
         22   -1    0    0    0    0 -0.00000000000E+00 -0.00000000000E+00 -0.42234536564E+02  0.42234536564E+02  0.00000000000E+00 0.  1.
         24    2    1    2    0    0  0.15495465291E+02  0.58780168601E+02  0.37106140125E+02  0.10712987751E+03  0.80029540519E+02 0.  0.
         25    2    1    2    0    0 -0.63108838997E+01 -0.65587787985E+02  0.75506889821E+03  0.76819166821E+03  0.12509121824E+03 0.  0.
        -24    2    1    2    0    0 -0.91845813910E+01  0.68076193844E+01  0.23825283156E+04  0.23838508813E+04  0.78569393487E+02 0.  0.
        -13    1    3    3    0    0  0.13756285028E+02  0.76474692266E+02  0.15646662970E+02  0.79261794057E+02  0.00000000000E+00 0.  1.
         14    1    3    3    0    0  0.17391802622E+01 -0.17694523665E+02  0.21459477155E+02  0.27868083456E+02  0.00000000000E+00 0. -1.
         11    1    5    5    0    0  0.34369754917E+01  0.16152482659E+02  0.10687145375E+03  0.10813983134E+03  0.00000000000E+00 0. -1.
        -12    1    5    5    0    0 -0.12621556883E+02 -0.93448632742E+01  0.22756568618E+04  0.22757110500E+04  0.00000000000E+00 0.  1.
          5    1    4    4  501    0  0.25197243248E+02 -0.94185134105E+02  0.56576029966E+03  0.57411490977E+03  0.41800000000E+01 0.  1.
         -5    1    4    4    0  501 -0.31508127148E+02  0.28597346120E+02  0.18930859855E+03  0.19407675844E+03  0.41800000000E+01 0.  1.
</event>
<event>
11    1  0.8299058E-009  0.1605852E+03  0.7561462E-02  0.1086528E+00
         22   -1    0    0    0    0  0.00000000000E+00  0.00000000000E+00  0.48950604770E+03  0.48950604770E+03  0.00000000000E+00 0.  1.
         22   -1    0    0    0    0 -0.00000000000E+00 -0.00000000000E+00 -0.22139292959E+03  0.22139292959E+03  0.00000000000E+00 0. -1.
         24    2    1    2    0    0 -0.66111612229E+02 -0.76017998329E+02 -0.14412020363E+03  0.19337262363E+03  0.80454068470E+02 0.  0.
         25    2    1    2    0    0  0.13675098798E+03  0.84607147124E+01  0.24141725809E+03  0.30447406172E+03  0.12509894224E+03 0.  0.
        -24    2    1    2    0    0 -0.70639375753E+02  0.67557283617E+02  0.17081606365E+03  0.21305229194E+03  0.81604188153E+02 0.  0.
        -13    1    3    3    0    0 -0.51335843344E+02 -0.84027166595E+02 -0.79360292847E+02  0.12646734606E+03  0.00000000000E+00 0.  1.
         14    1    3    3    0    0 -0.14775768885E+02  0.80091682655E+01 -0.64759910784E+02  0.66905277574E+02  0.00000000000E+00 0. -1.
         13    1    5    5    0    0  0.10287205279E+02  0.17995400677E+02  0.39674995855E+01  0.21104551427E+02  0.00000000000E+00 0. -1.
        -14    1    5    5    0    0 -0.80926581032E+02  0.49561882940E+02  0.16684856406E+03  0.19194774051E+03  0.00000000000E+00 0.  1.
          5    1    4    4  501    0  0.26269083244E+02 -0.14936645376E+02 -0.72289442687E+01  0.31351206434E+02  0.41800000000E+01 0. -1.
         -5    1    4    4    0  501  0.11048190474E+03  0.23397360089E+02  0.24864620236E+03  0.27312285529E+03  0.41800000000E+01 0. -1.
</event>
<event>
11    1  0.8299058E-009  0.1497554E+03  0.7561462E-02  0.1097129E+00
         22   -1    0    0    0    0  0.00000000000E+00  0.00000000000E+00  0.20355410873E+04  0.20355410873E+04  0.00000000000E+00 0.  1.
         22   -1    0    0    0    0 -0.00000000000E+00 -0.00000000000E+00 -0.39133312101E+03  0.39133312101E+03  0.00000000000E+00 0. -1.
        -24    2    1    2    0    0  0.46481696090E+02  0.65908685420E+02 -0.35143186466E+03  0.36939211226E+03  0.80260041188E+02 0.  0.
         25    2    1    2    0    0 -0.69892455286E+02 -0.11708839635E+03  0.26000380443E+03  0.31913563667E+03  0.12510367064E+03 0.  0.
         24    2    1    2    0    0  0.23410759196E+02  0.51179710927E+02  0.17356360266E+04  0.17383464594E+04  0.79047896027E+02 0.  0.
        -13    1    5    5    0    0  0.44563976027E+02  0.37949632969E+02  0.15418841705E+04  0.15429947887E+04  0.00000000000E+00 0.  1.
         14    1    5    5    0    0 -0.21153216832E+02  0.13230077958E+02  0.19375185602E+03  0.19535167073E+03  0.00000000000E+00 0. -1.
         11    1    3    3    0    0  0.51039275118E+02  0.64042487302E+02 -0.35433495700E+03  0.36367528035E+03  0.00000000000E+00 0. -1.
        -12    1    3    3    0    0 -0.45575790284E+01  0.18661981175E+01  0.29030923328E+01  0.57168319117E+01  0.00000000000E+00 0.  1.
          5    1    4    4  501    0 -0.73409575009E+02 -0.13987946638E+03  0.24418830859E+03  0.29086188006E+03  0.41800000000E+01 0. -1.
         -5    1    4    4    0  501  0.35171197231E+01  0.22791070031E+02  0.15815495839E+02  0.28273756611E+02  0.41800000000E+01 0. -1.
</event>
<event>
11    1  0.8299058E-009  0.1411624E+03  0.7561462E-02  0.1106267E+00
         22   -1    0    0    0    0  0.00000000000E+00  0.00000000000E+00  0.11945762144E+03  0.11945762144E+03  0.00000000000E+00 0. -1.
         22   -1    0    0    0    0 -0.00000000000E+00 -0.00000000000E+00 -0.38675917698E+03  0.38675917698E+03  0.00000000000E+00 0. -1.
         24    2    1    2    0    0 -0.50869791295E+01 -0.29885303307E+02 -0.15957342455E+03  0.17715083015E+03  0.70708769561E+02 0.  0.
         25    2    1    2    0    0  0.57145817764E+02 -0.13176715106E+02 -0.16016965660E+03  0.21151888218E+03  0.12508656329E+03 0.  0.
        -24    2    1    2    0    0 -0.52058838635E+02  0.43062018413E+02  0.52441525609E+02  0.11754708609E+03  0.80639591578E+02 0.  0.
        -13    1    3    3    0    0 -0.23092116525E+02 -0.11276387951E+02 -0.13944570325E+02  0.29237883172E+02  0.00000000000E+00 0.  1.
         14    1    3    3    0    0  0.18005137396E+02 -0.18608915356E+02 -0.14562885422E+03  0.14791294698E+03  0.00000000000E+00 0. -1.
         13    1    5    5    0    0 -0.15559832397E+02 -0.24000523065E+02  0.17928214891E+02  0.33757286337E+02  0.00000000000E+00 0. -1.
        -14    1    5    5    0    0 -0.36499006237E+02  0.67062541478E+02  0.34513310718E+02  0.83789799752E+02  0.00000000000E+00 0.  1.
          5    1    4    4  501    0  0.23966877933E+02  0.52938956708E+02 -0.10141190126E+03  0.11695636149E+03  0.41800000000E+01 0. -1.
         -5    1    4    4    0  501  0.33178939831E+02 -0.66115671814E+02 -0.58757755346E+02  0.94562520700E+02  0.41800000000E+01 0. -1.
</event>
<event>
11    1  0.8299058E-009  0.2834556E+03  0.7561462E-02  0.1007447E+00
         22   -1    0    0    0    0  0.00000000000E+00  0.00000000000E+00  0.95550693260E+03  0.95550693260E+03  0.00000000000E+00 0. -1.
         22   -1    0    0    0    0 -0.00000000000E+00 -0.00000000000E+00 -0.33009817488E+03  0.33009817488E+03  0.00000000000E+00 0.  1.
         24    2    1    2    0    0  0.14665206243E+03  0.99942453628E+02 -0.78245212412E+02  0.21010544550E+03  0.80787768317E+02 0.  0.
         25    2    1    2    0    0 -0.35466231554E+03 -0.20064724637E+03  0.12025649180E+03  0.44289304611E+03  0.12509177004E+03 0.  0.
        -24    2    1    2    0    0  0.20801025311E+03  0.10070479274E+03  0.58339747834E+03  0.63260661587E+03  0.80179748313E+02 0.  0.
        -13    1    3    3    0    0  0.93614661983E+01  0.42964811836E+02 -0.32168990311E+02  0.54483539194E+02  0.00000000000E+00 0.  1.
         14    1    3    3    0    0  0.13729059624E+03  0.56977641792E+02 -0.46076222101E+02  0.15562190630E+03  0.00000000000E+00 0. -1.
         11    1    5    5    0    0  0.14534168080E+03  0.30445826911E+02  0.39510169875E+03  0.42208589755E+03  0.00000000000E+00 0. -1.
        -12    1    5    5    0    0  0.62668572306E+02  0.70258965827E+02  0.18829577959E+03  0.21052071833E+03  0.00000000000E+00 0.  1.
          5    1    4    4  501    0 -0.30441264677E+03 -0.21450285701E+03  0.11755152445E+03  0.39053088032E+03  0.41800000000E+01 0.  1.
         -5    1    4    4    0  501 -0.50249668768E+02  0.13855610646E+02  0.27049673461E+01  0.52362165788E+02  0.41800000000E+01 0.  1.
</event>
<event>
11    1  0.8299058E-009  0.1433458E+03  0.7561462E-02  0.1103879E+00
         22   -1    0    0    0    0  0.00000000000E+00  0.00000000000E+00  0.14319737945E+04  0.14319737945E+04  0.00000000000E+00 0. -1.
         22   -1    0    0    0    0 -0.00000000000E+00 -0.00000000000E+00 -0.13515859204E+04  0.13515859204E+04  0.00000000000E+00 0.  1.
         24    2    1    2    0    0 -0.36707971175E+01  0.29291993846E+02 -0.13272932315E+04  0.13302757789E+04  0.83993034485E+02 0.  0.
         25    2    1    2    0    0  0.49060099012E+02  0.26875763896E+02  0.21073280425E+03  0.25136170722E+03  0.12508074620E+03 0.  0.
        -24    2    1    2    0    0 -0.45389301894E+02 -0.56167757742E+02  0.11969483014E+04  0.12019222288E+04  0.81956098853E+02 0.  0.
        -11    1    3    3    0    0  0.18058744403E+02 -0.24763195702E+02 -0.42500242247E+03  0.42610608212E+03  0.00000000000E+00 0.  1.
         12    1    3    3    0    0 -0.21729541520E+02  0.54055189549E+02 -0.90229080904E+03  0.90416969678E+03  0.00000000000E+00 0. -1.
         13    1    5    5    0    0 -0.32988815209E+02  0.70164842960E+01  0.70108870341E+03  0.70189946789E+03  0.00000000000E+00 0. -1.
        -14    1    5    5    0    0 -0.12400486685E+02 -0.63184242038E+02  0.49585959797E+03  0.50002276089E+03  0.00000000000E+00 0.  1.
          5    1    4    4  501    0  0.79616122712E+02  0.11451831349E+02  0.70784159043E+02  0.10722751983E+03  0.41800000000E+01 0.  1.
         -5    1    4    4    0  501 -0.30556023700E+02  0.15423932546E+02  0.13994864521E+03  0.14413418739E+03  0.41800000000E+01 0.  1.
</event>
<event>
11    1  0.8299058E-009  0.1996638E+03  0.7561462E-02  0.1054762E+00
         22   -1    0    0    0    0  0.00000000000E+00  0.00000000000E+00  0.13921437441E+03  0.13921437441E+03  0.00000000000E+00 0.  1.
         22   -1    0    0    0    0 -0.00000000000E+00 -0.00000000000E+00 -0.12474758100E+04  0.12474758100E+04  0.00000000000E+00 0.  1.
        -24    2    1    2    0    0  0.32664651624E+02  0.14474031860E+03 -0.83136987993E+03  0.84832104844E+03  0.80349142334E+02 0.  0.
         25    2    1    2    0    0 -0.44736622080E+02 -0.17851266017E+03 -0.33978892020E+03  0.40616636629E+03  0.12508585700E+03 0.  0.
         24    2    1    2    0    0  0.12071970456E+02  0.33772341569E+02  0.62897364500E+02  0.13220276972E+03  0.11061279463E+03 0.  0.
        -13    1    5    5    0    0 -0.17424331190E+02  0.67446384418E+02  0.49562692675E+02  0.85493172790E+02  0.00000000000E+00 0.  1.
         14    1    5    5    0    0  0.29496301646E+02 -0.33674042850E+02  0.13334671825E+02  0.46709596929E+02  0.00000000000E+00 0. -1.
         13    1    3    3    0    0 -0.21843272878E+02  0.11808842718E+02 -0.13920635177E+03  0.14140362693E+03  0.00000000000E+00 0. -1.
        -14    1    3    3    0    0  0.54507924502E+02  0.13293147589E+03 -0.69216352816E+03  0.70691742151E+03  0.00000000000E+00 0.  1.
          5    1    4    4  501    0 -0.18907467133E+02  0.72442609651E+01 -0.97909233502E+02  0.10006828686E+03  0.41800000000E+01 0. -1.
         -5    1    4    4    0  501 -0.25829154947E+02 -0.18575692114E+03 -0.24187968670E+03  0.30609807943E+03  0.41800000000E+01 0. -1.
</event>
<event>
11    1  0.8299058E-009  0.3784610E+03  0.7561462E-02  0.9715538E-01
         22   -1    0    0    0    0  0.00000000000E+00  0.00000000000E+00  0.85390685569E+03  0.85390685569E+03  0.00000000000E+00 0.  1.
         22   -1    0    0    0    0 -0.00000000000E+00 -0.00000000000E+00 -0.18981252772E+04  0.18981252772E+04  0.00000000000E+00 0.  1.
        -24    2    1    2    0    0  0.26010602424E+03 -0.25288636547E+03 -0.10022682654E+04  0.10686487477E+04  0.76562474212E+02 0.  0.
         25    2    1    2    0    0 -0.25807946426E+03  0.23714762174E+03 -0.82039282542E+03  0.90085406084E+03  0.12509854739E+03 0.  0.
         24    2    1    2    0    0 -0.20265599815E+01  0.15738743725E+02  0.77844266939E+03  0.78252932426E+03  0.78277319881E+02 0.  0.
        -11    1    5    5    0    0  0.23815935069E+02  0.28685137819E+02  0.64084436014E+03  0.64192797868E+03  0.00000000000E+00 0.  1.
         12    1    5    5    0    0 -0.25842495051E+02 -0.12946394094E+02  0.13759830925E+03  0.14060134558E+03  0.00000000000E+00 0. -1.
         13    1    3    3    0    0  0.32545539374E+01  0.29496775949E+01 -0.41979318948E+02  0.42208481833E+02  0.00000000000E+00 0. -1.
        -14    1    3    3    0    0  0.25685147030E+03 -0.25583604306E+03 -0.96028894649E+03  0.10264402659E+04  0.00000000000E+00 0.  1.
          5    1    4    4  501    0 -0.17281790277E+03  0.10557158006E+03 -0.34285141244E+03  0.39821595830E+03  0.41800000000E+01 0. -1.
         -5    1    4    4    0  501 -0.85261561491E+02  0.13157604169E+03 -0.47754141297E+03  0.50263810253E+03  0.41800000000E+01 0. -1.
</event>
<event>
11    1  0.8299058E-009  0.1542300E+03  0.7561462E-02  0.1092633E+00
         22   -1    0    0    0    0  0.00000000000E+00  0.00000000000E+00  0.16748302451E+03  0.16748302451E+03  0.00000000000E+00 0. -1.
         22   -1    0    0    0    0 -0.00000000000E+00 -0.00000000000E+00 -0.90458668870E+03  0.90458668870E+03  0.00000000000E+00 0. -1.
        -24    2    1    2    0    0 -0.95889007223E+01 -0.69650639004E+02 -0.49641020149E+03  0.50769069766E+03  0.79897420544E+02 0.  0.
         25    2    1    2    0    0 -0.52500425657E+02  0.13120236992E+03 -0.35307145055E+03  0.40034851492E+03  0.12509647330E+03 0.  0.
         24    2    1    2    0    0  0.62089326380E+02 -0.61551730921E+02  0.11237798786E+03  0.16403050065E+03  0.81446258096E+02 0.  0.
        -13    1    5    5    0    0  0.22227794206E+02 -0.74011660405E+02  0.66065398264E+02  0.10166827214E+03  0.00000000000E+00 0.  1.
         14    1    5    5    0    0  0.39861532174E+02  0.12459929484E+02  0.46312589593E+02  0.62362228511E+02  0.00000000000E+00 0. -1.
         11    1    3    3    0    0 -0.66252097092E+01 -0.87276214936E+02 -0.43568010954E+03  0.44438518083E+03  0.00000000000E+00 0. -1.
        -12    1    3    3    0    0 -0.29636910132E+01  0.17625575932E+02 -0.60730091956E+02  0.63305516824E+02  0.00000000000E+00 0.  1.
          5    1    4    4  501    0 -0.72041379293E+02  0.11177663876E+03 -0.34726703293E+03  0.37188148900E+03  0.41800000000E+01 0.  1.
         -5    1    4    4    0  501  0.19540953636E+02  0.19425731168E+02 -0.58044176212E+01  0.28467025913E+02  0.41800000000E+01 0.  1.
</event>
<event>
11    1  0.8299058E-009  0.1348329E+03  0.7561462E-02  0.1113469E+00
         22   -1    0    0    0    0  0.00000000000E+00  0.00000000000E+00  0.36611109899E+04  0.36611109899E+04  0.00000000000E+00 0. -1.
         22   -1    0    0    0    0 -0.00000000000E+00 -0.00000000000E+00 -0.36412847073E+03  0.36412847073E+03  0.00000000000E+00 0. -1.
         24    2    1    2    0    0 -0.20784107232E+02  0.28947814649E+02 -0.22452838174E+03  0.24077339001E+03  0.79302434040E+02 0.  0.
         25    2    1    2    0    0 -0.41583402794E+01 -0.72569336111E+02 -0.90830561901E+02  0.17082553518E+03  0.12509025604E+03 0.  0.
        -24    2    1    2    0    0  0.24942447511E+02  0.43621521462E+02  0.36123414628E+04  0.36136405354E+04  0.82837869562E+02 0.  0.
        -11    1    3    3    0    0 -0.22736600569E+02  0.87629593583E+01 -0.11787568762E+02  0.27068233032E+02  0.00000000000E+00 0.  1.
         12    1    3    3    0    0  0.19524933372E+01  0.20184855291E+02 -0.21274081298E+03  0.21370515698E+03  0.00000000000E+00 0. -1.
         13    1    5    5    0    0  0.13470795564E+02 -0.23192475069E+02  0.14130113680E+04  0.14132658912E+04  0.00000000000E+00 0. -1.
        -14    1    5    5    0    0  0.11471651948E+02  0.66813996531E+02  0.21993300948E+04  0.22003746442E+04  0.00000000000E+00 0.  1.
          5    1    4    4  501    0 -0.38437299147E+02  0.12236691947E+02  0.17758171204E+01  0.40592961483E+02  0.41800000000E+01 0. -1.
         -5    1    4    4    0  501  0.34278958867E+02 -0.84806028058E+02 -0.92606379021E+02  0.13023257370E+03  0.41800000000E+01 0. -1.
</event>
<event>
11    1  0.8299058E-009  0.2080908E+03  0.7561462E-02  0.1048945E+00
         22   -1    0    0    0    0  0.00000000000E+00  0.00000000000E+00  0.12471264338E+04  0.12471264338E+04  0.00000000000E+00 0.  1.
         22   -1    0    0    0    0 -0.00000000000E+00 -0.00000000000E+00 -0.77599071305E+03  0.77599071305E+03  0.00000000000E+00 0.  1.
         24    2    1    2    0    0  0.34642109495E+02  0.11625534098E+02 -0.68842268951E+03  0.69417729483E+03  0.81370070861E+02 0.  0.
         25    2    1    2    0    0  0.11037323853E+03  0.76217980095E+02  0.32368993390E+02  0.18625260625E+03  0.12510335459E+03 0.  0.
        -24    2    1    2    0    0 -0.14501534803E+03 -0.87843514193E+02  0.11271894169E+04  0.11426872458E+04  0.80201159553E+02 0.  0.
        -13    1    3    3    0    0 -0.17380637552E+02 -0.20753697821E+02 -0.16928345400E+03  0.17143421576E+03  0.00000000000E+00 0.  1.
         14    1    3    3    0    0  0.52022747047E+02  0.32379231919E+02 -0.51913923551E+03  0.52274307907E+03  0.00000000000E+00 0. -1.
         13    1    5    5    0    0 -0.94231786036E+02 -0.10850784642E+02  0.53097642941E+03  0.53938236680E+03  0.00000000000E+00 0. -1.
        -14    1    5    5    0    0 -0.50783561989E+02 -0.76992729551E+02  0.59621298750E+03  0.60330487901E+03  0.00000000000E+00 0.  1.
          5    1    4    4  501    0  0.38300859949E+02  0.65725882092E+02 -0.37785683784E+02  0.85041623624E+02  0.41800000000E+01 0. -1.
         -5    1    4    4    0  501  0.72072378582E+02  0.10492098003E+02  0.70154677175E+02  0.10121098263E+03  0.41800000000E+01 0. -1.
</event>
<event>
11    1  0.8299058E-009  0.1715804E+03  0.7561462E-02  0.1076665E+00
         22   -1    0    0    0    0  0.00000000000E+00  0.00000000000E+00  0.11506801785E+04  0.11506801785E+04  0.00000000000E+00 0. -1.
         22   -1    0    0    0    0 -0.00000000000E+00 -0.00000000000E+00 -0.80462141544E+03  0.80462141544E+03  0.00000000000E+00 0. -1.
        -24    2    1    2    0    0  0.11147139997E+03 -0.42586421046E+02 -0.75815342388E+03  0.77169597547E+03  0.80489677217E+02 0.  0.
         25    2    1    2    0    0 -0.59739836637E+02  0.55302909725E+02  0.11186686902E+03  0.18652115377E+03  0.12509470218E+03 0.  0.
         24    2    1    2    0    0 -0.51731563332E+02 -0.12716488680E+02  0.99234531796E+03  0.99708446473E+03  0.81180884539E+02 0.  0.
        -13    1    5    5    0    0  0.32823962057E+01 -0.31428146980E+01  0.16774982556E+01  0.48441108033E+01  0.00000000000E+00 0.  1.
         14    1    5    5    0    0 -0.55013959537E+02 -0.95736739816E+01  0.99066781970E+03  0.99224035393E+03  0.00000000000E+00 0. -1.
         11    1    3    3    0    0  0.10739929762E+03 -0.60444448009E+02 -0.69868035455E+03  0.70946626295E+03  0.00000000000E+00 0. -1.
        -12    1    3    3    0    0  0.40721023470E+01  0.17858026964E+02 -0.59473069331E+02  0.62229712519E+02  0.00000000000E+00 0.  1.
          5    1    4    4  501    0 -0.74715573697E+02 -0.13255549467E+02  0.39575534548E+02  0.85684431954E+02  0.41800000000E+01 0.  1.
         -5    1    4    4    0  501  0.14975737060E+02  0.68558459192E+02  0.72291334469E+02  0.10083672182E+03  0.41800000000E+01 0.  1.
</event>
<event>
11    1  0.8299058E-009  0.1659597E+03  0.7561462E-02  0.1081602E+00
         22   -1    0    0    0    0  0.00000000000E+00  0.00000000000E+00  0.11101895265E+03  0.11101895265E+03  0.00000000000E+00 0. -1.
         22   -1    0    0    0    0 -0.00000000000E+00 -0.00000000000E+00 -0.77865305676E+03  0.77865305676E+03  0.00000000000E+00 0. -1.
         24    2    1    2    0    0 -0.12691151785E+02  0.45247754510E+01 -0.29526185847E+03  0.30663957459E+03  0.81650013554E+02 0.  0.
         25    2    1    2    0    0  0.54437076699E+02 -0.10419692936E+03 -0.40791561047E+03  0.44256443264E+03  0.12509091242E+03 0.  0.
        -24    2    1    2    0    0 -0.41745924914E+02  0.99672153912E+02  0.35543364824E+02  0.14046800218E+03  0.82405511589E+02 0.  0.
        -13    1    3    3    0    0  0.20782063082E+02  0.18309654831E+02 -0.39005998302E+02  0.47839371960E+02  0.00000000000E+00 0.  1.
         14    1    3    3    0    0 -0.33473214867E+02 -0.13784879380E+02 -0.25625586016E+03  0.25880020263E+03  0.00000000000E+00 0. -1.
         11    1    5    5    0    0 -0.26481720429E+02  0.94825455400E+02  0.56946187612E+02  0.11373661149E+03  0.00000000000E+00 0. -1.
        -12    1    5    5    0    0 -0.15264204485E+02  0.48466985125E+01 -0.21402822788E+02  0.26731390692E+02  0.00000000000E+00 0.  1.
          5    1    4    4  501    0 -0.93604444513E+01 -0.76058745143E+02 -0.32598980064E+03  0.33490203516E+03  0.41800000000E+01 0. -1.
         -5    1    4    4    0  501  0.63797521150E+02 -0.28138184220E+02 -0.81925809825E+02  0.10766239748E+03  0.41800000000E+01 0. -1.
</event>
<event>
11    1  0.8299058E-009  0.1386917E+03  0.7561462E-02  0.1109028E+00
         22   -1    0    0    0    0  0.00000000000E+00  0.00000000000E+00  0.21084086791E+03  0.21084086791E+03  0.00000000000E+00 0. -1.
         22   -1    0    0    0    0 -0.00000000000E+00 -0.00000000000E+00 -0.33391175181E+03  0.33391175181E+03  0.00000000000E+00 0. -1.
         24    2    1    2    0    0 -0.37217962413E+02  0.40921463735E+02 -0.21159126203E+03  0.23311961448E+03  0.80710281653E+02 0.  0.
         25    2    1    2    0    0  0.90444196012E+02 -0.33651958661E+02 -0.27959381214E+02  0.16044608548E+03  0.12509441408E+03 0.  0.
        -24    2    1    2    0    0 -0.53226233599E+02 -0.72695050742E+01  0.11647975936E+03  0.15118691976E+03  0.80025450448E+02 0.  0.
        -13    1    3    3    0    0  0.80905226621E+01  0.35575913464E+02 -0.34383098371E+02  0.50132819882E+02  0.00000000000E+00 0.  1.
         14    1    3    3    0    0 -0.45308485075E+02  0.53455502717E+01 -0.17720816366E+03  0.18298679460E+03  0.00000000000E+00 0. -1.
         13    1    5    5    0    0 -0.28655867013E+02 -0.24038749457E+02  0.11551953542E+03  0.12142398137E+03  0.00000000000E+00 0. -1.
        -14    1    5    5    0    0 -0.24570366586E+02  0.16769244383E+02  0.96022393999E+00  0.29762938386E+02  0.00000000000E+00 0.  1.
          5    1    4    4  501    0  0.12174764463E+02  0.42114031114E+02 -0.26552444946E+02  0.51422964121E+02  0.41800000000E+01 0.  1.
         -5    1    4    4    0  501  0.78269431549E+02 -0.75765989775E+02 -0.14069362672E+01  0.10902312136E+03  0.41800000000E+01 0.  1.
</event>
<event>
11    1  0.8299058E-009  0.1488334E+03  0.7561462E-02  0.1098077E+00
         22   -1    0    0    0    0  0.00000000000E+00  0.00000000000E+00  0.18405252694E+04  0.18405252694E+04  0.00000000000E+00 0.  1.
         22   -1    0    0    0    0 -0.00000000000E+00 -0.00000000000E+00 -0.30677639498E+02  0.30677639498E+02  0.00000000000E+00 0. -1.
         24    2    1    2    0    0  0.53140043459E+01  0.70757457393E+02  0.14562123892E+03  0.18060826887E+03  0.79868298716E+02 0.  0.
         25    2    1    2    0    0 -0.37222166135E+02 -0.12579566942E+03  0.80363110361E+03  0.82382003957E+03  0.12508583778E+03 0.  0.
        -24    2    1    2    0    0  0.31908161789E+02  0.55038212028E+02  0.86059528733E+03  0.86677460042E+03  0.81404077181E+02 0.  0.
        -13    1    3    3    0    0 -0.27390258273E+02 -0.15723389599E+00  0.51299178087E+02  0.58153732839E+02  0.00000000000E+00 0.  1.
         14    1    3    3    0    0  0.32704262619E+02  0.70914691289E+02  0.94322060834E+02  0.12245453603E+03  0.00000000000E+00 0. -1.
         13    1    5    5    0    0  0.50824892840E+02  0.51734218139E+02  0.45664191541E+03  0.46236504839E+03  0.00000000000E+00 0. -1.
        -14    1    5    5    0    0 -0.18916731052E+02  0.33039938884E+01  0.40395337192E+03  0.40440955203E+03  0.00000000000E+00 0.  1.
          5    1    4    4  501    0  0.16223673103E+02 -0.80354437937E+02  0.20113366615E+03  0.21723781283E+03  0.41800000000E+01 0. -1.
         -5    1    4    4    0  501 -0.53445839238E+02 -0.45441231483E+02  0.60249743746E+03  0.60658222674E+03  0.41800000000E+01 0. -1.
</event>
<event>
11    1  0.8299058E-009  0.1370390E+03  0.7561462E-02  0.1110911E+00
         22   -1    0    0    0    0  0.00000000000E+00  0.00000000000E+00  0.18445535407E+03  0.18445535407E+03  0.00000000000E+00 0.  1.
         22   -1    0    0    0    0 -0.00000000000E+00 -0.00000000000E+00 -0.55123007153E+03  0.55123007153E+03  0.00000000000E+00 0. -1.
        -24    2    1    2    0    0 -0.85902427032E+01  0.34090149504E+02 -0.43142454121E+03  0.44047258348E+03  0.81566117205E+02 0.  0.
         25    2    1    2    0    0 -0.45687991700E+02 -0.99778137985E+01 -0.49330959844E+02  0.14237885858E+03  0.12510494162E+03 0.  0.
         24    2    1    2    0    0  0.54278234403E+02 -0.24112335705E+02  0.11398078359E+03  0.15283398355E+03  0.82698706372E+02 0.  0.
        -11    1    5    5    0    0  0.47303539634E+02  0.23363388063E+02  0.70684712511E+02  0.88203182178E+02  0.00000000000E+00 0.  1.
         12    1    5    5    0    0  0.69746947685E+01 -0.47475723768E+02  0.43296071079E+02  0.64630801367E+02  0.00000000000E+00 0. -1.
         13    1    3    3    0    0 -0.36301226236E+02  0.12686573450E+02 -0.98951601538E+02  0.10616095148E+03  0.00000000000E+00 0. -1.
        -14    1    3    3    0    0  0.27710983533E+02  0.21403576054E+02 -0.33247293967E+03  0.33431163200E+03  0.00000000000E+00 0.  1.
          5    1    4    4  501    0 -0.64570944803E+02 -0.15178750856E+02 -0.81081173683E+02  0.10484002345E+03  0.41800000000E+01 0. -1.
         -5    1    4    4    0  501  0.18882953103E+02  0.52009370579E+01  0.31750213839E+02  0.37538835131E+02  0.41800000000E+01 0. -1.
</event>
<event>
11    1  0.8299058E-009  0.1334827E+03  0.7561462E-02  0.1115062E+00
         22   -1    0    0    0    0  0.00000000000E+00  0.00000000000E+00  0.10313854542E+04  0.10313854542E+04  0.00000000000E+00 0.  1.
         22   -1    0    0    0    0 -0.00000000000E+00 -0.00000000000E+00 -0.22391383604E+03  0.22391383604E+03  0.00000000000E+00 0.  1.
         24    2    1    2    0    0 -0.14692848090E+01 -0.47702589927E+02 -0.18684257410E+03  0.20874502041E+03  0.79916457398E+02 0.  0.
         25    2    1    2    0    0 -0.14924603609E+02  0.28801940488E+02  0.14998219709E+03  0.19797557790E+03  0.12508946571E+03 0.  0.
        -24    2    1    2    0    0  0.16393888418E+02  0.18900649439E+02  0.84433199519E+03  0.84857869196E+03  0.81014098875E+02 0.  0.
        -13    1    3    3    0    0  0.64553017388E+01 -0.63476605283E+02 -0.90091332533E+02  0.11039655129E+03  0.00000000000E+00 0.  1.
         14    1    3    3    0    0 -0.79245865479E+01  0.15774015356E+02 -0.96751241571E+02  0.98348469118E+02  0.00000000000E+00 0. -1.
         13    1    5    5    0    0 -0.25844019782E+02 -0.14803480527E+02  0.24149780132E+03  0.24332744283E+03  0.00000000000E+00 0. -1.
        -14    1    5    5    0    0  0.42237908199E+02  0.33704129966E+02  0.60283419387E+03  0.60525124913E+03  0.00000000000E+00 0.  1.
          5    1    4    4  501    0  0.32958194846E+02 -0.35514683673E+02  0.50087668089E+02  0.69812479246E+02  0.41800000000E+01 0. -1.
         -5    1    4    4    0  501 -0.47882798455E+02  0.64316624161E+02  0.99894529005E+02  0.12816309865E+03  0.41800000000E+01 0. -1.
</event>
<event>
11    1  0.8299058E-009  0.1265002E+03  0.7561462E-02  0.1123645E+00
         22   -1    0    0    0    0  0.00000000000E+00  0.00000000000E+00  0.22512968407E+04  0.22512968407E+04  0.00000000000E+00 0. -1.
         22   -1    0    0    0    0 -0.00000000000E+00 -0.00000000000E+00 -0.17928006119E+03  0.17928006119E+03  0.00000000000E+00 0. -1.
        -24    2    1    2    0    0  0.96627105514E+01  0.15586852048E+02 -0.15401225869E+03  0.17509677434E+03  0.81257532732E+02 0.  0.
         25    2    1    2    0    0 -0.16862167298E+02 -0.27903305238E+02  0.28701507482E+03  0.31478347260E+03  0.12509218328E+03 0.  0.
         24    2    1    2    0    0  0.71994567468E+01  0.12316453190E+02  0.19390139634E+04  0.19406966549E+04  0.79528794448E+02 0.  0.
        -13    1    5    5    0    0  0.36980468098E+02  0.98636293850E+01  0.53609197866E+03  0.53745646874E+03  0.00000000000E+00 0.  1.
         14    1    5    5    0    0 -0.29781011351E+02  0.24528238050E+01  0.14029219847E+04  0.14032401862E+04  0.00000000000E+00 0. -1.
         11    1    3    3    0    0  0.13394176543E+02 -0.28236904481E+02 -0.10352012441E+03  0.10813483665E+03  0.00000000000E+00 0. -1.
        -12    1    3    3    0    0 -0.37314659920E+01  0.43823756530E+02 -0.50492134280E+02  0.66961937688E+02  0.00000000000E+00 0.  1.
          5    1    4    4  501    0 -0.56517504481E+02 -0.41305168049E+02  0.24686184438E+03  0.25662928093E+03  0.41800000000E+01 0. -1.
         -5    1    4    4    0  501  0.39655337183E+02  0.13401862810E+02  0.40153230440E+02  0.58154191669E+02  0.41800000000E+01 0. -1.
</event>
<event>
11    1  0.8299058E-009  0.1441483E+03  0.7561462E-02  0.1103013E+00
         22   -1    0    0    0    0  0.00000000000E+00  0.00000000000E+00  0.15992880302E+04  0.15992880302E+04  0.00000000000E+00 0. -1.
         22   -1    0    0    0    0 -0.00000000000E+00 -0.00000000000E+00 -0.68234405029E+02  0.68234405029E+02  0.00000000000E+00 0.  1.
         24    2    1    2    0    0  0.41628332840E+02  0.61858303574E+02  0.44784696193E+02  0.11944561263E+03  0.81867072417E+02 0.  0.
         25    2    1    2    0    0  0.26916721807E+02 -0.83888849227E+02  0.17599539277E+03  0.23320430250E+03  0.12509204407E+03 0.  0.
        -24    2    1    2    0    0 -0.68545054647E+02  0.22030545653E+02  0.13102735362E+04  0.13148725201E+04  0.83001415537E+02 0.  0.
        -11    1    3    3    0    0  0.28277178932E+02  0.81264672734E+02  0.27865426796E+02  0.90443506640E+02  0.00000000000E+00 0.  1.
         12    1    3    3    0    0  0.13351153908E+02 -0.19406369159E+02  0.16919269398E+02  0.29002105985E+02  0.00000000000E+00 0. -1.
         13    1    5    5    0    0 -0.60255439499E+02  0.13017545235E+02  0.12878389942E+04  0.12893135575E+04  0.00000000000E+00 0. -1.
        -14    1    5    5    0    0 -0.82896151481E+01  0.90130004183E+01  0.22434541939E+02  0.25558962574E+02  0.00000000000E+00 0.  1.
          5    1    4    4  501    0  0.37813950541E+02  0.15437667423E+02  0.98400737532E+02  0.10662267103E+03  0.41800000000E+01 0. -1.
         -5    1    4    4    0  501 -0.10897228734E+02 -0.99326516650E+02  0.77594655242E+02  0.12658163147E+03  0.41800000000E+01 0. -1.
</event>
<event>
11    1  0.8299058E-009  0.1387000E+03  0.7561462E-02  0.1109019E+00
         22   -1    0    0    0    0  0.00000000000E+00  0.00000000000E+00  0.32853180970E+04  0.32853180970E+04  0.00000000000E+00 0.  1.
         22   -1    0    0    0    0 -0.00000000000E+00 -0.00000000000E+00 -0.65249183097E+02  0.65249183097E+02  0.00000000000E+00 0.  1.
        -24    2    1    2    0    0  0.20578206353E+01  0.61135351096E+02 -0.18761482827E+02  0.10032137246E+03  0.77269779055E+02 0.  0.
         25    2    1    2    0    0 -0.27463532032E+02 -0.30748775957E+02  0.91689846443E+03  0.92630914634E+03  0.12508440232E+03 0.  0.
         24    2    1    2    0    0  0.25405711397E+02 -0.30386575140E+02  0.23219319323E+04  0.23239367613E+04  0.88007830022E+02 0.  0.
        -11    1    5    5    0    0  0.88386210043E+00 -0.54886302778E+02  0.18102246741E+04  0.18110567794E+04  0.00000000000E+00 0.  1.
         12    1    5    5    0    0  0.24521849297E+02  0.24499727639E+02  0.51170725820E+03  0.51287998191E+03  0.00000000000E+00 0. -1.
         11    1    3    3    0    0  0.19665142779E+02 -0.12193225562E+02 -0.43724048160E+01  0.23548046925E+02  0.00000000000E+00 0. -1.
        -12    1    3    3    0    0 -0.17607322144E+02  0.73328576658E+02 -0.14389078011E+02  0.76773325536E+02  0.00000000000E+00 0.  1.
          5    1    4    4  501    0 -0.75882692644E+02 -0.50672687286E+01  0.48945374627E+03  0.49534462992E+03  0.41800000000E+01 0. -1.
         -5    1    4    4    0  501  0.48419160611E+02 -0.25681507228E+02  0.42744471816E+03  0.43096451642E+03  0.41800000000E+01 0. -1.
</event>
<event>
11    1  0.8299058E-009  0.1345884E+03  0.7561462E-02  0.1113756E+00
         22   -1    0    0    0    0  0.00000000000E+00  0.00000000000E+00  0.19580286133E+04  0.19580286133E+04  0.00000000000E+00 0.  1.
         22   -1    0    0    0    0 -0.00000000000E+00 -0.00000000000E+00 -0.28718950123E+03  0.28718950123E+03  0.00000000000E+00 0.  1.
         24    2    1    2    0    0 -0.51421746924E+01  0.40082268307E+02 -0.25915002384E+03  0.27432394668E+03  0.80385711874E+02 0.  0.
         25    2    1    2    0    0 -0.42368393997E+02 -0.21845197488E+02  0.21571894747E+03  0.25387926483E+03  0.12509086036E+03 0.  0.
        -24    2    1    2    0    0  0.47510568690E+02 -0.18237070819E+02  0.17142701885E+04  0.17170149031E+04  0.82632035850E+02 0.  0.
        -13    1    3    3    0    0  0.25554676061E+02  0.17370449145E+02 -0.20909916919E+03  0.21136990450E+03  0.00000000000E+00 0.  1.
         14    1    3    3    0    0 -0.30696850753E+02  0.22711819162E+02 -0.50050854644E+02  0.62954042177E+02  0.00000000000E+00 0. -1.
         13    1    5    5    0    0 -0.15691990119E+02 -0.36188181022E+01  0.90683105366E+03  0.90697403175E+03  0.00000000000E+00 0. -1.
        -14    1    5    5    0    0  0.63202558808E+02 -0.14618252717E+02  0.80743913481E+03  0.81004087130E+03  0.00000000000E+00 0.  1.
          5    1    4    4  501    0  0.19681976032E+02 -0.30560882102E+01  0.17717206693E+03  0.17833713454E+03  0.41800000000E+01 0.  1.
         -5    1    4    4    0  501 -0.62050370029E+02 -0.18789109277E+02  0.38546880541E+02  0.75542130283E+02  0.41800000000E+01 0.  1.
</event>
<event>
11    1  0.8299058E-009  0.1542983E+03  0.7561462E-02  0.1092566E+00
         22   -1    0    0    0    0  0.00000000000E+00  0.00000000000E+00  0.10529390113E+04  0.10529390113E+04  0.00000000000E+00 0. -1.
         22   -1    0    0    0    0 -0.00000000000E+00 -0.00000000000E+00 -0.11389857952E+03  0.11389857952E+03  0.00000000000E+00 0. -1.
         24    2    1    2    0    0  0.33803172925E+02 -0.74099119894E+02 -0.19472226175E+02  0.11655285947E+03  0.81068288433E+02 0.  0.
         25    2    1    2    0    0  0.34934086947E+01  0.13815445606E+03  0.16435802532E+03  0.24851715878E+03  0.12509340546E+03 0.  0.
        -24    2    1    2    0    0 -0.37296581620E+02 -0.64055336163E+02  0.79415463264E+03  0.80176757258E+03  0.81581485670E+02 0.  0.
        -11    1    3    3    0    0 -0.15873737708E+01  0.11861356010E+02  0.13386475095E+02  0.17955757777E+02  0.00000000000E+00 0.  1.
         12    1    3    3    0    0  0.35390546696E+02 -0.85960475904E+02 -0.32858701269E+02  0.98597101693E+02  0.00000000000E+00 0. -1.
         11    1    5    5    0    0 -0.33192676330E+02 -0.65681267487E+02  0.79394495100E+03  0.79734833535E+03  0.00000000000E+00 0. -1.
        -12    1    5    5    0    0 -0.41039052900E+01  0.16259313239E+01  0.20968163617E+00  0.44192372292E+01  0.00000000000E+00 0.  1.
          5    1    4    4  501    0 -0.34049114271E+02  0.14386495325E+03  0.13619498625E+03  0.20105475284E+03  0.41800000000E+01 0. -1.
         -5    1    4    4    0  501  0.37542522965E+02 -0.57104971970E+01  0.28163039065E+02  0.47462405947E+02  0.41800000000E+01 0. -1.
</event>
<event>
11    1  0.8299058E-009  0.1496757E+03  0.7561462E-02  0.1097211E+00
         22   -1    0    0    0    0  0.00000000000E+00  0.00000000000E+00  0.14387905220E+04  0.14387905220E+04  0.00000000000E+00 0.  1.
         22   -1    0    0    0    0 -0.00000000000E+00 -0.00000000000E+00 -0.10515427210E+03  0.10515427210E+03  0.00000000000E+00 0.  1.
        -24    2    1    2    0    0  0.13589806951E+02  0.27489379331E+02 -0.67091144888E+02  0.10875398982E+03  0.79911574573E+02 0.  0.
         25    2    1    2    0    0 -0.36357950885E+02  0.55538799519E+02  0.33781958863E+03  0.36630032648E+03  0.12508955142E+03 0.  0.
         24    2    1    2    0    0  0.22768143934E+02 -0.83028178850E+02  0.10629078061E+04  0.10688904778E+04  0.73087497383E+02 0.  0.
        -11    1    5    5    0    0 -0.15907825154E+02 -0.41087689254E+02  0.24024048480E+03  0.24424730837E+03  0.00000000000E+00 0.  1.
         12    1    5    5    0    0  0.38675969088E+02 -0.41940489596E+02  0.82266732135E+03  0.82464316942E+03  0.00000000000E+00 0. -1.
         13    1    3    3    0    0  0.47665088426E+01  0.21922175878E+01  0.18415507461E+02  0.19148272495E+02  0.00000000000E+00 0. -1.
        -14    1    3    3    0    0  0.88232981081E+01  0.25297161743E+02 -0.85506652349E+02  0.89605717327E+02  0.00000000000E+00 0.  1.
          5    1    4    4  501    0 -0.39541653249E+02  0.68399297732E+02  0.97419487989E+02  0.12549914467E+03  0.41800000000E+01 0.  1.
         -5    1    4    4    0  501  0.31837023641E+01 -0.12860498213E+02  0.24040010064E+03  0.24080118182E+03  0.41800000000E+01 0.  1.
</event>
<event>
11    1  0.8299058E-009  0.1345145E+03  0.7561462E-02  0.1113843E+00
         22   -1    0    0    0    0  0.00000000000E+00  0.00000000000E+00  0.28242332543E+04  0.28242332543E+04  0.00000000000E+00 0.  1.
         22   -1    0    0    0    0 -0.00000000000E+00 -0.00000000000E+00 -0.45777396972E+03  0.45777396972E+03  0.00000000000E+00 0.  1.
         24    2    1    2    0    0 -0.39686512710E+02  0.29028394021E+02 -0.44143945253E+03  0.45142637287E+03  0.80618316332E+02 0.  0.
         25    2    1    2    0    0  0.90607316906E+02 -0.18243721415E+02  0.57415968677E+03  0.59485227134E+03  0.12508940625E+03 0.  0.
        -24    2    1    2    0    0 -0.50920804196E+02 -0.10784672606E+02  0.22337390503E+04  0.22357285798E+04  0.78631419009E+02 0.  0.
        -11    1    3    3    0    0 -0.26699721599E+02  0.26443730350E+02 -0.67522664028E+02  0.77275197610E+02  0.00000000000E+00 0.  1.
         12    1    3    3    0    0 -0.12986791110E+02  0.25846636712E+01 -0.37391678850E+03  0.37415117526E+03  0.00000000000E+00 0. -1.
         13    1    5    5    0    0 -0.16643878487E+02  0.21259745420E+02  0.25352424216E+03  0.25495791188E+03  0.00000000000E+00 0. -1.
        -14    1    5    5    0    0 -0.34276925709E+02 -0.32044418026E+02  0.19802148082E+04  0.19807706679E+04  0.00000000000E+00 0.  1.
          5    1    4    4  501    0  0.82723264384E+01 -0.49388836603E+02  0.93187113301E+02  0.10587256043E+03  0.41800000000E+01 0. -1.
         -5    1    4    4    0  501  0.82334990467E+02  0.31145115188E+02  0.48097257347E+03  0.48897971091E+03  0.41800000000E+01 0. -1.
</event>
<event>
11    1  0.8299058E-009  0.1633814E+03  0.7561462E-02  0.1083939E+00
         22   -1    0    0    0    0  0.00000000000E+00  0.00000000000E+00  0.13652459968E+03  0.13652459968E+03  0.00000000000E+00 0.  1.
         22   -1    0    0    0    0 -0.00000000000E+00 -0.00000000000E+00 -0.17061925438E+04  0.17061925438E+04  0.00000000000E+00 0.  1.
        -24    2    1    2    0    0 -0.43905674588E+00 -0.50269418264E+02 -0.12891101051E+04  0.12925687445E+04  0.80011805486E+02 0.  0.
         25    2    1    2    0    0  0.85571107690E+02  0.10734402352E+03 -0.35489050135E+03  0.40054143293E+03  0.12506405435E+03 0.  0.
         24    2    1    2    0    0 -0.85132050944E+02 -0.57074605260E+02  0.74332662315E+02  0.14960696605E+03  0.79698951942E+02 0.  0.
        -13    1    5    5    0    0 -0.42138721363E+02 -0.50357286237E+02  0.82387446100E+02  0.10535283285E+03  0.00000000000E+00 0.  1.
         14    1    5    5    0    0 -0.42993329581E+02 -0.67173190233E+01 -0.80547837848E+01  0.44254133199E+02  0.00000000000E+00 0. -1.
         13    1    3    3    0    0  0.16446554779E+02  0.14164049085E+02 -0.15602507583E+03  0.15752756501E+03  0.00000000000E+00 0. -1.
        -14    1    3    3    0    0 -0.16885611525E+02 -0.64433467349E+02 -0.11330850293E+04  0.11350411795E+04  0.00000000000E+00 0.  1.
          5    1    4    4  501    0  0.24931268268E+02  0.12028524832E+03 -0.25107307922E+03  0.27954475958E+03  0.41800000000E+01 0. -1.
         -5    1    4    4    0  501  0.60639839423E+02 -0.12941224793E+02 -0.10381742213E+03  0.12099667335E+03  0.41800000000E+01 0. -1.
</event>
<event>
11    1  0.8299058E-009  0.1417392E+03  0.7561462E-02  0.1105632E+00
         22   -1    0    0    0    0  0.00000000000E+00  0.00000000000E+00  0.19549712041E+03  0.19549712041E+03  0.00000000000E+00 0.  1.
         22   -1    0    0    0    0 -0.00000000000E+00 -0.00000000000E+00 -0.56640666401E+03  0.56640666401E+03  0.00000000000E+00 0.  1.
         24    2    1    2    0    0 -0.20333280678E+02 -0.75350254439E+01 -0.41825667667E+03  0.42728175434E+03  0.84621694036E+02 0.  0.
         25    2    1    2    0    0  0.64658241303E+02 -0.40756144137E+02 -0.82538432301E+02  0.16823633422E+03  0.12509644236E+03 0.  0.
        -24    2    1    2    0    0 -0.44324960624E+02  0.48291169581E+02  0.12988556537E+03  0.16638569586E+03  0.80729179993E+02 0.  0.
        -13    1    3    3    0    0 -0.16422420071E+02  0.38130499579E+02 -0.19618106147E+03  0.20052590795E+03  0.00000000000E+00 0.  1.
         14    1    3    3    0    0 -0.39108606073E+01 -0.45665525023E+02 -0.22207561520E+03  0.22675584639E+03  0.00000000000E+00 0. -1.
         11    1    5    5    0    0 -0.41419349140E+02  0.72212889401E+01  0.15490662390E+02  0.44807032020E+02  0.00000000000E+00 0. -1.
        -12    1    5    5    0    0 -0.29056114848E+01  0.41069880641E+02  0.11439490298E+03  0.12157866385E+03  0.00000000000E+00 0.  1.
          5    1    4    4  501    0 -0.35981225930E+02  0.32921590321E+01 -0.16036859794E+02  0.39750977378E+02  0.41800000000E+01 0.  1.
         -5    1    4    4    0  501  0.10063946723E+03 -0.44048303169E+02 -0.66501572508E+02  0.12848535684E+03  0.41800000000E+01 0.  1.
</event>
<event>
11    1  0.8299058E-009  0.1510777E+03  0.7561462E-02  0.1095783E+00
         22   -1    0    0    0    0  0.00000000000E+00  0.00000000000E+00  0.16980115475E+03  0.16980115475E+03  0.00000000000E+00 0. -1.
         22   -1    0    0    0    0 -0.00000000000E+00 -0.00000000000E+00 -0.85402639907E+03  0.85402639907E+03  0.00000000000E+00 0.  1.
        -24    2    1    2    0    0  0.10320139958E+02 -0.23950900584E+01 -0.74397186044E+03  0.74836018996E+03  0.80228442853E+02 0.  0.
         25    2    1    2    0    0 -0.10767625379E+02 -0.83110994423E+02  0.16549553021E+02  0.15147429445E+03  0.12508874859E+03 0.  0.
         24    2    1    2    0    0  0.44748542061E+00  0.85506084482E+02  0.43197063097E+02  0.12399306941E+03  0.78719783254E+02 0.  0.
        -13    1    5    5    0    0 -0.28072314879E+02  0.32878876907E+02 -0.94763485446E+01  0.44259197814E+02  0.00000000000E+00 0.  1.
         14    1    5    5    0    0  0.28519800300E+02  0.52627207574E+02  0.52673411641E+02  0.79733871599E+02  0.00000000000E+00 0. -1.
         11    1    3    3    0    0  0.90395952012E+01 -0.22711807689E+02 -0.71180200242E+02  0.75260623146E+02  0.00000000000E+00 0. -1.
        -12    1    3    3    0    0  0.12805447572E+01  0.20316717631E+02 -0.67279166020E+03  0.67309956681E+03  0.00000000000E+00 0.  1.
          5    1    4    4  501    0 -0.76931200575E+01 -0.46531672304E+02  0.71200728324E+02  0.85506705804E+02  0.41800000000E+01 0. -1.
         -5    1    4    4    0  501 -0.30745053216E+01 -0.36579322119E+02 -0.54651175302E+02  0.65967588645E+02  0.41800000000E+01 0. -1.
</event>
<event>
11    1  0.8299058E-009  0.1332722E+03  0.7561462E-02  0.1115313E+00
         22   -1    0    0    0    0  0.00000000000E+00  0.00000000000E+00  0.54536159350E+03  0.54536159350E+03  0.00000000000E+00 0. -1.
         22   -1    0    0    0    0 -0.00000000000E+00 -0.00000000000E+00 -0.76048888985E+03  0.76048888985E+03  0.00000000000E+00 0.  1.
         24    2    1    2    0    0 -0.41869203751E+02 -0.19769940432E+02 -0.71582431994E+03  0.72164080650E+03  0.78848689361E+02 0.  0.
         25    2    1    2    0    0  0.13025986376E+02  0.47082287372E+02  0.85337683950E+02  0.15911232647E+03  0.12509114288E+03 0.  0.
        -24    2    1    2    0    0  0.28843217374E+02 -0.27312346940E+02  0.41535933964E+03  0.42509735038E+03  0.81280260755E+02 0.  0.
        -13    1    3    3    0    0 -0.39782178806E+02 -0.21477892672E+01 -0.68435016329E+03  0.68550884805E+03  0.00000000000E+00 0.  1.
         14    1    3    3    0    0 -0.20870249442E+01 -0.17622151165E+02 -0.31474156650E+02  0.36131958453E+02  0.00000000000E+00 0. -1.
         11    1    5    5    0    0  0.37350748762E+01 -0.53816847139E+02  0.24427393288E+03  0.25015986510E+03  0.00000000000E+00 0. -1.
        -12    1    5    5    0    0  0.25108142498E+02  0.26504500199E+02  0.17108540676E+03  0.17493748528E+03  0.00000000000E+00 0.  1.
          5    1    4    4  501    0  0.47498810179E+02 -0.34637149046E+00  0.88195867793E+02  0.10026086194E+03  0.41800000000E+01 0. -1.
         -5    1    4    4    0  501 -0.34472823803E+02  0.47428658862E+02 -0.28581838431E+01  0.58851464530E+02  0.41800000000E+01 0. -1.
</event>
<event>
11    1  0.8299058E-009  0.1788543E+03  0.7561462E-02  0.1070573E+00
         22   -1    0    0    0    0  0.00000000000E+00  0.00000000000E+00  0.13319266470E+03  0.13319266470E+03  0.00000000000E+00 0. -1.
         22   -1    0    0    0    0 -0.00000000000E+00 -0.00000000000E+00 -0.21085380902E+04  0.21085380902E+04  0.00000000000E+00 0.  1.
        -24    2    1    2    0    0  0.11935316924E+03 -0.43658593258E+02 -0.17394033903E+04  0.17459584149E+04  0.81825305350E+02 0.  0.
         25    2    1    2    0    0 -0.13567972882E+03  0.16095113018E+02 -0.32421799567E+03  0.37340797961E+03  0.12509264185E+03 0.  0.
         24    2    1    2    0    0  0.16326559580E+02  0.27563480239E+02  0.88275960462E+02  0.12236436040E+03  0.78448005130E+02 0.  0.
        -13    1    5    5    0    0 -0.28462337437E+02  0.32068998554E+00  0.14737450645E+02  0.32053080132E+02  0.00000000000E+00 0.  1.
         14    1    5    5    0    0  0.44788897016E+02  0.27242790254E+02  0.73538509817E+02  0.90311280264E+02  0.00000000000E+00 0. -1.
         11    1    3    3    0    0  0.11783714255E+03 -0.61717316834E+02 -0.15364883611E+04  0.15422357483E+04  0.00000000000E+00 0. -1.
        -12    1    3    3    0    0  0.15160266843E+01  0.18058723576E+02 -0.20291502911E+03  0.20372266656E+03  0.00000000000E+00 0.  1.
          5    1    4    4  501    0 -0.10212748442E+03 -0.27480469165E+02 -0.11183321572E+03  0.15397837445E+03  0.41800000000E+01 0. -1.
         -5    1    4    4    0  501 -0.33552244396E+02  0.43575582184E+02 -0.21238477994E+03  0.21942960516E+03  0.41800000000E+01 0. -1.
</event>
<event>
11    1  0.8299058E-009  0.3268108E+03  0.7561462E-02  0.9894422E-01
         22   -1    0    0    0    0  0.00000000000E+00  0.00000000000E+00  0.76630620174E+03  0.76630620174E+03  0.00000000000E+00 0. -1.
         22   -1    0    0    0    0 -0.00000000000E+00 -0.00000000000E+00 -0.85322267342E+03  0.85322267342E+03  0.00000000000E+00 0.  1.
        -24    2    1    2    0    0  0.27599696962E+03 -0.12293150717E+03 -0.62592015827E+03  0.69977467610E+03  0.81376102642E+02 0.  0.
         25    2    1    2    0    0 -0.22597612321E+03  0.22291209095E+03 -0.21895837465E+02  0.34187989521E+03  0.12508967382E+03 0.  0.
         24    2    1    2    0    0 -0.50020846417E+02 -0.99980583786E+02  0.56089952405E+03  0.57787430386E+03  0.82657321340E+02 0.  0.
        -13    1    5    5    0    0 -0.61953941778E+02 -0.88366868127E+02  0.34861125096E+03  0.36493396468E+03  0.00000000000E+00 0.  1.
         14    1    5    5    0    0  0.11933095362E+02 -0.11613715659E+02  0.21228827310E+03  0.21294033918E+03  0.00000000000E+00 0. -1.
         13    1    3    3    0    0  0.18623848151E+03 -0.59776662097E+02 -0.32325128507E+03  0.37782193508E+03  0.00000000000E+00 0. -1.
        -14    1    3    3    0    0  0.89758488108E+02 -0.63154845070E+02 -0.30266887320E+03  0.32195274102E+03  0.00000000000E+00 0.  1.
          5    1    4    4  501    0  0.10009206819E+02  0.31224602138E+01  0.13310284242E+02  0.17451935294E+02  0.41800000000E+01 0.  1.
         -5    1    4    4    0  501 -0.23598533003E+03  0.21978963074E+03 -0.35206121706E+02  0.32442795991E+03  0.41800000000E+01 0.  1.
</event>
<event>
11    1  0.8299058E-009  0.5067248E+03  0.7561462E-02  0.9378619E-01
         22   -1    0    0    0    0  0.00000000000E+00  0.00000000000E+00  0.93688573929E+03  0.93688573929E+03  0.00000000000E+00 0. -1.
         22   -1    0    0    0    0 -0.00000000000E+00 -0.00000000000E+00 -0.43851901730E+03  0.43851901730E+03  0.00000000000E+00 0. -1.
        -24    2    1    2    0    0 -0.19565541979E+03  0.47072290660E+03 -0.12136205414E+03  0.53021814665E+03  0.80879149114E+02 0.  0.
         25    2    1    2    0    0  0.19214761592E+03 -0.38974047230E+03  0.54279797448E+03  0.70646665093E+03  0.12508855153E+03 0.  0.
         24    2    1    2    0    0  0.35078038657E+01 -0.80982434296E+02  0.76930801646E+02  0.13871995901E+03  0.82185275034E+02 0.  0.
        -11    1    5    5    0    0  0.22077374265E+02 -0.20113039954E+02 -0.95430960425E+01  0.31353078201E+02  0.00000000000E+00 0.  1.
         12    1    5    5    0    0 -0.18569570399E+02 -0.60869394342E+02  0.86473897688E+02  0.10736688080E+03  0.00000000000E+00 0. -1.
         11    1    3    3    0    0 -0.15196954278E+03  0.34620761171E+03 -0.53579690283E+02  0.38187070528E+03  0.00000000000E+00 0. -1.
        -12    1    3    3    0    0 -0.43685877005E+02  0.12451529489E+03 -0.67782363856E+02  0.14834744137E+03  0.00000000000E+00 0.  1.
          5    1    4    4  501    0  0.30988766360E+02 -0.20077091584E+02  0.10426162178E+03  0.11068582305E+03  0.41800000000E+01 0. -1.
         -5    1    4    4    0  501  0.16115884956E+03 -0.36966338072E+03  0.43853635270E+03  0.59578082789E+03  0.41800000000E+01 0. -1.
</event>
<event>
11    1  0.8299058E-009  0.1471813E+03  0.7561462E-02  0.1099794E+00
         22   -1    0    0    0    0  0.00000000000E+00  0.00000000000E+00  0.10772439632E+03  0.10772439632E+03  0.00000000000E+00 0.  1.
         22   -1    0    0    0    0 -0.00000000000E+00 -0.00000000000E+00 -0.34875763499E+04  0.34875763499E+04  0.00000000000E+00 0.  1.
        -24    2    1    2    0    0  0.47282459671E+02 -0.26966819119E+02 -0.32027777210E+04  0.32044389734E+04  0.87642246485E+02 0.  0.
         25    2    1    2    0    0  0.17885888050E+02  0.73788211776E+02 -0.22505559131E+03  0.26844671104E+03  0.12509601231E+03 0.  0.
         24    2    1    2    0    0 -0.65168347720E+02 -0.46821392657E+02  0.47981358761E+02  0.12241506182E+03  0.79019492641E+02 0.  0.
        -11    1    5    5    0    0 -0.81998458538E+02 -0.48957036759E+02  0.38409890063E+02  0.10293618560E+03  0.00000000000E+00 0.  1.
         12    1    5    5    0    0  0.16830110818E+02  0.21356441018E+01  0.95714686981E+01  0.19478876223E+02  0.00000000000E+00 0. -1.
         13    1    3    3    0    0 -0.99017712378E+01  0.70334795738E+01 -0.76888719786E+02  0.77842084625E+02  0.00000000000E+00 0. -1.
        -14    1    3    3    0    0  0.57184230908E+02 -0.34000298693E+02 -0.31258890012E+04  0.31265968887E+04  0.00000000000E+00 0.  1.
          5    1    4    4  501    0  0.65122770934E+02  0.73452260247E+02 -0.16336331880E+03  0.19063382743E+03  0.41800000000E+01 0.  1.
         -5    1    4    4    0  501 -0.47236882884E+02  0.33595152848E+00 -0.61692272506E+02  0.77812883606E+02  0.41800000000E+01 0.  1.
</event>
<event>
11    1  0.8299058E-009  0.1376476E+03  0.7561462E-02  0.1110214E+00
         22   -1    0    0    0    0  0.00000000000E+00  0.00000000000E+00  0.16546071887E+04  0.16546071887E+04  0.00000000000E+00 0.  1.
         22   -1    0    0    0    0 -0.00000000000E+00 -0.00000000000E+00 -0.50896248747E+02  0.50896248747E+02  0.00000000000E+00 0. -1.
         24    2    1    2    0    0 -0.46077076541E+02  0.27093956984E+02  0.32063602111E+02  0.10557385644E+03  0.85209066980E+02 0.  0.
         25    2    1    2    0    0  0.93185555394E+02 -0.89051036006E+01  0.48939559454E+03  0.51373007644E+03  0.12509074659E+03 0.  0.
        -24    2    1    2    0    0 -0.47108478853E+02 -0.18188853383E+02  0.10822517433E+04  0.10861995046E+04  0.77527315631E+02 0.  0.
        -13    1    3    3    0    0 -0.48874236649E+02  0.18424057614E+02  0.58018933303E+02  0.78066212465E+02  0.00000000000E+00 0.  1.
         14    1    3    3    0    0  0.27971601081E+01  0.86698993704E+01 -0.25955331192E+02  0.27507643975E+02  0.00000000000E+00 0. -1.
         13    1    5    5    0    0 -0.20549609168E+02  0.21565431826E+02  0.16261754715E+03  0.16532338288E+03  0.00000000000E+00 0. -1.
        -14    1    5    5    0    0 -0.26558869685E+02 -0.39754285209E+02  0.91963419614E+03  0.92087612167E+03  0.00000000000E+00 0.  1.
          5    1    4    4  501    0  0.12201613097E+03 -0.15966862438E+02  0.34655439647E+03  0.36777751295E+03  0.41800000000E+01 0.  1.
         -5    1    4    4    0  501 -0.28830575577E+02  0.70617588371E+01  0.14284119807E+03  0.14595256350E+03  0.41800000000E+01 0.  1.
</event>
<event>
11    1  0.8299058E-009  0.1431711E+03  0.7561462E-02  0.1104068E+00
         22   -1    0    0    0    0  0.00000000000E+00  0.00000000000E+00  0.38534468049E+03  0.38534468049E+03  0.00000000000E+00 0. -1.
         22   -1    0    0    0    0 -0.00000000000E+00 -0.00000000000E+00 -0.11298398612E+04  0.11298398612E+04  0.00000000000E+00 0. -1.
        -24    2    1    2    0    0 -0.13095335733E+02  0.35229221617E+02 -0.97807166699E+03  0.98239324560E+03  0.84022124261E+02 0.  0.
         25    2    1    2    0    0  0.53491435606E+02 -0.89520657451E+02 -0.94484536082E+02  0.18827738246E+03  0.12508302601E+03 0.  0.
         24    2    1    2    0    0 -0.40396099873E+02  0.54291435834E+02  0.32806102236E+03  0.34451391364E+03  0.80538173607E+02 0.  0.
        -13    1    5    5    0    0 -0.12396475034E+01 -0.87066012072E+01  0.66401858158E+00  0.88194416598E+01  0.00000000000E+00 0.  1.
         14    1    5    5    0    0 -0.39156452370E+02  0.62998037041E+02  0.32739700378E+03  0.33569447198E+03  0.00000000000E+00 0. -1.
         11    1    3    3    0    0 -0.38799932081E+01  0.70027747383E+01 -0.87733857143E+03  0.87737509774E+03  0.00000000000E+00 0. -1.
        -12    1    3    3    0    0 -0.92153425245E+01  0.28226446878E+02 -0.10073309555E+03  0.10501814786E+03  0.00000000000E+00 0.  1.
          5    1    4    4  501    0  0.78659326690E+02 -0.63106895481E+02 -0.16759764529E+02  0.10231388977E+03  0.41800000000E+01 0.  1.
         -5    1    4    4    0  501 -0.25167891084E+02 -0.26413761970E+02 -0.77724771553E+02  0.85963492693E+02  0.41800000000E+01 0.  1.
</event>
<event>
11    1  0.8299058E-009  0.2029629E+03  0.7561462E-02  0.1052448E+00
         22   -1    0    0    0    0  0.00000000000E+00  0.00000000000E+00  0.56586035291E+03  0.56586035291E+03  0.00000000000E+00 0.  1.
         22   -1    0    0    0    0 -0.00000000000E+00 -0.00000000000E+00 -0.52812962502E+03  0.52812962502E+03  0.00000000000E+00 0.  1.
         24    2    1    2    0    0  0.62923254202E+02  0.33123040570E+02 -0.21415841738E+03  0.23953655920E+03  0.80358345672E+02 0.  0.
         25    2    1    2    0    0 -0.35464025585E+02  0.12658025125E+03 -0.25685609187E+03  0.31448954851E+03  0.12509343338E+03 0.  0.
        -24    2    1    2    0    0 -0.27459228617E+02 -0.15970329182E+03  0.50874523715E+03  0.53996387022E+03  0.80499156303E+02 0.  0.
        -13    1    3    3    0    0  0.31740726162E+02  0.39847022409E+02 -0.19666386394E+03  0.20315495139E+03  0.00000000000E+00 0.  1.
         14    1    3    3    0    0  0.31182528040E+02 -0.67239818393E+01 -0.17494553443E+02  0.36381607811E+02  0.00000000000E+00 0. -1.
         11    1    5    5    0    0 -0.10622765794E+02 -0.10216060616E+03  0.19352562302E+03  0.21909312945E+03  0.00000000000E+00 0. -1.
        -12    1    5    5    0    0 -0.16836462823E+02 -0.57542685655E+02  0.31521961413E+03  0.32087074078E+03  0.00000000000E+00 0.  1.
          5    1    4    4  501    0 -0.19941613298E+02 -0.19230852483E+02 -0.15416349533E+02  0.31978584413E+02  0.41800000000E+01 0. -1.
         -5    1    4    4    0  501 -0.15522412287E+02  0.14581110373E+03 -0.24143974234E+03  0.28251096410E+03  0.41800000000E+01 0. -1.
</event>
<event>
11    1  0.8299058E-009  0.2028734E+03  0.7561462E-02  0.1052510E+00
         22   -1    0    0    0    0  0.00000000000E+00  0.00000000000E+00  0.10685734783E+03  0.10685734783E+03  0.00000000000E+00 0. -1.
         22   -1    0    0    0    0 -0.00000000000E+00 -0.00000000000E+00 -0.13494585964E+04  0.13494585964E+04  0.00000000000E+00 0. -1.
        -24    2    1    2    0    0  0.28249146732E+02  0.42938543705E+02 -0.81479607200E+03  0.82079910820E+03  0.84716021280E+02 0.  0.
         25    2    1    2    0    0 -0.14615031103E+03  0.66789839898E+02 -0.40602365912E+03  0.45422874596E+03  0.12509094996E+03 0.  0.
         24    2    1    2    0    0  0.11790116429E+03 -0.10972838360E+03 -0.21781517462E+02  0.18128809009E+03  0.80311483579E+02 0.  0.
        -13    1    5    5    0    0  0.37391553072E+02  0.18733357452E+01  0.12502416691E+02  0.39470850651E+02  0.00000000000E+00 0.  1.
         14    1    5    5    0    0  0.80509611221E+02 -0.11160171935E+03 -0.34283934152E+02  0.14181723944E+03  0.00000000000E+00 0. -1.
         11    1    3    3    0    0  0.14287623485E+02 -0.17032341883E+02 -0.47155667512E+03  0.47208043246E+03  0.00000000000E+00 0. -1.
        -12    1    3    3    0    0  0.13961523247E+02  0.59970885588E+02 -0.34323939687E+03  0.34871867575E+03  0.00000000000E+00 0.  1.
          5    1    4    4  501    0 -0.75525726517E+02  0.22854446732E+02 -0.62482190744E+02  0.10073707193E+03  0.41800000000E+01 0. -1.
         -5    1    4    4    0  501 -0.70624584509E+02  0.43935393166E+02 -0.34354146838E+03  0.35349167403E+03  0.41800000000E+01 0. -1.
</event>
<event>
11    1  0.8299058E-009  0.1548971E+03  0.7561462E-02  0.1091977E+00
         22   -1    0    0    0    0  0.00000000000E+00  0.00000000000E+00  0.18943407134E+03  0.18943407134E+03  0.00000000000E+00 0. -1.
         22   -1    0    0    0    0 -0.00000000000E+00 -0.00000000000E+00 -0.73314711076E+03  0.73314711076E+03  0.00000000000E+00 0.  1.
        -24    2    1    2    0    0  0.15109116174E+01 -0.68601054529E+01 -0.42852579075E+03  0.43653309183E+03  0.82930350458E+02 0.  0.
         25    2    1    2    0    0  0.58660198353E+02 -0.62498555114E+02 -0.25732431373E+03  0.29868009201E+03  0.12508759596E+03 0.  0.
         24    2    1    2    0    0 -0.60171109971E+02  0.69358660567E+02  0.14213706506E+03  0.18736799826E+03  0.80452689436E+02 0.  0.
        -13    1    5    5    0    0 -0.34891207244E+02  0.82424621690E+02  0.84512152907E+02  0.12309962873E+03  0.00000000000E+00 0.  1.
         14    1    5    5    0    0 -0.25279902727E+02 -0.13065961123E+02  0.57624912151E+02  0.64268369532E+02  0.00000000000E+00 0. -1.
         11    1    3    3    0    0  0.39970794983E+02 -0.30916008804E+01 -0.14704998743E+03  0.15241693229E+03  0.00000000000E+00 0. -1.
        -12    1    3    3    0    0 -0.38459883366E+02 -0.37685045725E+01 -0.28147580332E+03  0.28411615954E+03  0.00000000000E+00 0.  1.
          5    1    4    4  501    0 -0.63455734711E+01  0.33787526574E+02 -0.72303136679E+02  0.80169066530E+02  0.41800000000E+01 0. -1.
         -5    1    4    4    0  501  0.65005771824E+02 -0.96286081688E+02 -0.18502117705E+03  0.21851102548E+03  0.41800000000E+01 0. -1.
</event>
<event>
11    1  0.8299058E-009  0.3612833E+03  0.7561462E-02  0.9771450E-01
         22   -1    0    0    0    0  0.00000000000E+00  0.00000000000E+00  0.31219787429E+04  0.31219787429E+04  0.00000000000E+00 0.  1.
         22   -1    0    0    0    0 -0.00000000000E+00 -0.00000000000E+00 -0.33488496580E+03  0.33488496580E+03  0.00000000000E+00 0.  1.
         24    2    1    2    0    0 -0.15002370973E+02  0.21102189378E+02 -0.27445954627E+03  0.28732464799E+03  0.80975535036E+02 0.  0.
         25    2    1    2    0    0 -0.15607450930E+03 -0.31066612776E+03  0.79441717204E+03  0.87613861921E+03  0.12509013325E+03 0.  0.
        -24    2    1    2    0    0  0.17107688027E+03  0.28956393838E+03  0.22671361513E+04  0.22934004415E+04  0.81637510255E+02 0.  0.
        -11    1    3    3    0    0 -0.36895498236E+02 -0.15973637089E+02 -0.10372102966E+03  0.11124067092E+03  0.00000000000E+00 0.  1.
         12    1    3    3    0    0  0.21893127263E+02  0.37075826467E+02 -0.17073851661E+03  0.17608397708E+03  0.00000000000E+00 0. -1.
         13    1    5    5    0    0  0.42474712074E+02  0.13624585002E+03  0.11023249170E+04  0.11115247436E+04  0.00000000000E+00 0. -1.
        -14    1    5    5    0    0  0.12860216820E+03  0.15331808836E+03  0.11648112342E+04  0.11818756979E+04  0.00000000000E+00 0.  1.
          5    1    4    4  501    0 -0.47670831726E+02 -0.20119695670E+02  0.18773874845E+03  0.19478352194E+03  0.41800000000E+01 0. -1.
         -5    1    4    4    0  501 -0.10840367757E+03 -0.29054643209E+03  0.60667842359E+03  0.68135509726E+03  0.41800000000E+01 0. -1.
</event>
<event>
11    1  0.8299058E-009  0.1491498E+03  0.7561462E-02  0.1097751E+00
         22   -1    0    0    0    0  0.00000000000E+00  0.00000000000E+00  0.12187669288E+03  0.12187669288E+03  0.00000000000E+00 0.  1.
         22   -1    0    0    0    0 -0.00000000000E+00 -0.00000000000E+00 -0.23088777882E+04  0.23088777882E+04  0.00000000000E+00 0.  1.
         24    2    1    2    0    0  0.52462797618E+02 -0.62977668415E+02 -0.20271667285E+04  0.20304652126E+04  0.81642528345E+02 0.  0.
         25    2    1    2    0    0  0.12744797292E+02  0.98653068913E+02 -0.22275965362E+03  0.27416304669E+03  0.12509458433E+03 0.  0.
        -24    2    1    2    0    0 -0.65207594910E+02 -0.35675400498E+02  0.62925286755E+02  0.12612622186E+03  0.80146537622E+02 0.  0.
        -13    1    3    3    0    0  0.69453433945E+02 -0.52361530411E+02 -0.12415514980E+04  0.12445945651E+04  0.00000000000E+00 0.  1.
         14    1    3    3    0    0 -0.16990636327E+02 -0.10616138004E+02 -0.78561523050E+03  0.78587064744E+03  0.00000000000E+00 0. -1.
         11    1    5    5    0    0 -0.66668717665E+01 -0.29558923421E+02 -0.10456992972E+02  0.32055043830E+02  0.00000000000E+00 0. -1.
        -12    1    5    5    0    0 -0.58540723143E+02 -0.61164770772E+01  0.73382279727E+02  0.94071178030E+02  0.00000000000E+00 0.  1.
          5    1    4    4  501    0 -0.38028433472E+02  0.29978657463E+02 -0.16234831849E+03  0.16946778624E+03  0.41800000000E+01 0.  1.
         -5    1    4    4    0  501  0.50773230764E+02  0.68674411449E+02 -0.60411335121E+02  0.10469526045E+03  0.41800000000E+01 0.  1.
</event>
<event>
11    1  0.8299058E-009  0.1357608E+03  0.7561462E-02  0.1112387E+00
         22   -1    0    0    0    0  0.00000000000E+00  0.00000000000E+00  0.61775629122E+03  0.61775629122E+03  0.00000000000E+00 0.  1.
         22   -1    0    0    0    0 -0.00000000000E+00 -0.00000000000E+00 -0.41285109374E+03  0.41285109374E+03  0.00000000000E+00 0.  1.
        -24    2    1    2    0    0 -0.50814809144E+02 -0.21877083653E+02 -0.32573791270E+03  0.33994623885E+03  0.79984410478E+02 0.  0.
         25    2    1    2    0    0  0.26973357902E+02  0.20700359911E+02 -0.22129279940E+02  0.13150273702E+03  0.12508875999E+03 0.  0.
         24    2    1    2    0    0  0.23841451242E+02  0.11767237415E+01  0.55277239012E+03  0.55915840909E+03  0.80814674970E+02 0.  0.
        -13    1    5    5    0    0  0.25304021838E+02  0.38940030382E+02  0.31278437741E+03  0.31621303933E+03  0.00000000000E+00 0.  1.
         14    1    5    5    0    0 -0.14625705966E+01 -0.37763306641E+02  0.23998801271E+03  0.24294536976E+03  0.00000000000E+00 0. -1.
         11    1    3    3    0    0 -0.64783489555E+02 -0.18832410951E+02 -0.16065977788E+03  0.17425017776E+03  0.00000000000E+00 0. -1.
        -12    1    3    3    0    0  0.13968680412E+02 -0.30446727016E+01 -0.16507813482E+03  0.16569606109E+03  0.00000000000E+00 0.  1.
          5    1    4    4  501    0 -0.44573369187E+02  0.25781007900E+02  0.10293802257E+02  0.52677133311E+02  0.41800000000E+01 0.  1.
         -5    1    4    4    0  501  0.71546727089E+02 -0.50806479887E+01 -0.32423082197E+02  0.78825603710E+02  0.41800000000E+01 0.  1.
</event>
<event>
11    1  0.8299058E-009  0.2192785E+03  0.7561462E-02  0.1041670E+00
         22   -1    0    0    0    0  0.00000000000E+00  0.00000000000E+00  0.39220752343E+03  0.39220752343E+03  0.00000000000E+00 0.  1.
         22   -1    0    0    0    0 -0.00000000000E+00 -0.00000000000E+00 -0.13468810219E+04  0.13468810219E+04  0.00000000000E+00 0.  1.
        -24    2    1    2    0    0 -0.74749833416E+02 -0.24143406081E+02 -0.11362867605E+04  0.11419390005E+04  0.81894061194E+02 0.  0.
         25    2    1    2    0    0  0.18431555243E+03 -0.11319330893E+03 -0.89102260397E+02  0.26527881953E+03  0.12509472902E+03 0.  0.
         24    2    1    2    0    0 -0.10956571902E+03  0.13733671501E+03  0.27071552237E+03  0.33187072530E+03  0.77364489174E+02 0.  0.
        -11    1    5    5    0    0 -0.69291517992E+02  0.85741898165E+02  0.22927783814E+03  0.25440384161E+03  0.00000000000E+00 0.  1.
         12    1    5    5    0    0 -0.40274201027E+02  0.51594816844E+02  0.41437684233E+02  0.77466883687E+02  0.00000000000E+00 0. -1.
         11    1    3    3    0    0  0.17679666868E+02 -0.80675465640E+01 -0.22371847271E+03  0.22456092928E+03  0.00000000000E+00 0. -1.
        -12    1    3    3    0    0 -0.92429500284E+02 -0.16075859517E+02 -0.91256828778E+03  0.91737807127E+03  0.00000000000E+00 0.  1.
          5    1    4    4  501    0  0.64509256139E+02 -0.47419156958E+02 -0.99927307381E+02  0.12811307402E+03  0.41800000000E+01 0.  1.
         -5    1    4    4    0  501  0.11980629630E+03 -0.65774151970E+02  0.10825046984E+02  0.13716574551E+03  0.41800000000E+01 0.  1.
</event>
<event>
11    1  0.8299058E-009  0.1664382E+03  0.7561462E-02  0.1081173E+00
         22   -1    0    0    0    0  0.00000000000E+00  0.00000000000E+00  0.19794139030E+03  0.19794139030E+03  0.00000000000E+00 0. -1.
         22   -1    0    0    0    0 -0.00000000000E+00 -0.00000000000E+00 -0.53094890571E+03  0.53094890571E+03  0.00000000000E+00 0.  1.
        -24    2    1    2    0    0 -0.44960983796E+01 -0.76432058306E+02 -0.26838598894E+03  0.29082147636E+03  0.81755841463E+02 0.  0.
         25    2    1    2    0    0 -0.10559985218E+03  0.74400026969E+02 -0.18331000062E+03  0.25678152682E+03  0.12508998120E+03 0.  0.
         24    2    1    2    0    0  0.11009595056E+03  0.20320313363E+01  0.11868847416E+03  0.18128729283E+03  0.81565195773E+02 0.  0.
        -13    1    5    5    0    0  0.38528840144E+02 -0.10377064286E+02  0.97925692421E+02  0.10574306702E+03  0.00000000000E+00 0.  1.
         14    1    5    5    0    0  0.71567110420E+02  0.12409095622E+02  0.20762781735E+02  0.75544225811E+02  0.00000000000E+00 0. -1.
         13    1    3    3    0    0 -0.35348285098E+02 -0.62252660106E+02 -0.13081620794E+03  0.14912335568E+03  0.00000000000E+00 0. -1.
        -14    1    3    3    0    0  0.30852186718E+02 -0.14179398200E+02 -0.13756978100E+03  0.14169812068E+03  0.00000000000E+00 0.  1.
          5    1    4    4  501    0  0.28091445130E+02  0.75328283326E+01 -0.40232136052E+02  0.49819373375E+02  0.41800000000E+01 0. -1.
         -5    1    4    4    0  501 -0.13369129731E+03  0.66867198637E+02 -0.14307786457E+03  0.20696215345E+03  0.41800000000E+01 0. -1.
</event>
<event>
11    1  0.8299058E-009  0.1520322E+03  0.7561462E-02  0.1094820E+00
         22   -1    0    0    0    0  0.00000000000E+00  0.00000000000E+00  0.29221303955E+03  0.29221303955E+03  0.00000000000E+00 0. -1.
         22   -1    0    0    0    0 -0.00000000000E+00 -0.00000000000E+00 -0.55268428401E+03  0.55268428401E+03  0.00000000000E+00 0.  1.
         24    2    1    2    0    0 -0.57295542929E+02 -0.24658416567E+02 -0.46100313640E+03  0.47211264153E+03  0.80471347509E+02 0.  0.
         25    2    1    2    0    0  0.10295877904E+03  0.76677551118E+02  0.72546318824E+02  0.19336559861E+03  0.12508928542E+03 0.  0.
        -24    2    1    2    0    0 -0.45663236107E+02 -0.52019134551E+02  0.12798557312E+03  0.17941908341E+03  0.10497513551E+03 0.  0.
        -13    1    3    3    0    0 -0.65880437191E+02  0.94429084892E+01 -0.29170929139E+03  0.29920513233E+03  0.00000000000E+00 0.  1.
         14    1    3    3    0    0  0.85848942629E+01 -0.34101325056E+02 -0.16929384501E+03  0.17290750920E+03  0.00000000000E+00 0. -1.
         13    1    5    5    0    0 -0.53094485125E+02 -0.66706086512E+02  0.13646138362E+03  0.16090505134E+03  0.00000000000E+00 0. -1.
        -14    1    5    5    0    0  0.74312490178E+01  0.14686951961E+02 -0.84758105012E+01  0.18514032071E+02  0.00000000000E+00 0.  1.
          5    1    4    4  501    0  0.70839838315E+02  0.42811095979E+02 -0.23800666782E+02  0.86226543307E+02  0.41800000000E+01 0.  1.
         -5    1    4    4    0  501  0.32118940721E+02  0.33866455139E+02  0.96346985606E+02  0.10713905531E+03  0.41800000000E+01 0.  1.
</event>
<event>
11    1  0.8299058E-009  0.1733551E+03  0.7561462E-02  0.1075148E+00
         22   -1    0    0    0    0  0.00000000000E+00  0.00000000000E+00  0.21050836397E+03  0.21050836397E+03  0.00000000000E+00 0. -1.
         22   -1    0    0    0    0 -0.00000000000E+00 -0.00000000000E+00 -0.11628249728E+04  0.11628249728E+04  0.00000000000E+00 0. -1.
         24    2    1    2    0    0  0.80835178661E+02  0.83268281759E+02 -0.90048185163E+03  0.91150405778E+03  0.80648306749E+02 0.  0.
         25    2    1    2    0    0 -0.17896851242E+03 -0.42716217811E+02 -0.17399397013E+03  0.28244606194E+03  0.12508985796E+03 0.  0.
        -24    2    1    2    0    0  0.98133333754E+02 -0.40552063948E+02  0.12215921292E+03  0.17938321705E+03  0.77335917748E+02 0.  0.
        -11    1    3    3    0    0  0.37652113368E+02  0.83346546200E+02 -0.46660290288E+03  0.47548143748E+03  0.00000000000E+00 0.  1.
         12    1    3    3    0    0  0.43183065293E+02 -0.78264440185E-01 -0.43387894875E+03  0.43602262031E+03  0.00000000000E+00 0. -1.
         11    1    5    5    0    0  0.11064515264E+03 -0.38714551955E+02  0.11730896687E+03  0.16583895816E+03  0.00000000000E+00 0. -1.
        -12    1    5    5    0    0 -0.12511818887E+02 -0.18375119939E+01  0.48502460591E+01  0.13544258895E+02  0.00000000000E+00 0.  1.
          5    1    4    4  501    0  0.15346867145E+02  0.41000513407E+01 -0.35870878050E+02  0.39452871178E+02  0.41800000000E+01 0.  1.
         -5    1    4    4    0  501 -0.19431537956E+03 -0.46816269152E+02 -0.13812309208E+03  0.24299319076E+03  0.41800000000E+01 0.  1.
</event>
<event>
11    1  0.8299058E-009  0.1784627E+03  0.7561462E-02  0.1070893E+00
         22   -1    0    0    0    0  0.00000000000E+00  0.00000000000E+00  0.18592863696E+03  0.18592863696E+03  0.00000000000E+00 0.  1.
         22   -1    0    0    0    0 -0.00000000000E+00 -0.00000000000E+00 -0.17306121595E+04  0.17306121595E+04  0.00000000000E+00 0.  1.
         24    2    1    2    0    0 -0.12685009114E+03  0.24602185302E+02 -0.16419588686E+04  0.16491040906E+04  0.82578217993E+02 0.  0.
         25    2    1    2    0    0  0.78383191220E+02 -0.89555751148E+01  0.29229435018E+02  0.15075257937E+03  0.12509137989E+03 0.  0.
        -24    2    1    2    0    0  0.48466899915E+02 -0.15646610188E+02  0.68045911116E+02  0.11668412648E+03  0.79944246536E+02 0.  0.
        -13    1    3    3    0    0 -0.62100163818E+02  0.52508071019E+02 -0.99369152194E+03  0.99701372541E+03  0.00000000000E+00 0.  1.
         14    1    3    3    0    0 -0.64749927317E+02 -0.27905885716E+02 -0.64826734669E+03  0.65209036515E+03  0.00000000000E+00 0. -1.
         13    1    5    5    0    0  0.16189776094E+02 -0.38810183711E+01 -0.17707622897E+02  0.24304959622E+02  0.00000000000E+00 0. -1.
        -14    1    5    5    0    0  0.32277123821E+02 -0.11765591816E+02  0.85753534014E+02  0.92379166855E+02  0.00000000000E+00 0.  1.
          5    1    4    4  501    0  0.64478881019E+02 -0.14766567248E+02 -0.41575940512E+02  0.78240710855E+02  0.41800000000E+01 0.  1.
         -5    1    4    4    0  501  0.13904310202E+02  0.58109921327E+01  0.70805375529E+02  0.72511868516E+02  0.41800000000E+01 0.  1.
</event>
<event>
11    1  0.8299058E-009  0.1738009E+03  0.7561462E-02  0.1074771E+00
         22   -1    0    0    0    0  0.00000000000E+00  0.00000000000E+00  0.95373144980E+03  0.95373144980E+03  0.00000000000E+00 0. -1.
         22   -1    0    0    0    0 -0.00000000000E+00 -0.00000000000E+00 -0.88766702229E+03  0.88766702229E+03  0.00000000000E+00 0. -1.
         24    2    1    2    0    0 -0.15479660395E+01 -0.15382585256E+02 -0.67021530869E+03  0.67507395882E+03  0.79355338489E+02 0.  0.
         25    2    1    2    0    0  0.76675787804E+02 -0.79374178279E+02 -0.17714434903E+03  0.24331653668E+03  0.12507349846E+03 0.  0.
        -24    2    1    2    0    0 -0.75127821765E+02  0.94756763535E+02  0.91342408524E+03  0.92300797659E+03  0.54563096619E+02 0.  0.
        -11    1    3    3    0    0 -0.44361084138E+00 -0.35206996760E+02 -0.13581169322E+03  0.14030162303E+03  0.00000000000E+00 0.  1.
         12    1    3    3    0    0 -0.11043551981E+01  0.19824411504E+02 -0.53440361547E+03  0.53477233579E+03  0.00000000000E+00 0. -1.
         11    1    5    5    0    0 -0.69430220619E+02  0.95336061128E+02  0.90593742860E+03  0.91358204045E+03  0.00000000000E+00 0. -1.
        -12    1    5    5    0    0 -0.56976011455E+01 -0.57929759333E+00  0.74866566329E+01  0.94259361367E+01  0.00000000000E+00 0.  1.
          5    1    4    4  501    0 -0.18441024733E+02  0.32791216457E+01  0.67569495388E+01  0.20345830016E+02  0.41800000000E+01 0.  1.
         -5    1    4    4    0  501  0.95116812537E+02 -0.82653299925E+02 -0.18390129857E+03  0.22297070666E+03  0.41800000000E+01 0.  1.
</event>
<event>
11    1  0.8299058E-009  0.1420876E+03  0.7561462E-02  0.1105249E+00
         22   -1    0    0    0    0  0.00000000000E+00  0.00000000000E+00  0.15434395265E+03  0.15434395265E+03  0.00000000000E+00 0. -1.
         22   -1    0    0    0    0 -0.00000000000E+00 -0.00000000000E+00 -0.12732903241E+04  0.12732903241E+04  0.00000000000E+00 0. -1.
        -24    2    1    2    0    0  0.19203681707E+02  0.58745718121E+02 -0.11080020978E+04  0.11124310662E+04  0.77552482133E+02 0.  0.
         25    2    1    2    0    0 -0.77469579321E+02 -0.21733651872E+02 -0.99962061719E+02  0.17920704120E+03  0.12509541354E+03 0.  0.
         24    2    1    2    0    0  0.58265897614E+02 -0.37012066248E+02  0.89017788101E+02  0.13599616933E+03  0.76197005197E+02 0.  0.
        -13    1    5    5    0    0  0.21278010686E+02  0.31145473452E+01 -0.93928805723E+01  0.23466579413E+02  0.00000000000E+00 0.  1.
         14    1    5    5    0    0  0.36987886929E+02 -0.40126613594E+02  0.98410668673E+02  0.11252958992E+03  0.00000000000E+00 0. -1.
         11    1    3    3    0    0  0.31898938383E+02  0.71743196297E+02 -0.98084782054E+03  0.98398530250E+03  0.00000000000E+00 0. -1.
        -12    1    3    3    0    0 -0.12695256677E+02 -0.12997478176E+02 -0.12715427729E+03  0.12844576371E+03  0.00000000000E+00 0.  1.
          5    1    4    4  501    0 -0.42581012514E+02 -0.64717541867E+02 -0.17065824600E+02  0.79436878220E+02  0.41800000000E+01 0. -1.
         -5    1    4    4    0  501 -0.34888566807E+02  0.42983889995E+02 -0.82896237120E+02  0.99770162982E+02  0.41800000000E+01 0. -1.
</event>
<event>
11    1  0.8299058E-009  0.2971348E+03  0.7561462E-02  0.1001411E+00
         22   -1    0    0    0    0  0.00000000000E+00  0.00000000000E+00  0.10671942343E+04  0.10671942343E+04  0.00000000000E+00 0.  1.
         22   -1    0    0    0    0 -0.00000000000E+00 -0.00000000000E+00 -0.26046985057E+03  0.26046985057E+03  0.00000000000E+00 0. -1.
        -24    2    1    2    0    0 -0.33591151923E+02 -0.20826589158E+03 -0.84401668586E+02  0.24098164371E+03  0.80283646276E+02 0.  0.
         25    2    1    2    0    0  0.28784483521E+03  0.96126625679E+02  0.41998836533E+03  0.53304113687E+03  0.12509056421E+03 0.  0.
         24    2    1    2    0    0 -0.25425368329E+03  0.11213926590E+03  0.47113768698E+03  0.55364130431E+03  0.85602706226E+02 0.  0.
        -13    1    5    5    0    0 -0.86530538837E+02  0.83825319207E+02  0.20551385046E+03  0.23822292296E+03  0.00000000000E+00 0.  1.
         14    1    5    5    0    0 -0.16772314445E+03  0.28313946697E+02  0.26562383652E+03  0.31541838134E+03  0.00000000000E+00 0. -1.
         13    1    3    3    0    0 -0.37844990989E+02 -0.15435590884E+03 -0.96003536148E+02  0.18567355463E+03  0.00000000000E+00 0. -1.
        -14    1    3    3    0    0  0.42538390665E+01 -0.53909982747E+02  0.11601867562E+02  0.55308089079E+02  0.00000000000E+00 0.  1.
          5    1    4    4  501    0  0.23979955198E+03  0.36932934788E+02  0.36749719840E+03  0.44038566057E+03  0.41800000000E+01 0.  1.
         -5    1    4    4    0  501  0.48045283229E+02  0.59193690891E+02  0.52491166933E+02  0.92655476297E+02  0.41800000000E+01 0.  1.
</event>
<event>
11    1  0.8299058E-009  0.1419715E+03  0.7561462E-02  0.1105377E+00
         22   -1    0    0    0    0  0.00000000000E+00  0.00000000000E+00  0.35977685423E+03  0.35977685423E+03  0.00000000000E+00 0. -1.
         22   -1    0    0    0    0 -0.00000000000E+00 -0.00000000000E+00 -0.79375942526E+03  0.79375942526E+03  0.00000000000E+00 0. -1.
         24    2    1    2    0    0 -0.46103662082E+02 -0.10308994142E+02 -0.55412856536E+03  0.55952795617E+03  0.61491818708E+02 0.  0.
         25    2    1    2    0    0  0.85917201626E+02 -0.42903757733E+02 -0.20156321955E+03  0.25592543595E+03  0.12509036466E+03 0.  0.
        -24    2    1    2    0    0 -0.39813539545E+02  0.53212751875E+02  0.32170921388E+03  0.33808288735E+03  0.79915615071E+02 0.  0.
        -13    1    3    3    0    0 -0.42499643945E+02 -0.30340819829E+02 -0.29376099363E+03  0.29836606117E+03  0.00000000000E+00 0.  1.
         14    1    3    3    0    0 -0.36040181372E+01  0.20031825687E+02 -0.26036757174E+03  0.26116189500E+03  0.00000000000E+00 0. -1.
         13    1    5    5    0    0 -0.59371504233E+02  0.25461314352E+02  0.25715592319E+03  0.26514604065E+03  0.00000000000E+00 0. -1.
        -14    1    5    5    0    0  0.19557964688E+02  0.27751437522E+02  0.64553290694E+02  0.72936846701E+02  0.00000000000E+00 0.  1.
          5    1    4    4  501    0  0.10851635219E+03  0.49006898074E+00 -0.13851267324E+03  0.17600929495E+03  0.41800000000E+01 0. -1.
         -5    1    4    4    0  501 -0.22599150566E+02 -0.43393826714E+02 -0.63050546311E+02  0.79916141006E+02  0.41800000000E+01 0. -1.
</event>
<event>
11    1  0.8299058E-009  0.1716414E+03  0.7561462E-02  0.1076612E+00
         22   -1    0    0    0    0  0.00000000000E+00  0.00000000000E+00  0.15865383699E+03  0.15865383699E+03  0.00000000000E+00 0. -1.
         22   -1    0    0    0    0 -0.00000000000E+00 -0.00000000000E+00 -0.62376147864E+03  0.62376147864E+03  0.00000000000E+00 0. -1.
        -24    2    1    2    0    0  0.18129930662E+02  0.11892711855E+03 -0.43988779019E+03  0.46437310038E+03  0.87571425048E+02 0.  0.
         25    2    1    2    0    0 -0.95306351369E+02 -0.85694425993E+02 -0.71854200431E+02  0.19296962436E+03  0.12508962606E+03 0.  0.
         24    2    1    2    0    0  0.77176420707E+02 -0.33232692557E+02  0.46634348966E+02  0.12507259089E+03  0.80048602248E+02 0.  0.
        -11    1    5    5    0    0  0.36397299689E+02 -0.16626682874E+02 -0.20365747450E+02  0.44899595513E+02  0.00000000000E+00 0.  1.
         12    1    5    5    0    0  0.40779121018E+02 -0.16606009684E+02  0.67000096417E+02  0.80172995382E+02  0.00000000000E+00 0. -1.
         13    1    3    3    0    0  0.20875349036E+02  0.99902630064E+02 -0.43149212297E+03  0.44339797911E+03  0.00000000000E+00 0. -1.
        -14    1    3    3    0    0 -0.27454183744E+01  0.19024488487E+02 -0.83956672168E+01  0.20975121269E+02  0.00000000000E+00 0.  1.
          5    1    4    4  501    0 -0.10105803764E+02  0.12503584861E+02 -0.60113035828E+02  0.62365987369E+02  0.41800000000E+01 0.  1.
         -5    1    4    4    0  501 -0.85200547605E+02 -0.98198010855E+02 -0.11741164603E+02  0.13060363699E+03  0.41800000000E+01 0.  1.
</event>
<event>
11    1  0.8299058E-009  0.1462683E+03  0.7561462E-02  0.1100754E+00
         22   -1    0    0    0    0  0.00000000000E+00  0.00000000000E+00  0.44823062165E+03  0.44823062165E+03  0.00000000000E+00 0. -1.
         22   -1    0    0    0    0 -0.00000000000E+00 -0.00000000000E+00 -0.91087348737E+03  0.91087348737E+03  0.00000000000E+00 0.  1.
         24    2    1    2    0    0  0.18039543949E+02 -0.77173641960E+01 -0.87049533910E+03  0.87444671760E+03  0.80684221936E+02 0.  0.
         25    2    1    2    0    0 -0.47858115413E+02  0.71235614653E+02  0.21522951668E+03  0.26331878290E+03  0.12509246408E+03 0.  0.
        -24    2    1    2    0    0  0.29818571464E+02 -0.63518250457E+02  0.19262295671E+03  0.22133860852E+03  0.83447353608E+02 0.  0.
        -11    1    3    3    0    0  0.42402953780E+01 -0.11516285644E+02 -0.84590764608E+03  0.84599666113E+03  0.00000000000E+00 0.  1.
         12    1    3    3    0    0  0.13799248571E+02  0.37989214477E+01 -0.24587693021E+02  0.28450056474E+02  0.00000000000E+00 0. -1.
         11    1    5    5    0    0  0.22931162968E+02 -0.35717183371E+02  0.18749802788E+03  0.19224220629E+03  0.00000000000E+00 0. -1.
        -12    1    5    5    0    0  0.68874084962E+01 -0.27801067085E+02  0.51249288328E+01  0.29096402225E+02  0.00000000000E+00 0.  1.
          5    1    4    4  501    0  0.20221741984E+02  0.77446034149E+02  0.89493197953E+02  0.12013871955E+03  0.41800000000E+01 0.  1.
         -5    1    4    4    0  501 -0.68079857397E+02 -0.62104194958E+01  0.12573631873E+03  0.14318006335E+03  0.41800000000E+01 0.  1.
</event>
<event>
11    1  0.8299058E-009  0.7572259E+03  0.7561462E-02  0.8951978E-01
         22   -1    0    0    0    0  0.00000000000E+00  0.00000000000E+00  0.37117218406E+03  0.37117218406E+03  0.00000000000E+00 0. -1.
         22   -1    0    0    0    0 -0.00000000000E+00 -0.00000000000E+00 -0.38620292247E+03  0.38620292247E+03  0.00000000000E+00 0.  1.
         24    2    1    2    0    0 -0.11264230642E+03 -0.13491229892E+02  0.35173464441E+02  0.14690319104E+03  0.86446934347E+02 0.  0.
         25    2    1    2    0    0  0.33505618901E+03  0.64282612990E+02 -0.58849049365E+02  0.36811519862E+03  0.12510269670E+03 0.  0.
        -24    2    1    2    0    0 -0.22241388259E+03 -0.50791383098E+02  0.86448465198E+01  0.24235671686E+03  0.81328623937E+02 0.  0.
        -13    1    3    3    0    0 -0.11168382317E+03 -0.23171677843E+02  0.53629083438E+02  0.12604079340E+03  0.00000000000E+00 0.  1.
         14    1    3    3    0    0 -0.95848325227E+00  0.96804479507E+01 -0.18455618997E+02  0.20862397639E+02  0.00000000000E+00 0. -1.
         11    1    5    5    0    0 -0.26532278232E+02  0.48644280137E+01 -0.24019458473E+02  0.36118677072E+02  0.00000000000E+00 0. -1.
        -12    1    5    5    0    0 -0.19588160436E+03 -0.55655811111E+02  0.32664304993E+02  0.20623803979E+03  0.00000000000E+00 0.  1.
          5    1    4    4  501    0  0.29100048209E+03  0.16333204710E+02 -0.19995176406E+02  0.29217346497E+03  0.41800000000E+01 0.  1.
         -5    1    4    4    0  501  0.44055706920E+02  0.47949408280E+02 -0.38853872959E+02  0.75941733655E+02  0.41800000000E+01 0.  1.
</event>
<event>
11    1  0.8299058E-009  0.1810701E+03  0.7561462E-02  0.1068781E+00
         22   -1    0    0    0    0  0.00000000000E+00  0.00000000000E+00  0.13327262191E+03  0.13327262191E+03  0.00000000000E+00 0.  1.
         22   -1    0    0    0    0 -0.00000000000E+00 -0.00000000000E+00 -0.85150516624E+03  0.85150516624E+03  0.00000000000E+00 0.  1.
        -24    2    1    2    0    0  0.75473891172E+02  0.96774336987E+02 -0.58427092239E+03  0.60205414703E+03  0.77685936029E+02 0.  0.
         25    2    1    2    0    0 -0.90783385396E+02 -0.16590261262E+03 -0.14965760784E+03  0.27168099689E+03  0.12509142476E+03 0.  0.
         24    2    1    2    0    0  0.15309494224E+02  0.69128275629E+02  0.15695985905E+02  0.11104264423E+03  0.84089272561E+02 0.  0.
        -13    1    5    5    0    0  0.28700454665E+02  0.39664730312E+02  0.45653368693E+02  0.66942042109E+02  0.00000000000E+00 0.  1.
         14    1    5    5    0    0 -0.13390960441E+02  0.29463545317E+02 -0.29957382788E+02  0.44100602124E+02  0.00000000000E+00 0. -1.
         11    1    3    3    0    0  0.36601024467E+02  0.30849037511E+02 -0.90424677955E+02  0.10231285594E+03  0.00000000000E+00 0. -1.
        -12    1    3    3    0    0  0.38872866705E+02  0.65925299475E+02 -0.49384624443E+03  0.49974129109E+03  0.00000000000E+00 0.  1.
          5    1    4    4  501    0 -0.20013107493E+02 -0.15314047352E+03 -0.96543104932E+02  0.18218279999E+03  0.41800000000E+01 0.  1.
         -5    1    4    4    0  501 -0.70770277904E+02 -0.12762139091E+02 -0.53114502910E+02  0.89498196898E+02  0.41800000000E+01 0.  1.
</event>
<event>
11    1  0.8299058E-009  0.1675515E+03  0.7561462E-02  0.1080182E+00
         22   -1    0    0    0    0  0.00000000000E+00  0.00000000000E+00  0.46168938512E+03  0.46168938512E+03  0.00000000000E+00 0. -1.
         22   -1    0    0    0    0 -0.00000000000E+00 -0.00000000000E+00 -0.29761927354E+04  0.29761927354E+04  0.00000000000E+00 0. -1.
         24    2    1    2    0    0 -0.22078038647E+02 -0.13660276422E+02 -0.27444536354E+04  0.27457294378E+04  0.79563472138E+02 0.  0.
         25    2    1    2    0    0 -0.71799800158E+02  0.74732868713E+02 -0.19005068760E+03  0.25001432915E+03  0.12509071890E+03 0.  0.
        -24    2    1    2    0    0  0.93877838806E+02 -0.61072592291E+02  0.42000097271E+03  0.44213835353E+03  0.80886317959E+02 0.  0.
        -11    1    3    3    0    0 -0.40544751014E+02 -0.32894934155E+01 -0.70922003140E+03  0.71038563509E+03  0.00000000000E+00 0.  1.
         12    1    3    3    0    0  0.18466712367E+02 -0.10370783007E+02 -0.20352336040E+04  0.20353438027E+04  0.00000000000E+00 0. -1.
         11    1    5    5    0    0  0.28380128366E+02 -0.39476290843E+02  0.29845704214E+03  0.30239116261E+03  0.00000000000E+00 0. -1.
        -12    1    5    5    0    0  0.65497710440E+02 -0.21596301448E+02  0.12154393057E+03  0.13974719091E+03  0.00000000000E+00 0.  1.
          5    1    4    4  501    0 -0.29473977914E+01 -0.19070385944E+01  0.17462460121E+02  0.18295733476E+02  0.41800000000E+01 0.  1.
         -5    1    4    4    0  501 -0.68852402367E+02  0.76639907307E+02 -0.20751314772E+03  0.23171859567E+03  0.41800000000E+01 0.  1.
</event>
<event>
11    1  0.8299058E-009  0.1391678E+03  0.7561462E-02  0.1108491E+00
         22   -1    0    0    0    0  0.00000000000E+00  0.00000000000E+00  0.16739225544E+03  0.16739225544E+03  0.00000000000E+00 0. -1.
         22   -1    0    0    0    0 -0.00000000000E+00 -0.00000000000E+00 -0.70975544543E+03  0.70975544543E+03  0.00000000000E+00 0. -1.
        -24    2    1    2    0    0  0.60106713705E+02  0.18491927583E+02 -0.57182254524E+03  0.58072286215E+03  0.79393015775E+02 0.  0.
         25    2    1    2    0    0 -0.53756813689E+02  0.38005573267E+02 -0.69269937202E+02  0.15741636758E+03  0.12508944786E+03 0.  0.
         24    2    1    2    0    0 -0.63499000160E+01 -0.56497500851E+02  0.98729292457E+02  0.13900847114E+03  0.79646676179E+02 0.  0.
        -13    1    5    5    0    0 -0.16063214009E+02 -0.39484965863E+02  0.46144273901E+01  0.42876360779E+02  0.00000000000E+00 0.  1.
         14    1    5    5    0    0  0.97133139933E+01 -0.17012534988E+02  0.94114865066E+02  0.96132110358E+02  0.00000000000E+00 0. -1.
         11    1    3    3    0    0  0.62581557328E+02  0.43428412766E+02 -0.43792299863E+03  0.44449862888E+03  0.00000000000E+00 0. -1.
        -12    1    3    3    0    0 -0.24748436234E+01 -0.24936485183E+02 -0.13389954662E+03  0.13622423327E+03  0.00000000000E+00 0.  1.
          5    1    4    4  501    0 -0.58635275050E+02  0.37517664953E+02  0.16290489536E+02  0.71613707578E+02  0.41800000000E+01 0. -1.
         -5    1    4    4    0  501  0.48784613609E+01  0.48790831404E+00 -0.85560426738E+02  0.85802660002E+02  0.41800000000E+01 0. -1.
</event>
<event>
11    1  0.8299058E-009  0.1524253E+03  0.7561462E-02  0.1094426E+00
         22   -1    0    0    0    0  0.00000000000E+00  0.00000000000E+00  0.72150190174E+03  0.72150190174E+03  0.00000000000E+00 0. -1.
         22   -1    0    0    0    0 -0.00000000000E+00 -0.00000000000E+00 -0.28496765385E+03  0.28496765385E+03  0.00000000000E+00 0.  1.
        -24    2    1    2    0    0 -0.32945213000E+02  0.10291307930E+02 -0.15128086774E+03  0.17540633244E+03  0.81793535439E+02 0.  0.
         25    2    1    2    0    0 -0.44171537421E+02 -0.52948351856E+02 -0.72495667755E+02  0.16017983616E+03  0.12508918973E+03 0.  0.
         24    2    1    2    0    0  0.77116750422E+02  0.42657043925E+02  0.66031078338E+03  0.67088338698E+03  0.79420222195E+02 0.  0.
        -11    1    5    5    0    0 -0.11997544263E+02  0.21001497869E+02  0.87651918114E+02  0.90927788548E+02  0.00000000000E+00 0.  1.
         12    1    5    5    0    0  0.89114294685E+02  0.21655546056E+02  0.57265886526E+03  0.57995559844E+03  0.00000000000E+00 0. -1.
         11    1    3    3    0    0 -0.14178871921E+02 -0.14982337465E+01  0.67881193345E+01  0.15791253193E+02  0.00000000000E+00 0. -1.
        -12    1    3    3    0    0 -0.18766341079E+02  0.11789541677E+02 -0.15806898707E+03  0.15961507925E+03  0.00000000000E+00 0.  1.
          5    1    4    4  501    0 -0.18605676005E+02 -0.91610317782E+02 -0.33261039650E+02  0.99309569843E+02  0.41800000000E+01 0. -1.
         -5    1    4    4    0  501 -0.25565861416E+02  0.38661965926E+02 -0.39234628104E+02  0.60870266319E+02  0.41800000000E+01 0. -1.
</event>
<event>
11    1  0.8299058E-009  0.1319760E+03  0.7561462E-02  0.1116865E+00
         22   -1    0    0    0    0  0.00000000000E+00  0.00000000000E+00  0.26623466402E+03  0.26623466402E+03  0.00000000000E+00 0. -1.
         22   -1    0    0    0    0 -0.00000000000E+00 -0.00000000000E+00 -0.85402712122E+03  0.85402712122E+03  0.00000000000E+00 0.  1.
         24    2    1    2    0    0  0.21586441267E+02  0.34733675551E+02 -0.73121362720E+03  0.73652800740E+03  0.78279846805E+02 0.  0.
         25    2    1    2    0    0 -0.37424680324E+02 -0.50126194108E+02 -0.68388207588E+02  0.15567029927E+03  0.12507219157E+03 0.  0.
        -24    2    1    2    0    0  0.15838239056E+02  0.15392518557E+02  0.21180937759E+03  0.22806347858E+03  0.81620820771E+02 0.  0.
        -11    1    3    3    0    0 -0.18820656747E+02  0.74104987750E+01 -0.49076510014E+03  0.49118175467E+03  0.00000000000E+00 0.  1.
         12    1    3    3    0    0  0.40407098015E+02  0.27323176776E+02 -0.24044852707E+03  0.24534625273E+03  0.00000000000E+00 0. -1.
         13    1    5    5    0    0  0.29478533205E+02  0.43374058042E+01  0.20796651646E+03  0.21009014488E+03  0.00000000000E+00 0. -1.
        -14    1    5    5    0    0 -0.13640294149E+02  0.11055112753E+02  0.38428611282E+01  0.17973333695E+02  0.00000000000E+00 0.  1.
          5    1    4    4  501    0  0.88085798999E+01 -0.81390711058E+02 -0.27892826079E+02  0.86588227104E+02  0.41800000000E+01 0. -1.
         -5    1    4    4    0  501 -0.46233260224E+02  0.31264516949E+02 -0.40495381508E+02  0.69082072164E+02  0.41800000000E+01 0. -1.
</event>
<event>
11    1  0.8299058E-009  0.1353987E+03  0.7561462E-02  0.1112808E+00
         22   -1    0    0    0    0  0.00000000000E+00  0.00000000000E+00  0.58693584871E+03  0.58693584871E+03  0.00000000000E+00 0.  1.
         22   -1    0    0    0    0 -0.00000000000E+00 -0.00000000000E+00 -0.30841085649E+03  0.30841085649E+03  0.00000000000E+00 0.  1.
        -24    2    1    2    0    0  0.76831981358E+01 -0.46712788171E+02 -0.18988641537E+03  0.21108623294E+03  0.79116565153E+02 0.  0.
         25    2    1    2    0    0 -0.96051768294E+01  0.73366509133E+02 -0.53848360807E+02  0.15494516150E+03  0.12503380754E+03 0.  0.
         24    2    1    2    0    0  0.19219786936E+01 -0.26653720962E+02  0.52225976840E+03  0.52931531076E+03  0.81886004144E+02 0.  0.
        -11    1    5    5    0    0  0.25260227937E+02 -0.41807340138E+02  0.43481174925E+03  0.43754678618E+03  0.00000000000E+00 0.  1.
         12    1    5    5    0    0 -0.23338249243E+02  0.15153619177E+02  0.87448019145E+02  0.91768524584E+02  0.00000000000E+00 0. -1.
         13    1    3    3    0    0  0.30925620017E+02 -0.53771277043E+02 -0.97496705132E+02  0.11555670348E+03  0.00000000000E+00 0. -1.
        -14    1    3    3    0    0 -0.23242421881E+02  0.70584888719E+01 -0.92389710242E+02  0.95529529459E+02  0.00000000000E+00 0.  1.
          5    1    4    4  501    0 -0.36249317221E+02  0.32132506959E+02  0.30403308406E+02  0.57344089185E+02  0.41800000000E+01 0. -1.
         -5    1    4    4    0  501  0.26644140391E+02  0.41234002174E+02 -0.84251669213E+02  0.97601072318E+02  0.41800000000E+01 0. -1.
</event>
<event>
11    1  0.8299058E-009  0.1476029E+03  0.7561462E-02  0.1099354E+00
         22   -1    0    0    0    0  0.00000000000E+00  0.00000000000E+00  0.26041823874E+03  0.26041823874E+03  0.00000000000E+00 0.  1.
         22   -1    0    0    0    0 -0.00000000000E+00 -0.00000000000E+00 -0.13906159550E+04  0.13906159550E+04  0.00000000000E+00 0.  1.
        -24    2    1    2    0    0 -0.29266069737E+02  0.15600392346E+02 -0.12317695234E+04  0.12347708156E+04  0.79391014807E+02 0.  0.
         25    2    1    2    0    0  0.60603892883E+02  0.56408018150E+02 -0.10354592541E+03  0.18227559227E+03  0.12509171245E+03 0.  0.
         24    2    1    2    0    0 -0.31337823146E+02 -0.72008410496E+02  0.20511773261E+03  0.23398778581E+03  0.80682893695E+02 0.  0.
        -13    1    5    5    0    0 -0.31442113312E+02 -0.49334699592E+02  0.20294625845E+03  0.21121009183E+03  0.00000000000E+00 0.  1.
         14    1    5    5    0    0  0.10429016555E+00 -0.22673710904E+02  0.21714741541E+01  0.22777693970E+02  0.00000000000E+00 0. -1.
         13    1    3    3    0    0 -0.51459638060E+02  0.29664177350E+02 -0.90459470877E+03  0.90654268785E+03  0.00000000000E+00 0. -1.
        -14    1    3    3    0    0  0.22193568324E+02 -0.14063785004E+02 -0.32717481465E+03  0.32822812777E+03  0.00000000000E+00 0.  1.
          5    1    4    4  501    0 -0.91984400053E+01  0.67989832415E+02 -0.17756226137E+02  0.70992848774E+02  0.41800000000E+01 0.  1.
         -5    1    4    4    0  501  0.69802332889E+02 -0.11581814266E+02 -0.85789699276E+02  0.11128274350E+03  0.41800000000E+01 0.  1.
</event>
<event>
11    1  0.8299058E-009  0.1472229E+03  0.7561462E-02  0.1099751E+00
         22   -1    0    0    0    0  0.00000000000E+00  0.00000000000E+00  0.79113508509E+03  0.79113508509E+03  0.00000000000E+00 0. -1.
         22   -1    0    0    0    0 -0.00000000000E+00 -0.00000000000E+00 -0.20059519979E+03  0.20059519979E+03  0.00000000000E+00 0.  1.
         24    2    1    2    0    0 -0.29667871256E+02  0.40765961418E+02 -0.12236438696E+03  0.15454537018E+03  0.79807155400E+02 0.  0.
         25    2    1    2    0    0 -0.19437991981E+02  0.24173675077E+02  0.14790077241E+02  0.12972902242E+03  0.12509464726E+03 0.  0.
        -24    2    1    2    0    0  0.49105863237E+02 -0.64939636494E+02  0.69811419502E+03  0.70745589227E+03  0.80634161716E+02 0.  0.
        -11    1    3    3    0    0 -0.19291657369E+02 -0.51137444620E+01 -0.10087559400E+03  0.10283094812E+03  0.00000000000E+00 0.  1.
         12    1    3    3    0    0 -0.10376213887E+02  0.45879705880E+02 -0.21488792961E+02  0.51714422062E+02  0.00000000000E+00 0. -1.
         13    1    5    5    0    0  0.36649125559E+02 -0.63864398373E+02  0.68634984798E+03  0.69028829745E+03  0.00000000000E+00 0. -1.
        -14    1    5    5    0    0  0.12456737679E+02 -0.10752381213E+01  0.11764347041E+02  0.17167594820E+02  0.00000000000E+00 0.  1.
          5    1    4    4  501    0  0.43238603747E+02  0.45111842204E+02  0.55198439021E+01  0.62869676615E+02  0.41800000000E+01 0. -1.
         -5    1    4    4    0  501 -0.62676595728E+02 -0.20938167128E+02  0.92702333392E+01  0.66859345801E+02  0.41800000000E+01 0. -1.
</event>
<event>
11    1  0.8299058E-009  0.1648106E+03  0.7561462E-02  0.1082638E+00
         22   -1    0    0    0    0  0.00000000000E+00  0.00000000000E+00  0.26228179899E+03  0.26228179899E+03  0.00000000000E+00 0.  1.
         22   -1    0    0    0    0 -0.00000000000E+00 -0.00000000000E+00 -0.22142513283E+04  0.22142513283E+04  0.00000000000E+00 0. -1.
        -24    2    1    2    0    0  0.68255154137E+02  0.83210954707E+02 -0.20320524827E+04  0.20364703790E+04  0.79946750616E+02 0.  0.
         25    2    1    2    0    0 -0.42786820918E+02 -0.96014028947E+02 -0.13095172732E+03  0.20939653925E+03  0.12509656256E+03 0.  0.
         24    2    1    2    0    0 -0.25468333220E+02  0.12803074240E+02  0.21103468069E+03  0.23066620908E+03  0.88649358995E+02 0.  0.
        -13    1    5    5    0    0 -0.34716079717E+02  0.46373016208E+02  0.12163236281E+03  0.13472228660E+03  0.00000000000E+00 0.  1.
         14    1    5    5    0    0  0.92477464976E+01 -0.33569941968E+02  0.89402317883E+02  0.95943922485E+02  0.00000000000E+00 0. -1.
         11    1    3    3    0    0  0.85064160297E+02  0.68062391782E+02 -0.15082534239E+04  0.15121827903E+04  0.00000000000E+00 0. -1.
        -12    1    3    3    0    0 -0.16809006159E+02  0.15148562925E+02 -0.52379905878E+03  0.52428758866E+03  0.00000000000E+00 0.  1.
          5    1    4    4  501    0 -0.82954203004E+02 -0.87329156170E+02 -0.10957113630E+03  0.16288366285E+03  0.41800000000E+01 0.  1.
         -5    1    4    4    0  501  0.40167382086E+02 -0.86848727774E+01 -0.21380591023E+02  0.46512876403E+02  0.41800000000E+01 0.  1.
</event>
<event>
11    1  0.8299058E-009  0.1473853E+03  0.7561462E-02  0.1099581E+00
         22   -1    0    0    0    0  0.00000000000E+00  0.00000000000E+00  0.13402713798E+03  0.13402713798E+03  0.00000000000E+00 0. -1.
         22   -1    0    0    0    0 -0.00000000000E+00 -0.00000000000E+00 -0.34266316149E+03  0.34266316149E+03  0.00000000000E+00 0. -1.
         24    2    1    2    0    0  0.79460575866E+02  0.17395357688E+01 -0.18015285723E+03  0.21253198243E+03  0.79986139342E+02 0.  0.
         25    2    1    2    0    0 -0.65732254777E+02 -0.63006745234E+02 -0.44605514668E+02  0.16101974224E+03  0.12508847345E+03 0.  0.
        -24    2    1    2    0    0 -0.13728321088E+02  0.61267209465E+02  0.16122348390E+02  0.10313857480E+03  0.80221554071E+02 0.  0.
        -13    1    3    3    0    0 -0.13043232779E+02 -0.13766708397E+02 -0.29957862785E+02  0.35455912399E+02  0.00000000000E+00 0.  1.
         14    1    3    3    0    0  0.92503808645E+02  0.15506244166E+02 -0.15019499445E+03  0.17707607004E+03  0.00000000000E+00 0. -1.
         11    1    5    5    0    0 -0.43578535784E+02  0.56314994551E+02  0.15496294124E+02  0.72873880945E+02  0.00000000000E+00 0. -1.
        -12    1    5    5    0    0  0.29850214695E+02  0.49522149140E+01  0.62605426562E+00  0.30264693850E+02  0.00000000000E+00 0.  1.
          5    1    4    4  501    0 -0.22885197203E+01 -0.86651377749E+02 -0.27909978858E+02  0.91159957812E+02  0.41800000000E+01 0.  1.
         -5    1    4    4    0  501 -0.63443735057E+02  0.23644632515E+02 -0.16695535809E+02  0.69859784431E+02  0.41800000000E+01 0.  1.
</event>
<event>
11    1  0.8299058E-009  0.2016211E+03  0.7561462E-02  0.1053383E+00
         22   -1    0    0    0    0  0.00000000000E+00  0.00000000000E+00  0.18502101766E+04  0.18502101766E+04  0.00000000000E+00 0.  1.
         22   -1    0    0    0    0 -0.00000000000E+00 -0.00000000000E+00 -0.65010232147E+03  0.65010232147E+03  0.00000000000E+00 0.  1.
        -24    2    1    2    0    0  0.19971666639E+02  0.53326481824E+02 -0.60418677621E+03  0.61213103835E+03  0.80125941083E+02 0.  0.
         25    2    1    2    0    0  0.13456812461E+03 -0.38686789125E+01  0.19177004974E+03  0.26560635171E+03  0.12508970883E+03 0.  0.
         24    2    1    2    0    0 -0.15453979125E+03 -0.49457802912E+02  0.16125245816E+04  0.16225751080E+04  0.78650070044E+02 0.  0.
        -13    1    5    5    0    0 -0.15912980891E+03 -0.44217610824E+02  0.15974916275E+04  0.16060065358E+04  0.00000000000E+00 0.  1.
         14    1    5    5    0    0  0.45900176613E+01 -0.52401920880E+01  0.15032954142E+02  0.16568572222E+02  0.00000000000E+00 0. -1.
         13    1    3    3    0    0 -0.24668203920E+02  0.89317710093E+01 -0.80352093651E+02  0.84526657168E+02  0.00000000000E+00 0. -1.
        -14    1    3    3    0    0  0.44639870559E+02  0.44394710815E+02 -0.52383468256E+03  0.52760438118E+03  0.00000000000E+00 0.  1.
          5    1    4    4  501    0  0.15853150502E+03 -0.10049716658E+01  0.15775353436E+03  0.22368928910E+03  0.41800000000E+01 0.  1.
         -5    1    4    4    0  501 -0.23963380412E+02 -0.28637072467E+01  0.34016515376E+02  0.41917062615E+02  0.41800000000E+01 0.  1.
</event>
<event>
11    1  0.8299058E-009  0.1905338E+03  0.7561462E-02  0.1061427E+00
         22   -1    0    0    0    0  0.00000000000E+00  0.00000000000E+00  0.15682938222E+04  0.15682938222E+04  0.00000000000E+00 0.  1.
         22   -1    0    0    0    0 -0.00000000000E+00 -0.00000000000E+00 -0.36124447167E+03  0.36124447167E+03  0.00000000000E+00 0. -1.
        -24    2    1    2    0    0  0.42195778264E+02  0.28756056624E+02 -0.19467526993E+03  0.21708712084E+03  0.81369298978E+02 0.  0.
         25    2    1    2    0    0  0.14663389114E+02  0.10460422482E+03 -0.10638190625E+03  0.19524887790E+03  0.12509178834E+03 0.  0.
         24    2    1    2    0    0 -0.56859167377E+02 -0.13336028145E+03  0.15081065267E+04  0.15172022951E+04  0.80619965736E+02 0.  0.
        -11    1    5    5    0    0 -0.96790618821E+01 -0.89298287947E+02  0.11353129662E+04  0.11388605708E+04  0.00000000000E+00 0.  1.
         12    1    5    5    0    0 -0.47180105495E+02 -0.44061993499E+02  0.37279356051E+03  0.37834172434E+03  0.00000000000E+00 0. -1.
         13    1    3    3    0    0 -0.20108973983E+02  0.25001595583E+02 -0.85596529802E+02  0.91412343425E+02  0.00000000000E+00 0. -1.
        -14    1    3    3    0    0  0.62304752246E+02  0.37544610412E+01 -0.10907874013E+03  0.12567477741E+03  0.00000000000E+00 0.  1.
          5    1    4    4  501    0 -0.44555770196E+02  0.91697654889E+02 -0.76603031416E+02  0.12758986399E+03  0.41800000000E+01 0.  1.
         -5    1    4    4    0  501  0.59219159309E+02  0.12906569933E+02 -0.29778874837E+02  0.67659013910E+02  0.41800000000E+01 0.  1.
</event>
<event>
11    1  0.8299058E-009  0.3469484E+03  0.7561462E-02  0.9820721E-01
         22   -1    0    0    0    0  0.00000000000E+00  0.00000000000E+00  0.62980832869E+03  0.62980832869E+03  0.00000000000E+00 0. -1.
         22   -1    0    0    0    0 -0.00000000000E+00 -0.00000000000E+00 -0.14689795690E+04  0.14689795690E+04  0.00000000000E+00 0.  1.
        -24    2    1    2    0    0  0.85428729257E+02 -0.72977523157E+01 -0.96528704437E+03  0.97218701054E+03  0.77570487162E+02 0.  0.
         25    2    1    2    0    0 -0.32282222561E+03 -0.20378367304E+03 -0.36067511885E+03  0.53988324485E+03  0.12508158125E+03 0.  0.
         24    2    1    2    0    0  0.23739349635E+03  0.21108142535E+03  0.48679092293E+03  0.58671764228E+03  0.79756810848E+02 0.  0.
        -11    1    5    5    0    0  0.81164666881E+02  0.27348207172E+02  0.11118130178E+03  0.14034567842E+03  0.00000000000E+00 0.  1.
         12    1    5    5    0    0  0.15622882947E+03  0.18373321818E+03  0.37560962115E+03  0.44637196386E+03  0.00000000000E+00 0. -1.
         11    1    3    3    0    0 -0.82577665342E+01 -0.31328811935E+00 -0.31904494045E+03  0.31915194325E+03  0.00000000000E+00 0. -1.
        -12    1    3    3    0    0  0.93686495791E+02 -0.69844641964E+01 -0.64624210392E+03  0.65303506729E+03  0.00000000000E+00 0.  1.
          5    1    4    4  501    0 -0.27926108634E+03 -0.20150825065E+03 -0.35678837910E+03  0.49589086429E+03  0.41800000000E+01 0. -1.
         -5    1    4    4    0  501 -0.43561139270E+02 -0.22754223871E+01 -0.38867397511E+01  0.43992380561E+02  0.41800000000E+01 0. -1.
</event>
<event>
11    1  0.8299058E-009  0.1362779E+03  0.7561462E-02  0.1111787E+00
         22   -1    0    0    0    0  0.00000000000E+00  0.00000000000E+00  0.95322319883E+03  0.95322319883E+03  0.00000000000E+00 0.  1.
         22   -1    0    0    0    0 -0.00000000000E+00 -0.00000000000E+00 -0.14661753485E+03  0.14661753485E+03  0.00000000000E+00 0.  1.
        -24    2    1    2    0    0  0.42848606673E+02 -0.33732574298E+02 -0.11062415321E+03  0.14696629678E+03  0.79921833388E+02 0.  0.
         25    2    1    2    0    0 -0.45114081484E+02  0.17957414186E+02  0.28390248582E+03  0.31401459937E+03  0.12508716198E+03 0.  0.
         24    2    1    2    0    0  0.22654748109E+01  0.15775160112E+02  0.63332733138E+03  0.63885983753E+03  0.82367440737E+02 0.  0.
        -13    1    5    5    0    0  0.51535453223E+01 -0.33628301733E+02  0.28864861804E+03  0.29064660054E+03  0.00000000000E+00 0.  1.
         14    1    5    5    0    0 -0.28880705114E+01  0.49403461845E+02  0.34467871333E+03  0.34821323700E+03  0.00000000000E+00 0. -1.
         11    1    3    3    0    0 -0.91076709650E+01  0.16571971992E+02 -0.46933742126E+02  0.50599961226E+02  0.00000000000E+00 0. -1.
        -12    1    3    3    0    0  0.51956277638E+02 -0.50304546290E+02 -0.63690411084E+02  0.96366335551E+02  0.00000000000E+00 0.  1.
          5    1    4    4  501    0 -0.73790918228E+02 -0.25234632637E+02  0.20635137471E+03  0.22063600917E+03  0.41800000000E+01 0. -1.
         -5    1    4    4    0  501  0.28676836744E+02  0.43192046822E+02  0.77551111105E+02  0.93378590201E+02  0.41800000000E+01 0. -1.
</event>
<event>
11    1  0.8299058E-009  0.2099378E+03  0.7561462E-02  0.1047710E+00
         22   -1    0    0    0    0  0.00000000000E+00  0.00000000000E+00  0.40016789637E+04  0.40016789637E+04  0.00000000000E+00 0. -1.
         22   -1    0    0    0    0 -0.00000000000E+00 -0.00000000000E+00 -0.10132750794E+03  0.10132750794E+03  0.00000000000E+00 0.  1.
        -24    2    1    2    0    0 -0.15207694049E+03 -0.68854373000E+02  0.16299643468E+02  0.18659155404E+03  0.81746003888E+02 0.  0.
         25    2    1    2    0    0  0.16599031102E+03  0.72826354848E+02  0.75584984995E+03  0.78728195921E+03  0.12508967308E+03 0.  0.
         24    2    1    2    0    0 -0.13913370527E+02 -0.39719818477E+01  0.31282019623E+04  0.31291329584E+04  0.74941280811E+02 0.  0.
        -11    1    5    5    0    0  0.54100354697E+01 -0.26086483901E+02  0.46090806224E+03  0.46167739274E+03  0.00000000000E+00 0.  1.
         12    1    5    5    0    0 -0.19323405996E+02  0.22114502053E+02  0.26672939001E+04  0.26674555656E+04  0.00000000000E+00 0. -1.
         11    1    3    3    0    0 -0.64345874698E+02 -0.41803539978E+02  0.46766790435E+02  0.89861338923E+02  0.00000000000E+00 0. -1.
        -12    1    3    3    0    0 -0.87731065796E+02 -0.27050833022E+02 -0.30467146967E+02  0.96730215120E+02  0.00000000000E+00 0.  1.
          5    1    4    4  501    0  0.23758410580E+02 -0.24399603939E+02  0.49611858657E+02  0.60320905705E+02  0.41800000000E+01 0. -1.
         -5    1    4    4    0  501  0.14223190044E+03  0.97225958786E+02  0.70623799129E+03  0.72696105350E+03  0.41800000000E+01 0. -1.
</event>
<event>
11    1  0.8299058E-009  0.1348848E+03  0.7561462E-02  0.1113409E+00
         22   -1    0    0    0    0  0.00000000000E+00  0.00000000000E+00  0.38163778361E+03  0.38163778361E+03  0.00000000000E+00 0. -1.
         22   -1    0    0    0    0 -0.00000000000E+00 -0.00000000000E+00 -0.83674318972E+03  0.83674318972E+03  0.00000000000E+00 0. -1.
        -24    2    1    2    0    0 -0.11063323076E+02  0.49268905341E+02 -0.64593783418E+03  0.65285010623E+03  0.80173271347E+02 0.  0.
         25    2    1    2    0    0  0.33918710191E+02 -0.42973456033E+02 -0.15715787088E+03  0.20819598586E+03  0.12509906205E+03 0.  0.
         24    2    1    2    0    0 -0.22855387115E+02 -0.62954493085E+01  0.34799029894E+03  0.35733488124E+03  0.77646428060E+02 0.  0.
        -11    1    5    5    0    0 -0.34671440781E+01  0.66304258595E+01 -0.10165855605E+01  0.75509655899E+01  0.00000000000E+00 0.  1.
         12    1    5    5    0    0 -0.19388243037E+02 -0.12925875168E+02  0.34900688450E+03  0.34978391565E+03  0.00000000000E+00 0. -1.
         11    1    3    3    0    0 -0.45897632033E+02  0.29802323246E+02 -0.35713355835E+03  0.36130201992E+03  0.00000000000E+00 0. -1.
        -12    1    3    3    0    0  0.34834308957E+02  0.19466582095E+02 -0.28880427582E+03  0.29154808631E+03  0.00000000000E+00 0.  1.
          5    1    4    4  501    0 -0.74623316981E+01 -0.61700408959E+02 -0.14948228626E+03  0.16194151156E+03  0.41800000000E+01 0.  1.
         -5    1    4    4    0  501  0.41381041890E+02  0.18726952926E+02 -0.76755846127E+01  0.46254474301E+02  0.41800000000E+01 0.  1.
</event>
<event>
11    1  0.8299058E-009  0.1682439E+03  0.7561462E-02  0.1079570E+00
         22   -1    0    0    0    0  0.00000000000E+00  0.00000000000E+00  0.14400234908E+04  0.14400234908E+04  0.00000000000E+00 0. -1.
         22   -1    0    0    0    0 -0.00000000000E+00 -0.00000000000E+00 -0.32513410442E+03  0.32513410442E+03  0.00000000000E+00 0. -1.
        -24    2    1    2    0    0 -0.11085453223E+03 -0.29645456592E+02 -0.22919565172E+03  0.27009201133E+03  0.85155548288E+02 0.  0.
         25    2    1    2    0    0  0.96597058258E+02  0.36406518337E+02  0.14234979285E+02  0.16280862718E+03  0.12509032020E+03 0.  0.
         24    2    1    2    0    0  0.14257473968E+02 -0.67610617442E+01  0.13298500589E+04  0.13322569567E+04  0.78475679301E+02 0.  0.
        -13    1    5    5    0    0  0.85926254701E+01  0.16171868191E+02  0.75668816473E+02  0.77853274303E+02  0.00000000000E+00 0.  1.
         14    1    5    5    0    0  0.56648484977E+01 -0.22932929936E+02  0.12541812424E+04  0.12544036824E+04  0.00000000000E+00 0. -1.
         11    1    3    3    0    0 -0.72026881502E+02 -0.16023335992E+01 -0.20320551456E+03  0.21559898024E+03  0.00000000000E+00 0. -1.
        -12    1    3    3    0    0 -0.38827650723E+02 -0.28043122993E+02 -0.25990137162E+02  0.54493031092E+02  0.00000000000E+00 0.  1.
          5    1    4    4  501    0 -0.17904047380E+02 -0.94740951431E+01  0.32012505723E+02  0.38112810367E+02  0.41800000000E+01 0. -1.
         -5    1    4    4    0  501  0.11450110564E+03  0.45880613480E+02 -0.17777526438E+02  0.12469581682E+03  0.41800000000E+01 0. -1.
</event>
<event>
11    1  0.8299058E-009  0.1510572E+03  0.7561462E-02  0.1095803E+00
         22   -1    0    0    0    0  0.00000000000E+00  0.00000000000E+00  0.17793263924E+03  0.17793263924E+03  0.00000000000E+00 0.  1.
         22   -1    0    0    0    0 -0.00000000000E+00 -0.00000000000E+00 -0.72041384408E+03  0.72041384408E+03  0.00000000000E+00 0.  1.
        -24    2    1    2    0    0 -0.73919356425E+02  0.41311350170E+02 -0.38159985954E+03  0.39834238590E+03  0.76730076868E+02 0.  0.
         25    2    1    2    0    0  0.55717982762E+02 -0.69586367494E+02 -0.29899624227E+03  0.33614600320E+03  0.12509447002E+03 0.  0.
         24    2    1    2    0    0  0.18201373663E+02  0.28275017324E+02  0.13811489698E+03  0.16385809423E+03  0.81504500908E+02 0.  0.
        -11    1    5    5    0    0  0.42422403867E+02  0.21215530619E+02  0.12830077254E+03  0.13678759931E+03  0.00000000000E+00 0.  1.
         12    1    5    5    0    0 -0.24221030204E+02  0.70594867045E+01  0.98141244354E+01  0.27070494918E+02  0.00000000000E+00 0. -1.
         13    1    3    3    0    0 -0.46222394653E+02  0.16479551257E+02 -0.75862945167E+02  0.90350826374E+02  0.00000000000E+00 0. -1.
        -14    1    3    3    0    0 -0.27696961772E+02  0.24831798913E+02 -0.30573691438E+03  0.30799155953E+03  0.00000000000E+00 0.  1.
          5    1    4    4  501    0 -0.31867720358E+02  0.11498063233E+02 -0.63205988357E+02  0.71834716002E+02  0.41800000000E+01 0. -1.
         -5    1    4    4    0  501  0.87585703120E+02 -0.81084430727E+02 -0.23579025392E+03  0.26431128720E+03  0.41800000000E+01 0. -1.
</event>
<event>
11    1  0.8299058E-009  0.1386690E+03  0.7561462E-02  0.1109054E+00
         22   -1    0    0    0    0  0.00000000000E+00  0.00000000000E+00  0.13124980522E+03  0.13124980522E+03  0.00000000000E+00 0.  1.
         22   -1    0    0    0    0 -0.00000000000E+00 -0.00000000000E+00 -0.14278710765E+04  0.14278710765E+04  0.00000000000E+00 0.  1.
         24    2    1    2    0    0  0.55134894789E+02 -0.24220382599E+02 -0.12707172435E+04  0.12745823986E+04  0.78813032722E+02 0.  0.
         25    2    1    2    0    0 -0.57377130251E+02  0.12883332568E+01 -0.10164342513E+03  0.17109019788E+03  0.12508667019E+03 0.  0.
        -24    2    1    2    0    0  0.22422354626E+01  0.22932049343E+02  0.75739397396E+02  0.11344828527E+03  0.81259772374E+02 0.  0.
        -13    1    3    3    0    0  0.49348721677E+02  0.11733202485E+02 -0.10170971025E+04  0.10183611738E+04  0.00000000000E+00 0.  1.
         14    1    3    3    0    0  0.57861731119E+01 -0.35953585084E+02 -0.25362014103E+03  0.25622122476E+03  0.00000000000E+00 0. -1.
         13    1    5    5    0    0  0.18453331144E+02 -0.19598832668E+02  0.22598729520E+01  0.27013824202E+02  0.00000000000E+00 0. -1.
        -14    1    5    5    0    0 -0.16211095681E+02  0.42530882011E+02  0.73479524444E+02  0.86434461069E+02  0.00000000000E+00 0.  1.
          5    1    4    4  501    0  0.39676244703E+02  0.24993211586E+01 -0.23160908567E+02  0.46199037713E+02  0.41800000000E+01 0. -1.
         -5    1    4    4    0  501 -0.97053374954E+02 -0.12109879018E+01 -0.78482516567E+02  0.12489116017E+03  0.41800000000E+01 0. -1.
</event>
<event>
11    1  0.8299058E-009  0.3033227E+03  0.7561462E-02  0.9987947E-01
         22   -1    0    0    0    0  0.00000000000E+00  0.00000000000E+00  0.12305001350E+04  0.12305001350E+04  0.00000000000E+00 0. -1.
         22   -1    0    0    0    0 -0.00000000000E+00 -0.00000000000E+00 -0.13057307121E+03  0.13057307121E+03  0.00000000000E+00 0.  1.
         24    2    1    2    0    0 -0.97988947437E-01 -0.15163690918E+02  0.42258597717E+02  0.91270954708E+02  0.79464778162E+02 0.  0.
         25    2    1    2    0    0  0.13731728952E+03 -0.22806819257E+03  0.18041314815E+03  0.34506161566E+03  0.12508987214E+03 0.  0.
        -24    2    1    2    0    0 -0.13721930057E+03  0.24323188349E+03  0.87725531792E+03  0.92474063585E+03  0.87048636781E+02 0.  0.
        -13    1    3    3    0    0 -0.38875576699E+02 -0.61062620023E+01  0.11635396627E+02  0.41036317501E+02  0.00000000000E+00 0.  1.
         14    1    3    3    0    0  0.38777587752E+02 -0.90574289153E+01  0.30623201090E+02  0.50234637208E+02  0.00000000000E+00 0. -1.
         13    1    5    5    0    0 -0.14549331179E+03  0.22165914943E+03  0.84047294164E+03  0.88130349366E+03  0.00000000000E+00 0. -1.
        -14    1    5    5    0    0  0.82740112183E+01  0.21572734066E+02  0.36782376281E+02  0.43437142189E+02  0.00000000000E+00 0.  1.
          5    1    4    4  501    0  0.11258921613E+03 -0.74514941908E+02  0.57617594419E+02  0.14685389931E+03  0.41800000000E+01 0. -1.
         -5    1    4    4    0  501  0.24728073387E+02 -0.15355325067E+03  0.12279555373E+03  0.19820771635E+03  0.41800000000E+01 0. -1.
</event>
<event>
11    1  0.8299058E-009  0.1583029E+03  0.7561462E-02  0.1088684E+00
         22   -1    0    0    0    0  0.00000000000E+00  0.00000000000E+00  0.29416228395E+03  0.29416228395E+03  0.00000000000E+00 0.  1.
         22   -1    0    0    0    0 -0.00000000000E+00 -0.00000000000E+00 -0.10010262539E+04  0.10010262539E+04  0.00000000000E+00 0. -1.
         24    2    1    2    0    0 -0.65816543987E+02  0.68658153078E+02 -0.89144682091E+03  0.90001855028E+03  0.79436747700E+02 0.  0.
         25    2    1    2    0    0  0.14220514767E+03 -0.69105829777E+02  0.28239054764E+02  0.20357122773E+03  0.12508349535E+03 0.  0.
        -24    2    1    2    0    0 -0.76388603685E+02  0.44767669853E+00  0.15634379625E+03  0.19159875981E+03  0.80195280079E+02 0.  0.
        -13    1    3    3    0    0 -0.42862273850E+02  0.53702314583E+02 -0.29314727877E+03  0.30109207921E+03  0.00000000000E+00 0.  1.
         14    1    3    3    0    0 -0.22954270137E+02  0.14955838495E+02 -0.59829954215E+03  0.59892647107E+03  0.00000000000E+00 0. -1.
         11    1    5    5    0    0 -0.35165236116E+02 -0.31538035324E+02  0.32853007179E+02  0.57537479819E+02  0.00000000000E+00 0. -1.
        -12    1    5    5    0    0 -0.41223367570E+02  0.31985712023E+02  0.12349078907E+03  0.13406127999E+03  0.00000000000E+00 0.  1.
          5    1    4    4  501    0  0.16063651596E+03 -0.38734878200E+02  0.28862681486E+02  0.16779454053E+03  0.41800000000E+01 0. -1.
         -5    1    4    4    0  501 -0.18431368286E+02 -0.30370951577E+02 -0.62362672223E+00  0.35776687198E+02  0.41800000000E+01 0. -1.
</event>
<event>
11    1  0.8299058E-009  0.1643620E+03  0.7561462E-02  0.1083045E+00
         22   -1    0    0    0    0  0.00000000000E+00  0.00000000000E+00  0.20359833002E+04  0.20359833002E+04  0.00000000000E+00 0. -1.
         22   -1    0    0    0    0 -0.00000000000E+00 -0.00000000000E+00 -0.67279836706E+02  0.67279836706E+02  0.00000000000E+00 0. -1.
        -24    2    1    2    0    0 -0.51442024233E+02  0.18272904465E+02  0.39428121824E+02  0.10624818554E+03  0.82182231926E+02 0.  0.
         25    2    1    2    0    0  0.98991340898E+02 -0.11030543381E+03  0.26883605154E+03  0.33149211022E+03  0.12509045620E+03 0.  0.
         24    2    1    2    0    0 -0.47549316664E+02  0.92032529343E+02  0.16604392901E+04  0.16655228411E+04  0.78592456380E+02 0.  0.
        -13    1    5    5    0    0 -0.56485399855E+02  0.24733549844E+02  0.86177500378E+03  0.86397830182E+03  0.00000000000E+00 0.  1.
         14    1    5    5    0    0  0.89360831907E+01  0.67298979499E+02  0.79866428631E+03  0.80154453928E+03  0.00000000000E+00 0. -1.
         11    1    3    3    0    0 -0.28306996447E+02  0.11539906012E+02 -0.23698716961E+02  0.38679253667E+02  0.00000000000E+00 0. -1.
        -12    1    3    3    0    0 -0.23135027786E+02  0.67329984529E+01  0.63126838786E+02  0.67568931869E+02  0.00000000000E+00 0.  1.
          5    1    4    4  501    0  0.49414597438E+02 -0.12942008842E+03  0.21449527011E+03  0.25537630083E+03  0.41800000000E+01 0. -1.
         -5    1    4    4    0  501  0.49576743459E+02  0.19114654614E+02  0.54340781432E+02  0.76115809394E+02  0.41800000000E+01 0. -1.
</event>
<event>
11    1  0.8299058E-009  0.1347217E+03  0.7561462E-02  0.1113600E+00
         22   -1    0    0    0    0  0.00000000000E+00  0.00000000000E+00  0.79171716094E+03  0.79171716094E+03  0.00000000000E+00 0.  1.
         22   -1    0    0    0    0 -0.00000000000E+00 -0.00000000000E+00 -0.10306676913E+03  0.10306676913E+03  0.00000000000E+00 0.  1.
        -24    2    1    2    0    0 -0.23570111677E+02 -0.45150670850E+02 -0.56973645551E+02  0.11431330642E+03  0.85014131152E+02 0.  0.
         25    2    1    2    0    0  0.54107514956E+02  0.10729799853E+02  0.43878511082E+03  0.45959050681E+03  0.12509320001E+03 0.  0.
         24    2    1    2    0    0 -0.30537403279E+02  0.34420870997E+02  0.30683892655E+03  0.32088011684E+03  0.81832714594E+02 0.  0.
        -13    1    5    5    0    0  0.23177609932E+02  0.14448489416E+02  0.17508345718E+03  0.17720095210E+03  0.00000000000E+00 0.  1.
         14    1    5    5    0    0 -0.53715013211E+02  0.19972381581E+02  0.13175546937E+03  0.14367916473E+03  0.00000000000E+00 0. -1.
         13    1    3    3    0    0  0.18857831300E+01 -0.25238376346E+02  0.19068519080E+02  0.31688171902E+02  0.00000000000E+00 0. -1.
        -14    1    3    3    0    0 -0.25455894807E+02 -0.19912294504E+02 -0.76042164632E+02  0.82625134521E+02  0.00000000000E+00 0.  1.
          5    1    4    4  501    0 -0.28603986872E+02  0.81990041933E+01  0.26893773222E+03  0.27061113788E+03  0.41800000000E+01 0.  1.
         -5    1    4    4    0  501  0.82711501827E+02  0.25307956594E+01  0.16984737860E+03  0.18897936893E+03  0.41800000000E+01 0.  1.
</event>
<event>
11    1  0.8299058E-009  0.1473682E+03  0.7561462E-02  0.1099599E+00
         22   -1    0    0    0    0  0.00000000000E+00  0.00000000000E+00  0.65932157184E+03  0.65932157184E+03  0.00000000000E+00 0. -1.
         22   -1    0    0    0    0 -0.00000000000E+00 -0.00000000000E+00 -0.10497603533E+04  0.10497603533E+04  0.00000000000E+00 0. -1.
        -24    2    1    2    0    0 -0.33302303622E+02  0.11272173678E+02 -0.79551157132E+03  0.80041563845E+03  0.81181456305E+02 0.  0.
         25    2    1    2    0    0 -0.32251714939E+02  0.31794312220E+02 -0.23004059133E+03  0.26573966662E+03  0.12509134802E+03 0.  0.
         24    2    1    2    0    0  0.65554018560E+02 -0.43066485898E+02  0.63511338123E+03  0.64292662002E+03  0.61915911996E+02 0.  0.
        -11    1    5    5    0    0  0.19280083086E+02  0.15124588876E+02  0.20165863887E+03  0.20314202279E+03  0.00000000000E+00 0.  1.
         12    1    5    5    0    0  0.46273935474E+02 -0.58191074774E+02  0.43345474236E+03  0.43978459723E+03  0.00000000000E+00 0. -1.
         11    1    3    3    0    0 -0.19153200151E+02  0.13535604956E+01 -0.76583058080E+03  0.76607124714E+03  0.00000000000E+00 0. -1.
        -12    1    3    3    0    0 -0.14149103471E+02  0.99186131824E+01 -0.29680990520E+02  0.34344391314E+02  0.00000000000E+00 0.  1.
          5    1    4    4  501    0 -0.23654061751E+02 -0.44215507410E+02 -0.13235295512E+03  0.14159556088E+03  0.41800000000E+01 0. -1.
         -5    1    4    4    0  501 -0.85976531878E+01  0.76009819630E+02 -0.97687636208E+02  0.12414410573E+03  0.41800000000E+01 0. -1.
</event>
<event>
11    1  0.8299058E-009  0.1288481E+03  0.7561462E-02  0.1120692E+00
         22   -1    0    0    0    0  0.00000000000E+00  0.00000000000E+00  0.50626640286E+03  0.50626640286E+03  0.00000000000E+00 0.  1.
         22   -1    0    0    0    0 -0.00000000000E+00 -0.00000000000E+00 -0.55444249316E+03  0.55444249316E+03  0.00000000000E+00 0. -1.
         24    2    1    2    0    0 -0.40970215870E+01  0.46320186404E+01 -0.47526922739E+03  0.48258183834E+03  0.83463471066E+02 0.  0.
         25    2    1    2    0    0  0.15708225255E+01  0.26449410849E+02 -0.14009717780E+02  0.12862644010E+03  0.12508577091E+03 0.  0.
        -24    2    1    2    0    0  0.25261990616E+01 -0.31081429489E+02  0.44110285487E+03  0.44950061758E+03  0.80663744569E+02 0.  0.
        -11    1    3    3    0    0 -0.61258722870E+01 -0.13616090608E+02 -0.12567009546E+02  0.19515480103E+02  0.00000000000E+00 0.  1.
         12    1    3    3    0    0  0.20288507000E+01  0.18248109249E+02 -0.46270221785E+03  0.46306635823E+03  0.00000000000E+00 0. -1.
         13    1    5    5    0    0 -0.11847373496E+02 -0.23376451244E+02  0.38532899677E+02  0.46600462327E+02  0.00000000000E+00 0. -1.
        -14    1    5    5    0    0  0.14373572557E+02 -0.77049782451E+01  0.40256995519E+03  0.40290015525E+03  0.00000000000E+00 0.  1.
          5    1    4    4  501    0  0.10665047991E+02  0.68645741429E+02  0.21214469885E+02  0.72756492476E+02  0.41800000000E+01 0. -1.
         -5    1    4    4    0  501 -0.90942254655E+01 -0.42196330580E+02 -0.35224187666E+02  0.55869947628E+02  0.41800000000E+01 0. -1.
</event>
<event>
11    1  0.8299058E-009  0.1299086E+03  0.7561462E-02  0.1119381E+00
         22   -1    0    0    0    0  0.00000000000E+00  0.00000000000E+00  0.19657457921E+03  0.19657457921E+03  0.00000000000E+00 0. -1.
         22   -1    0    0    0    0 -0.00000000000E+00 -0.00000000000E+00 -0.12625282826E+04  0.12625282826E+04  0.00000000000E+00 0. -1.
         24    2    1    2    0    0 -0.26897799219E+02 -0.31615779666E+02 -0.10191454844E+04  0.10258301187E+04  0.10930171518E+03 0.  0.
         25    2    1    2    0    0  0.22205074432E+02 -0.22252600428E+02 -0.20834808833E+03  0.24504027165E+03  0.12509022848E+03 0.  0.
        -24    2    1    2    0    0  0.46927247866E+01  0.53868380093E+02  0.16153986939E+03  0.18823247141E+03  0.80078148391E+02 0.  0.
        -11    1    3    3    0    0 -0.53954086448E+02  0.67556628308E+01 -0.28222362696E+03  0.28741408810E+03  0.00000000000E+00 0.  1.
         12    1    3    3    0    0  0.27056287229E+02 -0.38371442497E+02 -0.73692185745E+03  0.73841603061E+03  0.00000000000E+00 0. -1.
         13    1    5    5    0    0 -0.12479914716E+02  0.61285800258E+02  0.15697727365E+03  0.16897799273E+03  0.00000000000E+00 0. -1.
        -14    1    5    5    0    0  0.17172639502E+02 -0.74174201642E+01  0.45625957452E+01  0.19254478682E+02  0.00000000000E+00 0.  1.
          5    1    4    4  501    0 -0.72981299440E+01 -0.63562577569E+02 -0.16876016111E+03  0.18052957748E+03  0.41800000000E+01 0. -1.
         -5    1    4    4    0  501  0.29503204376E+02  0.41309977142E+02 -0.39587927227E+02  0.64510694168E+02  0.41800000000E+01 0. -1.
</event>
<event>
11    1  0.8299058E-009  0.1800457E+03  0.7561462E-02  0.1069606E+00
         22   -1    0    0    0    0  0.00000000000E+00  0.00000000000E+00  0.12880294273E+04  0.12880294273E+04  0.00000000000E+00 0. -1.
         22   -1    0    0    0    0 -0.00000000000E+00 -0.00000000000E+00 -0.15578061142E+04  0.15578061142E+04  0.00000000000E+00 0.  1.
        -24    2    1    2    0    0 -0.10651646821E+03  0.69151046728E+02 -0.14180203711E+04  0.14261100070E+04  0.82947899757E+02 0.  0.
         25    2    1    2    0    0  0.14893561886E+03 -0.11882352364E+03 -0.36601654924E+02  0.23083876656E+03  0.12508399845E+03 0.  0.
         24    2    1    2    0    0 -0.42419150652E+02  0.49672476908E+02  0.11848453391E+04  0.11888867679E+04  0.72983080352E+02 0.  0.
        -13    1    5    5    0    0 -0.24757375935E+02 -0.12089568971E+02  0.57679184142E+03  0.57744949014E+03  0.00000000000E+00 0.  1.
         14    1    5    5    0    0 -0.17661774717E+02  0.61762045879E+02  0.60805349767E+03  0.61143727775E+03  0.00000000000E+00 0. -1.
         13    1    3    3    0    0 -0.14756633439E+02  0.31120120882E+02 -0.13768275714E+03  0.14192519779E+03  0.00000000000E+00 0. -1.
        -14    1    3    3    0    0 -0.91759834770E+02  0.38030925845E+02 -0.12803376140E+04  0.12841848093E+04  0.00000000000E+00 0.  1.
          5    1    4    4  501    0  0.55121106296E+02 -0.41007110449E+02 -0.76132428080E+02  0.10263302817E+03  0.41800000000E+01 0. -1.
         -5    1    4    4    0  501  0.93814512565E+02 -0.77816413186E+02  0.39530773156E+02  0.12820573839E+03  0.41800000000E+01 0. -1.
</event>
<event>
11    1  0.8299058E-009  0.1351890E+03  0.7561462E-02  0.1113053E+00
         22   -1    0    0    0    0  0.00000000000E+00  0.00000000000E+00  0.16640523327E+04  0.16640523327E+04  0.00000000000E+00 0.  1.
         22   -1    0    0    0    0 -0.00000000000E+00 -0.00000000000E+00 -0.42926152602E+02  0.42926152602E+02  0.00000000000E+00 0.  1.
        -24    2    1    2    0    0 -0.49163939794E+02 -0.12642635776E+02  0.55591407205E+02  0.10904554318E+03  0.78889775739E+02 0.  0.
         25    2    1    2    0    0 -0.32897902323E+01  0.32241963565E+02  0.27724476140E+03  0.30587962031E+03  0.12508923799E+03 0.  0.
         24    2    1    2    0    0  0.52453730026E+02 -0.19599327788E+02  0.12882900115E+04  0.12920533218E+04  0.81087022815E+02 0.  0.
        -13    1    5    5    0    0  0.44615157957E+02 -0.41450615394E+02  0.11653849702E+04  0.11669750617E+04  0.00000000000E+00 0.  1.
         14    1    5    5    0    0  0.78385720699E+01  0.21851287606E+02  0.12290504131E+03  0.12507826015E+03  0.00000000000E+00 0. -1.
         13    1    3    3    0    0 -0.52460887270E+02  0.10615382498E+02  0.64594779370E+02  0.83888715335E+02  0.00000000000E+00 0. -1.
        -14    1    3    3    0    0  0.32969474754E+01 -0.23258018274E+02 -0.90033721650E+01  0.25156827842E+02  0.00000000000E+00 0.  1.
          5    1    4    4  501    0 -0.10379311756E+02  0.56593301307E+00  0.27259277608E+03  0.27282291759E+03  0.41800000000E+01 0. -1.
         -5    1    4    4    0  501  0.70895215236E+01  0.31676030551E+02  0.46519853203E+01  0.33056702714E+02  0.41800000000E+01 0. -1.
</event>
<event>
11    1  0.8299058E-009  0.1332960E+03  0.7561462E-02  0.1115284E+00
         22   -1    0    0    0    0  0.00000000000E+00  0.00000000000E+00  0.32444929451E+03  0.32444929451E+03  0.00000000000E+00 0.  1.
         22   -1    0    0    0    0 -0.00000000000E+00 -0.00000000000E+00 -0.18343972153E+04  0.18343972153E+04  0.00000000000E+00 0.  1.
         24    2    1    2    0    0  0.18847069994E+02  0.15976172372E+02 -0.17746297063E+04  0.17766440142E+04  0.80888246909E+02 0.  0.
         25    2    1    2    0    0 -0.56069424379E+02 -0.36083386784E+02  0.51400942340E+02  0.15078335388E+03  0.12509105397E+03 0.  0.
        -24    2    1    2    0    0  0.37222354386E+02  0.20107214412E+02  0.21328084316E+03  0.23141914176E+03  0.79223086121E+02 0.  0.
        -13    1    3    3    0    0  0.76292635633E+00  0.57294351322E+01 -0.16678551995E+04  0.16678652149E+04  0.00000000000E+00 0.  1.
         14    1    3    3    0    0  0.18084143637E+02  0.10246737240E+02 -0.10677450682E+03  0.10877879932E+03  0.00000000000E+00 0. -1.
         11    1    5    5    0    0 -0.19380493215E+02  0.23039149390E+02  0.47702211533E+02  0.56408393941E+02  0.00000000000E+00 0. -1.
        -12    1    5    5    0    0  0.56602847601E+02 -0.29319349776E+01  0.16557863163E+03  0.17501074781E+03  0.00000000000E+00 0.  1.
          5    1    4    4  501    0 -0.28140835260E+02 -0.29591253551E+02 -0.38530272995E+02  0.56299229417E+02  0.41800000000E+01 0.  1.
         -5    1    4    4    0  501 -0.27928589120E+02 -0.64921332336E+01  0.89931215336E+02  0.94484124465E+02  0.41800000000E+01 0.  1.
</event>
<event>
11    1  0.8299058E-009  0.1368598E+03  0.7561462E-02  0.1111116E+00
         22   -1    0    0    0    0  0.00000000000E+00  0.00000000000E+00  0.19653112266E+04  0.19653112266E+04  0.00000000000E+00 0. -1.
         22   -1    0    0    0    0 -0.00000000000E+00 -0.00000000000E+00 -0.82113650540E+02  0.82113650540E+02  0.00000000000E+00 0. -1.
        -24    2    1    2    0    0  0.16518514286E+02 -0.13973086280E+02 -0.48221888177E+02  0.96230164031E+02  0.80416326176E+02 0.  0.
         25    2    1    2    0    0  0.95186166269E+01 -0.38861593921E+02  0.51843276916E+03  0.53481043259E+03  0.12509530419E+03 0.  0.
         24    2    1    2    0    0 -0.26037130912E+02  0.52834680201E+02  0.14129866951E+04  0.14163842805E+04  0.78381081877E+02 0.  0.
        -11    1    5    5    0    0 -0.20146888341E+01  0.27848136924E+02  0.13162050608E+03  0.13454937875E+03  0.00000000000E+00 0.  1.
         12    1    5    5    0    0 -0.24022442078E+02  0.24986543277E+02  0.12813661890E+04  0.12818349018E+04  0.00000000000E+00 0. -1.
         11    1    3    3    0    0 -0.30759104156E+02 -0.10804420633E+02 -0.33179797023E+02  0.46516200663E+02  0.00000000000E+00 0. -1.
        -12    1    3    3    0    0  0.47277618441E+02 -0.31686656465E+01 -0.15042091154E+02  0.49713963368E+02  0.00000000000E+00 0.  1.
          5    1    4    4  501    0 -0.22748054462E+02 -0.74493063634E+02  0.24388400897E+03  0.25605384735E+03  0.41800000000E+01 0. -1.
         -5    1    4    4    0  501  0.32266671089E+02  0.35631469713E+02  0.27454876019E+03  0.27875658525E+03  0.41800000000E+01 0. -1.
</event>
<event>
11    1  0.8299058E-009  0.1528518E+03  0.7561462E-02  0.1094000E+00
         22   -1    0    0    0    0  0.00000000000E+00  0.00000000000E+00  0.15397290767E+03  0.15397290767E+03  0.00000000000E+00 0. -1.
         22   -1    0    0    0    0 -0.00000000000E+00 -0.00000000000E+00 -0.11047051547E+04  0.11047051547E+04  0.00000000000E+00 0.  1.
         24    2    1    2    0    0 -0.85061453575E+02 -0.14492490855E+02 -0.92248883658E+03  0.92982031587E+03  0.78324217249E+02 0.  0.
         25    2    1    2    0    0  0.10424460862E+03  0.15207315191E+02 -0.12125860553E+03  0.20359033174E+03  0.12508866016E+03 0.  0.
        -24    2    1    2    0    0 -0.19183155040E+02 -0.71482433581E+00  0.93015195084E+02  0.12526741475E+03  0.81679827811E+02 0.  0.
        -13    1    3    3    0    0 -0.34209098153E+02 -0.73463023164E+01 -0.72240229347E+03  0.72324913008E+03  0.00000000000E+00 0.  1.
         14    1    3    3    0    0 -0.50852355422E+02 -0.71461885387E+01 -0.20008654312E+03  0.20657118579E+03  0.00000000000E+00 0. -1.
         11    1    5    5    0    0  0.86932509091E+01 -0.33420418469E+02  0.66054331415E+02  0.74536378237E+02  0.00000000000E+00 0. -1.
        -12    1    5    5    0    0 -0.27876405949E+02  0.32705594133E+02  0.26960863670E+02  0.50731036517E+02  0.00000000000E+00 0.  1.
          5    1    4    4  501    0  0.86751189372E+02 -0.17238664116E+02 -0.13430277795E+02  0.89558836301E+02  0.41800000000E+01 0. -1.
         -5    1    4    4    0  501  0.17493419244E+02  0.32445979307E+02 -0.10782832773E+03  0.11403149544E+03  0.41800000000E+01 0. -1.
</event>
<event>
11    1  0.8299058E-009  0.1309357E+03  0.7561462E-02  0.1118125E+00
         22   -1    0    0    0    0  0.00000000000E+00  0.00000000000E+00  0.21119917461E+03  0.21119917461E+03  0.00000000000E+00 0. -1.
         22   -1    0    0    0    0 -0.00000000000E+00 -0.00000000000E+00 -0.72939380345E+03  0.72939380345E+03  0.00000000000E+00 0.  1.
         24    2    1    2    0    0  0.53741014832E+01  0.54399534790E+01 -0.45649003839E+03  0.46348748507E+03  0.79868764875E+02 0.  0.
         25    2    1    2    0    0  0.99821170093E+01  0.30385227016E+02 -0.24269653929E+03  0.27490210929E+03  0.12508658932E+03 0.  0.
        -24    2    1    2    0    0 -0.15356218493E+02 -0.35825180495E+02  0.18099194884E+03  0.20220338371E+03  0.81294931171E+02 0.  0.
        -13    1    3    3    0    0  0.45049420954E+01  0.40992280089E+02 -0.31058684209E+03  0.31331270005E+03  0.00000000000E+00 0.  1.
         14    1    3    3    0    0  0.86915938783E+00 -0.35552326610E+02 -0.14590319630E+03  0.15017478502E+03  0.00000000000E+00 0. -1.
         13    1    5    5    0    0 -0.57554745241E+01 -0.29160907640E+02  0.18680188364E+03  0.18915186426E+03  0.00000000000E+00 0. -1.
        -14    1    5    5    0    0 -0.96007439684E+01 -0.66642728553E+01 -0.58099348026E+01  0.13051519446E+02  0.00000000000E+00 0.  1.
          5    1    4    4  501    0  0.19291206971E+02 -0.21953261505E+02 -0.21060922214E+03  0.21266831736E+03  0.41800000000E+01 0.  1.
         -5    1    4    4    0  501 -0.93090899615E+01  0.52338488521E+02 -0.32087317149E+02  0.62233791934E+02  0.41800000000E+01 0.  1.
</event>
<event>
11    1  0.8299058E-009  0.1390608E+03  0.7561462E-02  0.1108612E+00
         22   -1    0    0    0    0  0.00000000000E+00  0.00000000000E+00  0.40476588450E+03  0.40476588450E+03  0.00000000000E+00 0.  1.
         22   -1    0    0    0    0 -0.00000000000E+00 -0.00000000000E+00 -0.45060381575E+03  0.45060381575E+03  0.00000000000E+00 0.  1.
         24    2    1    2    0    0  0.24522228631E+02 -0.15788294572E+02 -0.31399941072E+03  0.32656285197E+03  0.84835466685E+02 0.  0.
         25    2    1    2    0    0  0.99989679254E+00 -0.40992645552E+02 -0.86847491359E+02  0.15770566691E+03  0.12508874385E+03 0.  0.
        -24    2    1    2    0    0 -0.25522125424E+02  0.56780940124E+02  0.35500897084E+03  0.37110118137E+03  0.88370036756E+02 0.  0.
        -13    1    3    3    0    0  0.24624212785E+02  0.17786836659E+02 -0.26744274880E+03  0.26916230661E+03  0.00000000000E+00 0.  1.
         14    1    3    3    0    0 -0.10198415325E+00 -0.33575131231E+02 -0.46556661924E+02  0.57400545359E+02  0.00000000000E+00 0. -1.
         13    1    5    5    0    0 -0.60666874509E+01 -0.24075284592E+02  0.88654554716E+02  0.92065488087E+02  0.00000000000E+00 0. -1.
        -14    1    5    5    0    0 -0.19455437973E+02  0.80856224716E+02  0.26635441612E+03  0.27903569329E+03  0.00000000000E+00 0.  1.
          5    1    4    4  501    0 -0.31999266418E+02 -0.62701392214E+02 -0.10032346845E+02  0.71228772417E+02  0.41800000000E+01 0.  1.
         -5    1    4    4    0  501  0.32999163210E+02  0.21708746661E+02 -0.76815144515E+02  0.86476894492E+02  0.41800000000E+01 0.  1.
</event>
<event>
11    1  0.8299058E-009  0.1536310E+03  0.7561462E-02  0.1093225E+00
         22   -1    0    0    0    0  0.00000000000E+00  0.00000000000E+00  0.27205485796E+03  0.27205485796E+03  0.00000000000E+00 0.  1.
         22   -1    0    0    0    0 -0.00000000000E+00 -0.00000000000E+00 -0.91349689970E+03  0.91349689970E+03  0.00000000000E+00 0.  1.
         24    2    1    2    0    0  0.31482953629E+02 -0.74293707063E+02 -0.39185903416E+03  0.40808773429E+03  0.80444794407E+02 0.  0.
         25    2    1    2    0    0  0.50783550729E+02  0.36159072816E+02 -0.49088958425E+03  0.51039927665E+03  0.12509352544E+03 0.  0.
        -24    2    1    2    0    0 -0.82266504358E+02  0.38134634247E+02  0.24130657667E+03  0.26706474672E+03  0.69804634016E+02 0.  0.
        -13    1    3    3    0    0  0.34559416664E+02 -0.25804823600E+02 -0.30930233394E+03  0.31229501434E+03  0.00000000000E+00 0.  1.
         14    1    3    3    0    0 -0.30764630348E+01 -0.48488883463E+02 -0.82556700224E+02  0.95792719954E+02  0.00000000000E+00 0. -1.
         11    1    5    5    0    0 -0.32661630116E+02  0.49942014858E+02  0.95623647550E+02  0.11271587688E+03  0.00000000000E+00 0. -1.
        -12    1    5    5    0    0 -0.49604874242E+02 -0.11807380610E+02  0.14568292912E+03  0.15434886984E+03  0.00000000000E+00 0.  1.
          5    1    4    4  501    0 -0.15661653699E+02 -0.21138583193E+00 -0.35006780180E+03  0.35044296303E+03  0.41800000000E+01 0.  1.
         -5    1    4    4    0  501  0.66445204428E+02  0.36370458648E+02 -0.14082178245E+03  0.15995631361E+03  0.41800000000E+01 0.  1.
</event>
<event>
11    1  0.8299058E-009  0.2372960E+03  0.7561462E-02  0.1030893E+00
         22   -1    0    0    0    0  0.00000000000E+00  0.00000000000E+00  0.37946473788E+03  0.37946473788E+03  0.00000000000E+00 0. -1.
         22   -1    0    0    0    0 -0.00000000000E+00 -0.00000000000E+00 -0.19557541067E+04  0.19557541067E+04  0.00000000000E+00 0. -1.
         24    2    1    2    0    0  0.27097979458E+02  0.34359505135E+02 -0.17029196566E+04  0.17054264702E+04  0.81419974861E+02 0.  0.
         25    2    1    2    0    0  0.70761894058E+02  0.14936766035E+03 -0.16322079625E+03  0.26382666331E+03  0.12508211836E+03 0.  0.
        -24    2    1    2    0    0 -0.97859873517E+02 -0.18372716549E+03  0.28985108406E+03  0.36596571106E+03  0.81148164231E+02 0.  0.
        -11    1    3    3    0    0  0.80070774028E+01 -0.23501669452E+02 -0.25001034676E+03  0.25124015452E+03  0.00000000000E+00 0.  1.
         12    1    3    3    0    0  0.19090902056E+02  0.57861174587E+02 -0.14529093099E+04  0.14541863157E+04  0.00000000000E+00 0. -1.
         11    1    5    5    0    0 -0.38428422334E+02 -0.71533039794E+02  0.18231864704E+03  0.19958408875E+03  0.00000000000E+00 0. -1.
        -12    1    5    5    0    0 -0.59431451183E+02 -0.11219412570E+03  0.10753243702E+03  0.16638162231E+03  0.00000000000E+00 0.  1.
          5    1    4    4  501    0  0.32805863603E+02  0.14110539636E+03 -0.17082807370E+03  0.22402379501E+03  0.41800000000E+01 0. -1.
         -5    1    4    4    0  501  0.37956030455E+02  0.82622639915E+01  0.76072774496E+01  0.39802868293E+02  0.41800000000E+01 0. -1.
</event>
<event>
11    1  0.8299058E-009  0.1321516E+03  0.7561462E-02  0.1116653E+00
         22   -1    0    0    0    0  0.00000000000E+00  0.00000000000E+00  0.16302088120E+03  0.16302088120E+03  0.00000000000E+00 0. -1.
         22   -1    0    0    0    0 -0.00000000000E+00 -0.00000000000E+00 -0.58036040079E+03  0.58036040079E+03  0.00000000000E+00 0.  1.
        -24    2    1    2    0    0  0.92076148857E+01  0.48188125668E+02 -0.34612182196E+03  0.35888969092E+03  0.81207259427E+02 0.  0.
         25    2    1    2    0    0  0.65805370844E+01 -0.24768508966E+02 -0.19574248069E+03  0.23370868976E+03  0.12509136828E+03 0.  0.
         24    2    1    2    0    0 -0.15788151970E+02 -0.23419616702E+02  0.12452478306E+03  0.15078290131E+03  0.80195495773E+02 0.  0.
        -13    1    5    5    0    0  0.32333346855E+02 -0.73014025946E+01  0.61514507756E+02  0.69876966614E+02  0.00000000000E+00 0.  1.
         14    1    5    5    0    0 -0.48121498825E+02 -0.16118214107E+02  0.63010275309E+02  0.80905934700E+02  0.00000000000E+00 0. -1.
         11    1    3    3    0    0  0.14505974031E+02 -0.11823113809E+02 -0.20563254377E+02  0.27803897808E+02  0.00000000000E+00 0. -1.
        -12    1    3    3    0    0 -0.52983591452E+01  0.60011239477E+02 -0.32555856758E+03  0.33108579311E+03  0.00000000000E+00 0.  1.
          5    1    4    4  501    0  0.54411288664E+02 -0.15713420433E+02 -0.16840286163E+03  0.17772027493E+03  0.41800000000E+01 0. -1.
         -5    1    4    4    0  501 -0.47830751580E+02 -0.90550885328E+01 -0.27339619062E+02  0.55988414833E+02  0.41800000000E+01 0. -1.
</event>
<event>
11    1  0.8299058E-009  0.1299143E+03  0.7561462E-02  0.1119374E+00
         22   -1    0    0    0    0  0.00000000000E+00  0.00000000000E+00  0.56395861541E+02  0.56395861541E+02  0.00000000000E+00 0.  1.
         22   -1    0    0    0    0 -0.00000000000E+00 -0.00000000000E+00 -0.30315340829E+04  0.30315340829E+04  0.00000000000E+00 0. -1.
         24    2    1    2    0    0  0.17674960091E+01 -0.26909411083E+02 -0.28129391282E+04  0.28140845785E+04  0.75619014480E+02 0.  0.
         25    2    1    2    0    0 -0.26773451630E+02 -0.54713830565E+01 -0.12254139901E+03  0.17723714050E+03  0.12509938352E+03 0.  0.
        -24    2    1    2    0    0  0.25005955621E+02  0.32380794140E+02 -0.39657694150E+02  0.96608225471E+02  0.78016683329E+02 0.  0.
        -13    1    3    3    0    0  0.26279343423E+02 -0.41344643666E+02 -0.13945450512E+04  0.13954052757E+04  0.00000000000E+00 0.  1.
         14    1    3    3    0    0 -0.24511847414E+02  0.14435232582E+02 -0.14183940770E+04  0.14186793029E+04  0.00000000000E+00 0. -1.
         13    1    5    5    0    0 -0.94384224183E+01  0.35067659650E+02 -0.48838033002E+02  0.60860315794E+02  0.00000000000E+00 0. -1.
        -14    1    5    5    0    0  0.34444378039E+02 -0.26868655104E+01  0.91803388521E+01  0.35747909676E+02  0.00000000000E+00 0.  1.
          5    1    4    4  501    0 -0.47636545324E+02 -0.55564866120E+02 -0.76431929908E+02  0.10590565191E+03  0.41800000000E+01 0. -1.
         -5    1    4    4    0  501  0.20863093694E+02  0.50093483064E+02 -0.46109469098E+02  0.71331488590E+02  0.41800000000E+01 0. -1.
</event>
<event>
11    1  0.8299058E-009  0.1414695E+03  0.7561462E-02  0.1105928E+00
         22   -1    0    0    0    0  0.00000000000E+00  0.00000000000E+00  0.40614552119E+02  0.40614552119E+02  0.00000000000E+00 0. -1.
         22   -1    0    0    0    0 -0.00000000000E+00 -0.00000000000E+00 -0.23033309060E+04  0.23033309060E+04  0.00000000000E+00 0. -1.
         24    2    1    2    0    0 -0.40196023866E+02  0.36823729513E+02 -0.11715788221E+04  0.11756019230E+04  0.80444003449E+02 0.  0.
         25    2    1    2    0    0  0.74585697179E+02 -0.68549767332E+02 -0.10509914747E+04  0.10632462533E+04  0.12508964138E+03 0.  0.
        -24    2    1    2    0    0 -0.34389673313E+02  0.31726037820E+02 -0.40146057093E+02  0.10509728181E+03  0.85114873187E+02 0.  0.
        -11    1    3    3    0    0  0.10554793711E+02  0.16063402558E+02 -0.68069518195E+02  0.70731152114E+02  0.00000000000E+00 0.  1.
         12    1    3    3    0    0 -0.50750817577E+02  0.20760326954E+02 -0.11035093039E+04  0.11048707709E+04  0.00000000000E+00 0. -1.
         11    1    5    5    0    0 -0.53569409423E+02 -0.55678396798E+01 -0.13893652882E+02  0.55621183510E+02  0.00000000000E+00 0. -1.
        -12    1    5    5    0    0  0.19179736110E+02  0.37293877499E+02 -0.26252404211E+02  0.49476098301E+02  0.00000000000E+00 0.  1.
          5    1    4    4  501    0  0.77167973829E+01  0.12438695506E+02 -0.59902917061E+03  0.59922257113E+03  0.41800000000E+01 0. -1.
         -5    1    4    4    0  501  0.66868899796E+02 -0.80988462838E+02 -0.45196230411E+03  0.46402368216E+03  0.41800000000E+01 0. -1.
</event>
<event>
11    1  0.8299058E-009  0.1470340E+03  0.7561462E-02  0.1099949E+00
         22   -1    0    0    0    0  0.00000000000E+00  0.00000000000E+00  0.18537402516E+04  0.18537402516E+04  0.00000000000E+00 0.  1.
         22   -1    0    0    0    0 -0.00000000000E+00 -0.00000000000E+00 -0.73116069140E+02  0.73116069140E+02  0.00000000000E+00 0. -1.
         24    2    1    2    0    0 -0.69745950240E+02 -0.73916420740E+01  0.88506382773E+01  0.10773006566E+03  0.81291446667E+02 0.  0.
         25    2    1    2    0    0  0.11580182993E+03  0.32906315079E+02  0.31883547368E+03  0.36303804130E+03  0.12509065021E+03 0.  0.
        -24    2    1    2    0    0 -0.46055879686E+02 -0.25514673005E+02  0.14529380705E+04  0.14560882137E+04  0.79948151914E+02 0.  0.
        -11    1    3    3    0    0 -0.43940417492E+02  0.30158797252E+02  0.25679597286E+02  0.59158727656E+02  0.00000000000E+00 0.  1.
         12    1    3    3    0    0 -0.25805532748E+02 -0.37550439326E+02 -0.16828959008E+02  0.48571338002E+02  0.00000000000E+00 0. -1.
         13    1    5    5    0    0 -0.23657138256E+01  0.18416767396E+02  0.98566443282E+02  0.10030013791E+03  0.00000000000E+00 0. -1.
        -14    1    5    5    0    0 -0.43690165860E+02 -0.43931440402E+02  0.13543716272E+04  0.13557880758E+04  0.00000000000E+00 0.  1.
          5    1    4    4  501    0  0.12668035732E+02  0.38593324034E+02  0.20599904921E+03  0.21000715337E+03  0.41800000000E+01 0.  1.
         -5    1    4    4    0  501  0.10313379419E+03 -0.56870089548E+01  0.11283642446E+03  0.15303088793E+03  0.41800000000E+01 0.  1.
</event>
<event>
11    1  0.8299058E-009  0.1429116E+03  0.7561462E-02  0.1104350E+00
         22   -1    0    0    0    0  0.00000000000E+00  0.00000000000E+00  0.43924345082E+03  0.43924345082E+03  0.00000000000E+00 0. -1.
         22   -1    0    0    0    0 -0.00000000000E+00 -0.00000000000E+00 -0.65623528172E+03  0.65623528172E+03  0.00000000000E+00 0. -1.
         24    2    1    2    0    0 -0.66356225106E+02  0.13956309415E+01 -0.51690930041E+03  0.52784919834E+03  0.83812021422E+02 0.  0.
         25    2    1    2    0    0  0.93194437090E+02  0.20609742215E+02 -0.80805510611E+02  0.17688329923E+03  0.12509279126E+03 0.  0.
        -24    2    1    2    0    0 -0.26838211984E+02 -0.22005373156E+02  0.38072298012E+03  0.39074623498E+03  0.80796698471E+02 0.  0.
        -13    1    3    3    0    0 -0.43160138188E+02  0.14153954790E+02 -0.97019689288E+02  0.10712587024E+03  0.00000000000E+00 0.  1.
         14    1    3    3    0    0 -0.23196086917E+02 -0.12758323848E+02 -0.41988961113E+03  0.42072332810E+03  0.00000000000E+00 0. -1.
         11    1    5    5    0    0  0.13883829836E+02  0.12269851931E+02  0.23284071014E+03  0.23357676746E+03  0.00000000000E+00 0. -1.
        -12    1    5    5    0    0 -0.40722041820E+02 -0.34275225087E+02  0.14788226999E+03  0.15716946752E+03  0.00000000000E+00 0.  1.
          5    1    4    4  501    0  0.73111547108E+02  0.31550049606E+02 -0.11230486745E+03  0.13773365458E+03  0.41800000000E+01 0.  1.
         -5    1    4    4    0  501  0.20082889982E+02 -0.10940307392E+02  0.31499356835E+02  0.39149644658E+02  0.41800000000E+01 0.  1.
</event>
<event>
11    1  0.8299058E-009  0.1616226E+03  0.7561462E-02  0.1085561E+00
         22   -1    0    0    0    0  0.00000000000E+00  0.00000000000E+00  0.23410188391E+03  0.23410188391E+03  0.00000000000E+00 0. -1.
         22   -1    0    0    0    0 -0.00000000000E+00 -0.00000000000E+00 -0.88452404712E+03  0.88452404712E+03  0.00000000000E+00 0. -1.
         24    2    1    2    0    0  0.10062269262E+03  0.10667197732E+02 -0.77300289256E+03  0.78359687365E+03  0.79068787218E+02 0.  0.
         25    2    1    2    0    0 -0.12667504229E+03  0.38260805176E+02  0.52721506654E+01  0.18217568192E+03  0.12509887273E+03 0.  0.
        -24    2    1    2    0    0  0.26052349677E+02 -0.48928002909E+02  0.11730857868E+03  0.15285337545E+03  0.80809512824E+02 0.  0.
        -13    1    3    3    0    0  0.16358318607E+02  0.93299344037E+01 -0.27407466511E+02  0.33253743912E+02  0.00000000000E+00 0.  1.
         14    1    3    3    0    0  0.84264374008E+02  0.13372633286E+01 -0.74559542605E+03  0.75034312974E+03  0.00000000000E+00 0. -1.
         11    1    5    5    0    0  0.25983751657E+01 -0.16920724340E+02  0.11143272378E+03  0.11274003014E+03  0.00000000000E+00 0. -1.
        -12    1    5    5    0    0  0.23453974511E+02 -0.32007278569E+02  0.58758549005E+01  0.40113345317E+02  0.00000000000E+00 0.  1.
          5    1    4    4  501    0 -0.12654151210E+03 -0.18843078682E+00  0.37266577563E+02  0.13198128653E+03  0.41800000000E+01 0.  1.
         -5    1    4    4    0  501 -0.13353019523E+00  0.38449235963E+02 -0.31994426898E+02  0.50194395394E+02  0.41800000000E+01 0.  1.
</event>
<event>
11    1  0.8299058E-009  0.1193476E+04  0.7561462E-02  0.8514039E-01
         22   -1    0    0    0    0  0.00000000000E+00  0.00000000000E+00  0.19706320515E+03  0.19706320515E+03  0.00000000000E+00 0. -1.
         22   -1    0    0    0    0 -0.00000000000E+00 -0.00000000000E+00 -0.18070166833E+04  0.18070166833E+04  0.00000000000E+00 0. -1.
         24    2    1    2    0    0  0.10743481215E+03  0.42577624682E+02 -0.30447521590E+03  0.33542577209E+03  0.80313127818E+02 0.  0.
         25    2    1    2    0    0 -0.50997752653E+03 -0.23705010780E+03 -0.83217318386E+03  0.10121404688E+04  0.12508512858E+03 0.  0.
        -24    2    1    2    0    0  0.40254271439E+03  0.19447248311E+03 -0.47330507840E+03  0.65651364761E+03  0.84452878403E+02 0.  0.
        -11    1    3    3    0    0 -0.57841893134E+01  0.20791902424E+02 -0.24556962004E+02  0.32692574620E+02  0.00000000000E+00 0.  1.
         12    1    3    3    0    0  0.11321900146E+03  0.21785722258E+02 -0.27991825390E+03  0.30273319747E+03  0.00000000000E+00 0. -1.
         13    1    5    5    0    0  0.27062280867E+03  0.15008550914E+03 -0.37455769019E+03  0.48585576863E+03  0.00000000000E+00 0. -1.
        -14    1    5    5    0    0  0.13191990571E+03  0.44386973972E+02 -0.98747388206E+02  0.17065787898E+03  0.00000000000E+00 0.  1.
          5    1    4    4  501    0 -0.90764202121E+01  0.12868319407E+02 -0.25189123165E+02  0.29998989550E+02  0.41800000000E+01 0. -1.
         -5    1    4    4    0  501 -0.50090110632E+03 -0.24991842720E+03 -0.80698406070E+03  0.98214147921E+03  0.41800000000E+01 0. -1.
</event>
<event>
11    1  0.8299058E-009  0.1343919E+03  0.7561462E-02  0.1113987E+00
         22   -1    0    0    0    0  0.00000000000E+00  0.00000000000E+00  0.91455901951E+03  0.91455901951E+03  0.00000000000E+00 0.  1.
         22   -1    0    0    0    0 -0.00000000000E+00 -0.00000000000E+00 -0.36084841006E+03  0.36084841006E+03  0.00000000000E+00 0. -1.
        -24    2    1    2    0    0  0.12948440032E+02  0.53704617181E+02 -0.33694706223E+03  0.35227850797E+03  0.86688963667E+02 0.  0.
         25    2    1    2    0    0 -0.15736130066E+02  0.11080812373E+02  0.34074569520E+03  0.36348809635E+03  0.12508220176E+03 0.  0.
         24    2    1    2    0    0  0.27876900339E+01 -0.64785429554E+02  0.54991197648E+03  0.55964082525E+03  0.81177264722E+02 0.  0.
        -13    1    5    5    0    0  0.25412548636E+02 -0.46947756880E+01  0.31665594546E+03  0.31770871305E+03  0.00000000000E+00 0.  1.
         14    1    5    5    0    0 -0.22624858602E+02 -0.60090653866E+02  0.23325603102E+03  0.24193211220E+03  0.00000000000E+00 0. -1.
         13    1    3    3    0    0 -0.11639681103E+01  0.35426751766E+02 -0.32374365384E+03  0.32567831208E+03  0.00000000000E+00 0. -1.
        -14    1    3    3    0    0  0.14112408143E+02  0.18277865415E+02 -0.13203408397E+02  0.26600195883E+02  0.00000000000E+00 0.  1.
          5    1    4    4  501    0  0.38783265836E+02  0.24563135735E+01  0.27400498094E+03  0.27677857063E+03  0.41800000000E+01 0. -1.
         -5    1    4    4    0  501 -0.54519395902E+02  0.86244987993E+01  0.66740714267E+02  0.86709525716E+02  0.41800000000E+01 0. -1.
</event>
<event>
11    1  0.8299058E-009  0.1899000E+03  0.7561462E-02  0.1061905E+00
         22   -1    0    0    0    0  0.00000000000E+00  0.00000000000E+00  0.10092694790E+04  0.10092694790E+04  0.00000000000E+00 0.  1.
         22   -1    0    0    0    0 -0.00000000000E+00 -0.00000000000E+00 -0.62867072527E+03  0.62867072527E+03  0.00000000000E+00 0. -1.
         24    2    1    2    0    0  0.78930134375E+01 -0.36336513753E+02 -0.54700449087E+03  0.55451137393E+03  0.82983786884E+02 0.  0.
         25    2    1    2    0    0 -0.72295673983E+02 -0.94369520996E+02  0.35648368923E+02  0.17621238040E+03  0.12509087029E+03 0.  0.
        -24    2    1    2    0    0  0.64402660545E+02  0.13070603475E+03  0.89195487566E+03  0.90721644992E+03  0.78907645938E+02 0.  0.
        -11    1    3    3    0    0  0.16711202373E+02 -0.38661502923E+02 -0.11598954841E+03  0.12339996529E+03  0.00000000000E+00 0.  1.
         12    1    3    3    0    0 -0.88181889351E+01  0.23249891702E+01 -0.43101494246E+03  0.43111140864E+03  0.00000000000E+00 0. -1.
         13    1    5    5    0    0 -0.87257064143E+01  0.25387804401E+02  0.64148572575E+02  0.69539326486E+02  0.00000000000E+00 0. -1.
        -14    1    5    5    0    0  0.73128366960E+02  0.10531823035E+03  0.82780630309E+03  0.83767712344E+03  0.00000000000E+00 0.  1.
          5    1    4    4  501    0 -0.52618782587E+02  0.65298219574E+01  0.49181909010E+02  0.72441061765E+02  0.41800000000E+01 0. -1.
         -5    1    4    4    0  501 -0.19676891396E+02 -0.10089934295E+03 -0.13533540086E+02  0.10377131863E+03  0.41800000000E+01 0. -1.
</event>
<event>
11    1  0.8299058E-009  0.1422471E+03  0.7561462E-02  0.1105075E+00
         22   -1    0    0    0    0  0.00000000000E+00  0.00000000000E+00  0.33268514591E+03  0.33268514591E+03  0.00000000000E+00 0. -1.
         22   -1    0    0    0    0 -0.00000000000E+00 -0.00000000000E+00 -0.36289817598E+03  0.36289817598E+03  0.00000000000E+00 0.  1.
         24    2    1    2    0    0  0.38586029077E+02  0.59959418441E+02 -0.25847452792E+03  0.28013737533E+03  0.81140951249E+02 0.  0.
         25    2    1    2    0    0 -0.25136600118E+02 -0.43760684399E+02 -0.34992314800E+02  0.13935836287E+03  0.12509774196E+03 0.  0.
        -24    2    1    2    0    0 -0.13449428959E+02 -0.16198734043E+02  0.26325381265E+03  0.27608758368E+03  0.80489116429E+02 0.  0.
        -13    1    3    3    0    0  0.52542761577E+02  0.60688181132E+02 -0.25247359479E+03  0.26492775089E+03  0.00000000000E+00 0.  1.
         14    1    3    3    0    0 -0.13956732500E+02 -0.72876269051E+00 -0.60009331328E+01  0.15209624440E+02  0.00000000000E+00 0. -1.
         11    1    5    5    0    0 -0.19357959198E+02 -0.33115841793E+02  0.25205425300E+03  0.25495634139E+03  0.00000000000E+00 0. -1.
        -12    1    5    5    0    0  0.59085302395E+01  0.16917107750E+02  0.11199559653E+02  0.21131242289E+02  0.00000000000E+00 0.  1.
          5    1    4    4  501    0  0.50330806234E+02 -0.96594229319E+01 -0.72915384597E+01  0.51933933422E+02  0.41800000000E+01 0. -1.
         -5    1    4    4    0  501 -0.75467406352E+02 -0.34101261467E+02 -0.27700776340E+02  0.87424429452E+02  0.41800000000E+01 0. -1.
</event>
<event>
11    1  0.8299058E-009  0.1794701E+03  0.7561462E-02  0.1070072E+00
         22   -1    0    0    0    0  0.00000000000E+00  0.00000000000E+00  0.13324057679E+04  0.13324057679E+04  0.00000000000E+00 0. -1.
         22   -1    0    0    0    0 -0.00000000000E+00 -0.00000000000E+00 -0.33662570403E+03  0.33662570403E+03  0.00000000000E+00 0.  1.
        -24    2    1    2    0    0  0.68070343565E+02  0.67040486198E+02 -0.29053925278E+03  0.31628989662E+03  0.80611679275E+02 0.  0.
         25    2    1    2    0    0  0.64556073707E+02 -0.81987933171E+01  0.15661916629E+03  0.21074306058E+03  0.12509343496E+03 0.  0.
         24    2    1    2    0    0 -0.13262641727E+03 -0.58841692881E+02  0.11297001504E+04  0.11419985148E+04  0.82982326537E+02 0.  0.
        -13    1    5    5    0    0  0.66261585979E+01 -0.13634296099E+02  0.45523119421E+02  0.47980771249E+02  0.00000000000E+00 0.  1.
         14    1    5    5    0    0 -0.13925257587E+03 -0.45207396782E+02  0.10841770310E+04  0.10940177435E+04  0.00000000000E+00 0. -1.
         13    1    3    3    0    0  0.43008497801E+02 -0.41891871405E+01 -0.15744760294E+03  0.16326980077E+03  0.00000000000E+00 0. -1.
        -14    1    3    3    0    0  0.25061845764E+02  0.71229673339E+02 -0.13309164985E+03  0.15302009586E+03  0.00000000000E+00 0.  1.
          5    1    4    4  501    0  0.31283342181E+02 -0.48792147005E+02  0.14584960047E+03  0.15699967982E+03  0.41800000000E+01 0.  1.
         -5    1    4    4    0  501  0.33272731526E+02  0.40593353688E+02  0.10769565815E+02  0.53743380752E+02  0.41800000000E+01 0.  1.
</event>
<event>
11    1  0.8299058E-009  0.1334174E+03  0.7561462E-02  0.1115140E+00
         22   -1    0    0    0    0  0.00000000000E+00  0.00000000000E+00  0.20599611974E+03  0.20599611974E+03  0.00000000000E+00 0. -1.
         22   -1    0    0    0    0 -0.00000000000E+00 -0.00000000000E+00 -0.13942359899E+04  0.13942359899E+04  0.00000000000E+00 0.  1.
         24    2    1    2    0    0 -0.29612806414E+02  0.34767252240E+02 -0.12345799791E+04  0.12380397467E+04  0.80430153684E+02 0.  0.
         25    2    1    2    0    0  0.77030601263E+02 -0.14439124969E+02 -0.10915082442E+03  0.18358493143E+03  0.12508925900E+03 0.  0.
        -24    2    1    2    0    0 -0.47417794850E+02 -0.20328127270E+02  0.15549093329E+03  0.17860743152E+03  0.71144249475E+02 0.  0.
        -11    1    3    3    0    0 -0.38844879372E+02 -0.14519237940E+02 -0.47522290783E+03  0.47702887235E+03  0.00000000000E+00 0.  1.
         12    1    3    3    0    0  0.92320729589E+01  0.49286490179E+02 -0.75935707122E+03  0.76101087437E+03  0.00000000000E+00 0. -1.
         13    1    5    5    0    0 -0.50476344290E+02 -0.37415281891E+02  0.14571775336E+03  0.15868657251E+03  0.00000000000E+00 0. -1.
        -14    1    5    5    0    0  0.30585494398E+01  0.17087154620E+02  0.97731799249E+01  0.19920859006E+02  0.00000000000E+00 0.  1.
          5    1    4    4  501    0  0.79498938474E+02  0.38716399818E+02 -0.42506841128E+02  0.98200533481E+02  0.41800000000E+01 0. -1.
         -5    1    4    4    0  501 -0.24683372106E+01 -0.53155524787E+02 -0.66643983295E+02  0.85384397951E+02  0.41800000000E+01 0. -1.
</event>
<event>
11    1  0.8299058E-009  0.1366172E+03  0.7561462E-02  0.1111396E+00
         22   -1    0    0    0    0  0.00000000000E+00  0.00000000000E+00  0.11869580469E+04  0.11869580469E+04  0.00000000000E+00 0.  1.
         22   -1    0    0    0    0 -0.00000000000E+00 -0.00000000000E+00 -0.44083704213E+03  0.44083704213E+03  0.00000000000E+00 0. -1.
        -24    2    1    2    0    0  0.30979594214E+02  0.44077307411E+02 -0.37859796039E+03  0.39018345189E+03  0.77486555140E+02 0.  0.
         25    2    1    2    0    0 -0.53311556360E+02 -0.50889774263E+02  0.41234685060E+02  0.15092814291E+03  0.12508842435E+03 0.  0.
         24    2    1    2    0    0  0.22331962146E+02  0.68124668521E+01  0.10834842801E+04  0.10866834942E+04  0.79985655934E+02 0.  0.
        -11    1    5    5    0    0 -0.29524021240E+02 -0.89493212474E+00  0.30133979088E+03  0.30278397960E+03  0.00000000000E+00 0.  1.
         12    1    5    5    0    0  0.51855983387E+02  0.77073989769E+01  0.78214448922E+03  0.78389951462E+03  0.00000000000E+00 0. -1.
         11    1    3    3    0    0  0.39823164763E+02 -0.87199781874E+01 -0.17146262155E+03  0.17624231348E+03  0.00000000000E+00 0. -1.
        -12    1    3    3    0    0 -0.88435705491E+01  0.52797285599E+02 -0.20713533884E+03  0.21394113841E+03  0.00000000000E+00 0.  1.
          5    1    4    4  501    0  0.94012010271E+01 -0.59982894470E+02  0.59227958007E+02  0.84922044366E+02  0.41800000000E+01 0.  1.
         -5    1    4    4    0  501 -0.62712757387E+02  0.90931202065E+01 -0.17993272947E+02  0.66006098548E+02  0.41800000000E+01 0.  1.
</event>
<event>
11    1  0.8299058E-009  0.1805777E+03  0.7561462E-02  0.1069176E+00
         22   -1    0    0    0    0  0.00000000000E+00  0.00000000000E+00  0.91504183321E+03  0.91504183321E+03  0.00000000000E+00 0.  1.
         22   -1    0    0    0    0 -0.00000000000E+00 -0.00000000000E+00 -0.31878933397E+03  0.31878933397E+03  0.00000000000E+00 0.  1.
         24    2    1    2    0    0  0.14207231963E+03 -0.24184256933E+02 -0.21796692927E+03  0.27349281748E+03  0.80742285513E+02 0.  0.
         25    2    1    2    0    0 -0.90295373124E+02 -0.22701387708E+02  0.17923823731E+02  0.15696276567E+03  0.12508972355E+03 0.  0.
        -24    2    1    2    0    0 -0.51776946510E+02  0.46885644641E+02  0.79629560478E+03  0.80337558403E+03  0.80290242003E+02 0.  0.
        -11    1    3    3    0    0  0.67928443611E+02  0.28253699722E+02 -0.11111246920E+03  0.13326111890E+03  0.00000000000E+00 0.  1.
         12    1    3    3    0    0  0.74143876024E+02 -0.52437956655E+02 -0.10685446006E+03  0.14023169858E+03  0.00000000000E+00 0. -1.
         13    1    5    5    0    0 -0.27822939128E+02  0.24261392318E+02  0.10509001641E+03  0.11138510964E+03  0.00000000000E+00 0. -1.
        -14    1    5    5    0    0 -0.23954007383E+02  0.22624252323E+02  0.69120558837E+03  0.69199047439E+03  0.00000000000E+00 0.  1.
          5    1    4    4  501    0  0.11548113001E+02  0.74836806762E+01 -0.35271730242E+02  0.38091097971E+02  0.41800000000E+01 0. -1.
         -5    1    4    4    0  501 -0.10184348612E+03 -0.30185068384E+02  0.53195553973E+02  0.11887166770E+03  0.41800000000E+01 0. -1.
</event>
<event>
11    1  0.8299058E-009  0.1309317E+03  0.7561462E-02  0.1118129E+00
         22   -1    0    0    0    0  0.00000000000E+00  0.00000000000E+00  0.15200252560E+04  0.15200252560E+04  0.00000000000E+00 0. -1.
         22   -1    0    0    0    0 -0.00000000000E+00 -0.00000000000E+00 -0.22127447984E+03  0.22127447984E+03  0.00000000000E+00 0.  1.
        -24    2    1    2    0    0 -0.22237922136E+02  0.32299779401E+02 -0.19593471495E+03  0.21537473167E+03  0.80362065613E+02 0.  0.
         25    2    1    2    0    0  0.17032579475E+02 -0.15785526229E+02  0.26810320102E+03  0.29676050360E+03  0.12509267961E+03 0.  0.
         24    2    1    2    0    0  0.52053426604E+01 -0.16514253172E+02  0.12265822901E+04  0.12291645006E+04  0.77726694335E+02 0.  0.
        -13    1    5    5    0    0  0.33431522557E+01  0.18713931061E+02  0.87733255412E+02  0.89769215146E+02  0.00000000000E+00 0.  1.
         14    1    5    5    0    0  0.18621904047E+01 -0.35228184234E+02  0.11388490347E+04  0.11393952855E+04  0.00000000000E+00 0. -1.
         11    1    3    3    0    0 -0.11959077333E+02  0.96995229628E+01  0.23196298116E+01  0.15571800115E+02  0.00000000000E+00 0. -1.
        -12    1    3    3    0    0 -0.10278844803E+02  0.22600256439E+02 -0.19825434476E+03  0.19980293155E+03  0.00000000000E+00 0.  1.
          5    1    4    4  501    0 -0.33360060166E+02 -0.53925498032E+02  0.12334752920E+03  0.13875495779E+03  0.41800000000E+01 0.  1.
         -5    1    4    4    0  501  0.50392639641E+02  0.38139971803E+02  0.14475567182E+03  0.15800554580E+03  0.41800000000E+01 0.  1.
</event>
<event>
11    1  0.8299058E-009  0.2152115E+03  0.7561462E-02  0.1044259E+00
         22   -1    0    0    0    0  0.00000000000E+00  0.00000000000E+00  0.10841937247E+04  0.10841937247E+04  0.00000000000E+00 0.  1.
         22   -1    0    0    0    0 -0.00000000000E+00 -0.00000000000E+00 -0.43480892517E+03  0.43480892517E+03  0.00000000000E+00 0. -1.
        -24    2    1    2    0    0 -0.31453561114E+02  0.63564265752E+02 -0.35457019741E+03  0.37048785415E+03  0.80693759326E+02 0.  0.
         25    2    1    2    0    0  0.18682122848E+03  0.16989900102E+02  0.14466866921E+03  0.26789383437E+03  0.12508898643E+03 0.  0.
         24    2    1    2    0    0 -0.15536766737E+03 -0.80554165853E+02  0.85928632773E+03  0.88062096135E+03  0.80574182267E+02 0.  0.
        -13    1    5    5    0    0 -0.15111208429E+03 -0.73652325529E+02  0.85515377370E+03  0.87152022567E+03  0.00000000000E+00 0.  1.
         14    1    5    5    0    0 -0.42555830718E+01 -0.69018403241E+01  0.41325540285E+01  0.91007356812E+01  0.00000000000E+00 0. -1.
         11    1    3    3    0    0 -0.11787677655E+02  0.41381888538E+02 -0.32759007572E+03  0.33040379501E+03  0.00000000000E+00 0. -1.
        -12    1    3    3    0    0 -0.19665883459E+02  0.22182377213E+02 -0.26980121686E+02  0.40084059142E+02  0.00000000000E+00 0.  1.
          5    1    4    4  501    0  0.20456091583E+01  0.38688329041E+02  0.31366349164E+02  0.50022910558E+02  0.41800000000E+01 0.  1.
         -5    1    4    4    0  501  0.18477561932E+03 -0.21698428940E+02  0.11330232004E+03  0.21787092381E+03  0.41800000000E+01 0.  1.
</event>
<event>
11    1  0.8299058E-009  0.1983229E+03  0.7561462E-02  0.1055716E+00
         22   -1    0    0    0    0  0.00000000000E+00  0.00000000000E+00  0.19330163649E+04  0.19330163649E+04  0.00000000000E+00 0.  1.
         22   -1    0    0    0    0 -0.00000000000E+00 -0.00000000000E+00 -0.32288070873E+03  0.32288070873E+03  0.00000000000E+00 0.  1.
         24    2    1    2    0    0 -0.38945724323E+01 -0.36744007333E+02 -0.23368579254E+03  0.24668220700E+03  0.69841047004E+02 0.  0.
         25    2    1    2    0    0 -0.60003361592E+02  0.17498476868E+03  0.80250657777E+02  0.23729172323E+03  0.12508845338E+03 0.  0.
        -24    2    1    2    0    0  0.63897934025E+02 -0.13824076135E+03  0.17635707910E+04  0.17719231434E+04  0.79600486069E+02 0.  0.
        -11    1    3    3    0    0  0.26704718779E+02  0.44650749591E+01 -0.95817064813E+02  0.99569015305E+02  0.00000000000E+00 0.  1.
         12    1    3    3    0    0 -0.30599291211E+02 -0.41209082292E+02 -0.13786872773E+03  0.14711319170E+03  0.00000000000E+00 0. -1.
         11    1    5    5    0    0  0.25959777223E+02  0.23366365726E+01  0.24062403443E+03  0.24203160093E+03  0.00000000000E+00 0. -1.
        -12    1    5    5    0    0  0.37938156802E+02 -0.14057739792E+03  0.15229467565E+04  0.15298915425E+04  0.00000000000E+00 0.  1.
          5    1    4    4  501    0 -0.30542524076E+01 -0.11636497777E+02  0.34588998268E+02  0.36859296513E+02  0.41800000000E+01 0.  1.
         -5    1    4    4    0  501 -0.56949109185E+02  0.18662126646E+03  0.45661659509E+02  0.20043242672E+03  0.41800000000E+01 0.  1.
</event>
<event>
11    1  0.8299058E-009  0.1482250E+03  0.7561462E-02  0.1098706E+00
         22   -1    0    0    0    0  0.00000000000E+00  0.00000000000E+00  0.77232739520E+03  0.77232739520E+03  0.00000000000E+00 0.  1.
         22   -1    0    0    0    0 -0.00000000000E+00 -0.00000000000E+00 -0.68808414654E+03  0.68808414654E+03  0.00000000000E+00 0. -1.
        -24    2    1    2    0    0 -0.35559467844E+02  0.11265568053E+02 -0.66180649205E+03  0.66798378963E+03  0.82602188283E+02 0.  0.
         25    2    1    2    0    0 -0.18469544252E+02 -0.76177960933E+02  0.43106038709E+03  0.45563849375E+03  0.12509665809E+03 0.  0.
         24    2    1    2    0    0  0.54029012096E+02  0.64912392880E+02  0.31498935362E+03  0.33678925836E+03  0.84118718227E+02 0.  0.
        -11    1    5    5    0    0  0.12054578268E+02  0.57768187110E+02  0.26324789383E+03  0.26978126308E+03  0.00000000000E+00 0.  1.
         12    1    5    5    0    0  0.41974433828E+02  0.71442057697E+01  0.51741459785E+02  0.67007995283E+02  0.00000000000E+00 0. -1.
         11    1    3    3    0    0 -0.44256542903E+02 -0.26366483613E+01 -0.63509291947E+03  0.63663852371E+03  0.00000000000E+00 0. -1.
        -12    1    3    3    0    0  0.86970750586E+01  0.13902216414E+02 -0.26713572582E+02  0.31345265925E+02  0.00000000000E+00 0.  1.
          5    1    4    4  501    0 -0.43116269515E+02 -0.10032481364E+03  0.27856298177E+03  0.29923049334E+03  0.41800000000E+01 0. -1.
         -5    1    4    4    0  501  0.24646725263E+02  0.24146852710E+02  0.15249740532E+03  0.15640800041E+03  0.41800000000E+01 0. -1.
</event>
<event>
11    1  0.8299058E-009  0.1946517E+03  0.7561462E-02  0.1058371E+00
         22   -1    0    0    0    0  0.00000000000E+00  0.00000000000E+00  0.17203380865E+04  0.17203380865E+04  0.00000000000E+00 0. -1.
         22   -1    0    0    0    0 -0.00000000000E+00 -0.00000000000E+00 -0.31308712803E+03  0.31308712803E+03  0.00000000000E+00 0. -1.
         24    2    1    2    0    0  0.19710810633E+02  0.72030896960E+02 -0.24451506960E+03  0.26759475892E+03  0.79008667658E+02 0.  0.
         25    2    1    2    0    0 -0.39711075042E+02 -0.21354115697E+03  0.24838255719E+03  0.35287081635E+03  0.12508846114E+03 0.  0.
        -24    2    1    2    0    0  0.20000264409E+02  0.14151026001E+03  0.14033834709E+04  0.14129596393E+04  0.80898773759E+02 0.  0.
        -11    1    3    3    0    0 -0.83960168415E+01  0.65812244091E+01  0.21228849065E+01  0.10877143644E+02  0.00000000000E+00 0.  1.
         12    1    3    3    0    0  0.28106827474E+02  0.65449672551E+02 -0.24663795451E+03  0.25671761527E+03  0.00000000000E+00 0. -1.
         11    1    5    5    0    0  0.33177580224E+02  0.14924480539E+02  0.26549888784E+03  0.26797975930E+03  0.00000000000E+00 0. -1.
        -12    1    5    5    0    0 -0.13177315815E+02  0.12658577947E+03  0.11378845830E+04  0.11449798800E+04  0.00000000000E+00 0.  1.
          5    1    4    4  501    0 -0.58481771049E+01  0.14285278224E+02  0.29514771996E+01  0.16262040679E+02  0.41800000000E+01 0.  1.
         -5    1    4    4    0  501 -0.33862897937E+02 -0.22782643519E+03  0.24543108000E+03  0.33660877567E+03  0.41800000000E+01 0.  1.
</event>
<event>
11    1  0.8299058E-009  0.1296781E+03  0.7561462E-02  0.1119665E+00
         22   -1    0    0    0    0  0.00000000000E+00  0.00000000000E+00  0.77037335400E+03  0.77037335400E+03  0.00000000000E+00 0.  1.
         22   -1    0    0    0    0 -0.00000000000E+00 -0.00000000000E+00 -0.36118544826E+03  0.36118544826E+03  0.00000000000E+00 0.  1.
         24    2    1    2    0    0  0.26060983911E+02  0.31195185230E+02 -0.33003581936E+03  0.34192668394E+03  0.79610933060E+02 0.  0.
         25    2    1    2    0    0 -0.25517955314E+02  0.71607768437E+01  0.16635492378E+03  0.20981798067E+03  0.12508869485E+03 0.  0.
        -24    2    1    2    0    0 -0.54302859682E+00 -0.38355962073E+02  0.57286880132E+03  0.57981413766E+03  0.80834992389E+02 0.  0.
        -11    1    3    3    0    0  0.25784530793E+02  0.46733086728E+02 -0.31751504227E+03  0.32196991395E+03  0.00000000000E+00 0.  1.
         12    1    3    3    0    0  0.27645311764E+00 -0.15537901498E+02 -0.12520777097E+02  0.19956769989E+02  0.00000000000E+00 0. -1.
         11    1    5    5    0    0 -0.33375705703E+02 -0.19617005054E+02  0.13866857297E+03  0.14397130877E+03  0.00000000000E+00 0. -1.
        -12    1    5    5    0    0  0.32832677106E+02 -0.18738957019E+02  0.43420022834E+03  0.43584282889E+03  0.00000000000E+00 0.  1.
          5    1    4    4  501    0  0.17331910715E+02 -0.40569528733E+02  0.17440357820E+02  0.47622686521E+02  0.41800000000E+01 0. -1.
         -5    1    4    4    0  501 -0.42849866029E+02  0.47730305576E+02  0.14891456596E+03  0.16219529415E+03  0.41800000000E+01 0. -1.
</event>
<event>
11    1  0.8299058E-009  0.1404102E+03  0.7561462E-02  0.1107101E+00
         22   -1    0    0    0    0  0.00000000000E+00  0.00000000000E+00  0.49900517067E+02  0.49900517067E+02  0.00000000000E+00 0.  1.
         22   -1    0    0    0    0 -0.00000000000E+00 -0.00000000000E+00 -0.10554646552E+04  0.10554646552E+04  0.00000000000E+00 0.  1.
         24    2    1    2    0    0  0.60889987199E+02  0.14889431371E+02 -0.68284750569E+03  0.69055890642E+03  0.81618634583E+02 0.  0.
         25    2    1    2    0    0 -0.66191887975E+02 -0.16859975844E+02 -0.29956117005E+03  0.33173918274E+03  0.12509342885E+03 0.  0.
        -24    2    1    2    0    0  0.53019007760E+01  0.19705444722E+01 -0.23155462426E+02  0.83067083137E+02  0.79573687003E+02 0.  0.
        -11    1    3    3    0    0  0.37736428415E+02  0.48242562339E+02 -0.45767435064E+03  0.46175447382E+03  0.00000000000E+00 0.  1.
         12    1    3    3    0    0  0.23153558785E+02 -0.33353130967E+02 -0.22517315504E+03  0.22880443261E+03  0.00000000000E+00 0. -1.
         13    1    5    5    0    0 -0.34334206558E+02 -0.13686329912E+02 -0.13665365705E+02  0.39406796194E+02  0.00000000000E+00 0. -1.
        -14    1    5    5    0    0  0.39636107335E+02  0.15656874384E+02 -0.94900967207E+01  0.43660286942E+02  0.00000000000E+00 0.  1.
          5    1    4    4  501    0  0.76242619662E+01 -0.50393245584E+02 -0.60215409841E+02  0.78999851604E+02  0.41800000000E+01 0. -1.
         -5    1    4    4    0  501 -0.73816149942E+02  0.33533269741E+02 -0.23934576021E+03  0.25273933113E+03  0.41800000000E+01 0. -1.
</event>
<event>
11    1  0.8299058E-009  0.1537055E+03  0.7561462E-02  0.1093152E+00
         22   -1    0    0    0    0  0.00000000000E+00  0.00000000000E+00  0.15244484727E+03  0.15244484727E+03  0.00000000000E+00 0. -1.
         22   -1    0    0    0    0 -0.00000000000E+00 -0.00000000000E+00 -0.11008838091E+04  0.11008838091E+04  0.00000000000E+00 0. -1.
         24    2    1    2    0    0 -0.83958342144E+02 -0.27212058624E+02 -0.95741722144E+03  0.96471667358E+03  0.79000158303E+02 0.  0.
         25    2    1    2    0    0  0.12761964222E+03 -0.26164072636E+02 -0.10563793246E+02  0.18091129941E+03  0.12508386287E+03 0.  0.
        -24    2    1    2    0    0 -0.43661300074E+02  0.53376131261E+02  0.19542052816E+02  0.10770068342E+03  0.80387964703E+02 0.  0.
        -13    1    3    3    0    0  0.10211812091E+02 -0.19110273851E+02 -0.11589677770E+03  0.11790482074E+03  0.00000000000E+00 0.  1.
         14    1    3    3    0    0 -0.94170154236E+02 -0.81017847729E+01 -0.84152044375E+03  0.84681185284E+03  0.00000000000E+00 0. -1.
         13    1    5    5    0    0 -0.64320894618E+02  0.21317462725E+02  0.11707214165E+02  0.68765329672E+02  0.00000000000E+00 0. -1.
        -14    1    5    5    0    0  0.20659594544E+02  0.32058668536E+02  0.78348386504E+01  0.38935353750E+02  0.00000000000E+00 0.  1.
          5    1    4    4  501    0  0.10940091001E+03 -0.32089998867E+02  0.44501400833E+02  0.12245886744E+03  0.41800000000E+01 0.  1.
         -5    1    4    4    0  501  0.18218732208E+02  0.59259262309E+01 -0.55065194079E+02  0.58452431976E+02  0.41800000000E+01 0.  1.
</event>
<event>
11    1  0.8299058E-009  0.1679908E+03  0.7561462E-02  0.1079794E+00
         22   -1    0    0    0    0  0.00000000000E+00  0.00000000000E+00  0.14444483163E+04  0.14444483163E+04  0.00000000000E+00 0.  1.
         22   -1    0    0    0    0 -0.00000000000E+00 -0.00000000000E+00 -0.76920727989E+03  0.76920727989E+03  0.00000000000E+00 0.  1.
         24    2    1    2    0    0  0.11491722342E+03 -0.20630746723E+00 -0.72487108019E+03  0.74208092014E+03  0.10972692617E+03 0.  0.
         25    2    1    2    0    0 -0.64282484917E+02 -0.14524787453E+02  0.11364738682E+03  0.18140315984E+03  0.12509264787E+03 0.  0.
        -24    2    1    2    0    0 -0.50634738506E+02  0.14731094920E+02  0.12864647298E+04  0.12901715162E+04  0.82280972007E+02 0.  0.
        -11    1    3    3    0    0  0.37337623654E+02  0.30261533245E+02 -0.49923270019E+03  0.50154077349E+03  0.00000000000E+00 0.  1.
         12    1    3    3    0    0  0.77579599768E+02 -0.30467840713E+02 -0.22563838001E+03  0.24054014665E+03  0.00000000000E+00 0. -1.
         13    1    5    5    0    0 -0.16315649698E+02 -0.34202386091E+01  0.43261418902E+02  0.46362148598E+02  0.00000000000E+00 0. -1.
        -14    1    5    5    0    0 -0.34319088808E+02  0.18151333529E+02  0.12432033109E+04  0.12438093676E+04  0.00000000000E+00 0.  1.
          5    1    4    4  501    0 -0.34947920715E+02  0.53512792349E+02  0.33899120429E+02  0.72467916164E+02  0.41800000000E+01 0. -1.
         -5    1    4    4    0  501 -0.29334564202E+02 -0.68037579802E+02  0.79748266391E+02  0.10893524368E+03  0.41800000000E+01 0. -1.
</event>
<event>
11    1  0.8299058E-009  0.1619205E+03  0.7561462E-02  0.1085285E+00
         22   -1    0    0    0    0  0.00000000000E+00  0.00000000000E+00  0.29438611805E+03  0.29438611805E+03  0.00000000000E+00 0.  1.
         22   -1    0    0    0    0 -0.00000000000E+00 -0.00000000000E+00 -0.25580297445E+04  0.25580297445E+04  0.00000000000E+00 0. -1.
         24    2    1    2    0    0 -0.58861159027E+02 -0.47123332248E+01 -0.19396820077E+04  0.19422770060E+04  0.81159319719E+02 0.  0.
         25    2    1    2    0    0  0.14206636062E+03 -0.53661617792E+02 -0.58497409564E+03  0.61717341009E+03  0.12508359409E+03 0.  0.
        -24    2    1    2    0    0 -0.83205201595E+02  0.58373951016E+02  0.26101247682E+03  0.29296544646E+03  0.85852291977E+02 0.  0.
        -13    1    3    3    0    0 -0.53283415927E+02 -0.15743934519E+02 -0.60696499974E+03  0.60950267005E+03  0.00000000000E+00 0.  1.
         14    1    3    3    0    0 -0.55777431002E+01  0.11031601294E+02 -0.13327170079E+04  0.13327743360E+04  0.00000000000E+00 0. -1.
         11    1    5    5    0    0 -0.32875130774E+01 -0.21444602716E+00  0.12310014158E+03  0.12314421865E+03  0.00000000000E+00 0. -1.
        -12    1    5    5    0    0 -0.79917688518E+02  0.58588397043E+02  0.13791233523E+03  0.16982122781E+03  0.00000000000E+00 0.  1.
          5    1    4    4  501    0  0.96027299787E+02 -0.63242387917E+02 -0.21188404943E+03  0.24110820131E+03  0.41800000000E+01 0.  1.
         -5    1    4    4    0  501  0.46039060835E+02  0.95807701258E+01 -0.37309004621E+03  0.37606520878E+03  0.41800000000E+01 0.  1.
</event>
<event>
11    1  0.8299058E-009  0.1907507E+03  0.7561462E-02  0.1061264E+00
         22   -1    0    0    0    0  0.00000000000E+00  0.00000000000E+00  0.26733691768E+04  0.26733691768E+04  0.00000000000E+00 0. -1.
         22   -1    0    0    0    0 -0.00000000000E+00 -0.00000000000E+00 -0.18254221675E+03  0.18254221675E+03  0.00000000000E+00 0. -1.
        -24    2    1    2    0    0  0.83238254603E+02 -0.11370162877E+03 -0.12078102670E+03  0.20227306953E+03  0.80434264026E+02 0.  0.
         25    2    1    2    0    0 -0.56754695406E+02  0.24315292513E+03  0.11267225478E+04  0.11608168101E+04  0.12509007358E+03 0.  0.
         24    2    1    2    0    0 -0.26483559197E+02 -0.12945129635E+03  0.14848854389E+04  0.14928215139E+04  0.78563913450E+02 0.  0.
        -11    1    5    5    0    0 -0.46108551627E+02 -0.62077628893E+02  0.98559223197E+03  0.98862109944E+03  0.00000000000E+00 0.  1.
         12    1    5    5    0    0  0.19624992430E+02 -0.67373667458E+02  0.49929320697E+03  0.50420041444E+03  0.00000000000E+00 0. -1.
         13    1    3    3    0    0  0.67209299379E+02 -0.43822527981E+02 -0.27912751582E+02  0.84950724438E+02  0.00000000000E+00 0. -1.
        -14    1    3    3    0    0  0.16028955224E+02 -0.69879100793E+02 -0.92868275122E+02  0.11732234509E+03  0.00000000000E+00 0.  1.
          5    1    4    4  501    0 -0.43383825291E+02  0.22957310878E+03  0.79782797688E+03  0.83134404531E+03  0.41800000000E+01 0. -1.
         -5    1    4    4    0  501 -0.13370870115E+02  0.13579816344E+02  0.32889457091E+03  0.32947276481E+03  0.41800000000E+01 0. -1.
</event>
<event>
11    1  0.8299058E-009  0.1691280E+03  0.7561462E-02  0.1078793E+00
         22   -1    0    0    0    0  0.00000000000E+00  0.00000000000E+00  0.87879563127E+03  0.87879563127E+03  0.00000000000E+00 0.  1.
         22   -1    0    0    0    0 -0.00000000000E+00 -0.00000000000E+00 -0.20234476339E+04  0.20234476339E+04  0.00000000000E+00 0. -1.
         24    2    1    2    0    0  0.15481660892E+02 -0.13619152204E+02 -0.17864579696E+04  0.17883957234E+04  0.80635122505E+02 0.  0.
         25    2    1    2    0    0  0.59907149198E+02 -0.72339144625E+02 -0.20360727845E+03  0.25675886399E+03  0.12508945611E+03 0.  0.
        -24    2    1    2    0    0 -0.75388810090E+02  0.85958296829E+02  0.84541324546E+03  0.85708867780E+03  0.82493300002E+02 0.  0.
        -13    1    3    3    0    0  0.36750090177E+02  0.20771274142E+02 -0.80681488348E+03  0.80791848052E+03  0.00000000000E+00 0.  1.
         14    1    3    3    0    0 -0.21268429285E+02 -0.34390426346E+02 -0.97964308616E+03  0.98047724286E+03  0.00000000000E+00 0. -1.
         13    1    5    5    0    0  0.86014160801E+01  0.95142246360E+01  0.19096739372E+02  0.23004136229E+02  0.00000000000E+00 0. -1.
        -14    1    5    5    0    0 -0.83990226170E+02  0.76444072193E+02  0.82631650608E+03  0.83408454157E+03  0.00000000000E+00 0.  1.
          5    1    4    4  501    0  0.48804837226E+02  0.24615836176E+02 -0.47119067909E+02  0.72287830842E+02  0.41800000000E+01 0. -1.
         -5    1    4    4    0  501  0.11102311972E+02 -0.96954980801E+02 -0.15648821054E+03  0.18447103315E+03  0.41800000000E+01 0. -1.
</event>
<event>
11    1  0.8299058E-009  0.2179784E+03  0.7561462E-02  0.1042491E+00
         22   -1    0    0    0    0  0.00000000000E+00  0.00000000000E+00  0.78091414327E+03  0.78091414327E+03  0.00000000000E+00 0. -1.
         22   -1    0    0    0    0 -0.00000000000E+00 -0.00000000000E+00 -0.21876383842E+03  0.21876383842E+03  0.00000000000E+00 0.  1.
        -24    2    1    2    0    0  0.10166105100E+02  0.21178648201E+02 -0.87488313634E+02  0.11898148429E+03  0.77139508353E+02 0.  0.
         25    2    1    2    0    0  0.16684427857E+03  0.13134541391E+02  0.78857454031E+01  0.20909263458E+03  0.12509202767E+03 0.  0.
         24    2    1    2    0    0 -0.17701038367E+03 -0.34313189592E+02  0.64175287308E+03  0.67160386281E+03  0.81822536789E+02 0.  0.
        -13    1    5    5    0    0 -0.15072240055E+03 -0.40654584004E+02  0.41758497936E+03  0.44581078074E+03  0.00000000000E+00 0.  1.
         14    1    5    5    0    0 -0.26287983117E+02  0.63413944120E+01  0.22416789371E+03  0.22579308207E+03  0.00000000000E+00 0. -1.
         11    1    3    3    0    0  0.21415909291E+02  0.37357908343E+02 -0.17859389067E+02  0.46617724787E+02  0.00000000000E+00 0. -1.
        -12    1    3    3    0    0 -0.11249804191E+02 -0.16179260142E+02 -0.69628924567E+02  0.72363759503E+02  0.00000000000E+00 0.  1.
          5    1    4    4  501    0 -0.22674654707E+01  0.12968510974E+02 -0.32379867752E+02  0.35203009987E+02  0.41800000000E+01 0.  1.
         -5    1    4    4    0  501  0.16911174404E+03  0.16603041787E+00  0.40265613155E+02  0.17388962460E+03  0.41800000000E+01 0.  1.
</event>
<event>
11    1  0.8299058E-009  0.1545094E+03  0.7561462E-02  0.1092358E+00
         22   -1    0    0    0    0  0.00000000000E+00  0.00000000000E+00  0.16965933149E+04  0.16965933149E+04  0.00000000000E+00 0. -1.
         22   -1    0    0    0    0 -0.00000000000E+00 -0.00000000000E+00 -0.10039313387E+03  0.10039313387E+03  0.00000000000E+00 0. -1.
        -24    2    1    2    0    0 -0.56565121971E+02  0.73153205594E+02 -0.70656333900E+01  0.12175947748E+03  0.78895137160E+02 0.  0.
         25    2    1    2    0    0  0.46888220127E+02 -0.71856933580E+02  0.12969469939E+03  0.19957511620E+03  0.12509031884E+03 0.  0.
         24    2    1    2    0    0  0.96769018444E+01 -0.12962720141E+01  0.14735711150E+04  0.14756518551E+04  0.77725437409E+02 0.  0.
        -11    1    5    5    0    0 -0.24843447830E+02  0.24685838913E+02  0.69843855852E+03  0.69931609989E+03  0.00000000000E+00 0.  1.
         12    1    5    5    0    0  0.34520349675E+02 -0.25982110927E+02  0.77513255653E+03  0.77633575521E+03  0.00000000000E+00 0. -1.
         13    1    3    3    0    0 -0.20666329648E+02  0.56073436269E+02 -0.38491378567E+02  0.71083849503E+02  0.00000000000E+00 0. -1.
        -14    1    3    3    0    0 -0.35898792323E+02  0.17079769325E+02  0.31425745177E+02  0.50675627972E+02  0.00000000000E+00 0.  1.
          5    1    4    4  501    0  0.45664942228E+02  0.16717108775E+02  0.90069530811E+02  0.10244384537E+03  0.41800000000E+01 0. -1.
         -5    1    4    4    0  501  0.12232778992E+01 -0.88574042355E+02  0.39625168583E+02  0.97131270831E+02  0.41800000000E+01 0. -1.
</event>
<event>
11    1  0.8299058E-009  0.1536087E+03  0.7561462E-02  0.1093247E+00
         22   -1    0    0    0    0  0.00000000000E+00  0.00000000000E+00  0.15215763925E+04  0.15215763925E+04  0.00000000000E+00 0. -1.
         22   -1    0    0    0    0 -0.00000000000E+00 -0.00000000000E+00 -0.32111933706E+03  0.32111933706E+03  0.00000000000E+00 0. -1.
         24    2    1    2    0    0 -0.40689576253E+02  0.78013904088E+02 -0.28013955165E+03  0.30441310809E+03  0.80295461478E+02 0.  0.
         25    2    1    2    0    0  0.70085361624E+02 -0.92801422371E+02  0.23953453886E+03  0.29419075028E+03  0.12508932942E+03 0.  0.
        -24    2    1    2    0    0 -0.29395785371E+02  0.14787518283E+02  0.12410620682E+04  0.12440918712E+04  0.80291617689E+02 0.  0.
        -13    1    3    3    0    0 -0.19879209379E+02  0.28082893704E+02 -0.22395030978E+02  0.41053249528E+02  0.00000000000E+00 0.  1.
         14    1    3    3    0    0 -0.20810366874E+02  0.49931010384E+02 -0.25774452067E+03  0.26335985856E+03  0.00000000000E+00 0. -1.
         13    1    5    5    0    0 -0.31678216229E+02 -0.78034396757E+01  0.11417973158E+04  0.11422633293E+04  0.00000000000E+00 0. -1.
        -14    1    5    5    0    0  0.22824308582E+01  0.22590957959E+02  0.99264752364E+02  0.10182854184E+03  0.00000000000E+00 0.  1.
          5    1    4    4  501    0 -0.20734922643E+02 -0.68298474477E+02  0.68866102516E+02  0.99270494653E+02  0.41800000000E+01 0. -1.
         -5    1    4    4    0  501  0.90820284267E+02 -0.24502947894E+02  0.17066843635E+03  0.19492025563E+03  0.41800000000E+01 0. -1.
</event>
<event>
11    1  0.8299058E-009  0.1267370E+03  0.7561462E-02  0.1123344E+00
         22   -1    0    0    0    0  0.00000000000E+00  0.00000000000E+00  0.10966339220E+04  0.10966339220E+04  0.00000000000E+00 0. -1.
         22   -1    0    0    0    0 -0.00000000000E+00 -0.00000000000E+00 -0.12017657109E+03  0.12017657109E+03  0.00000000000E+00 0.  1.
         24    2    1    2    0    0  0.33068399453E+01  0.11262984204E+02 -0.59412194531E+02  0.12629473670E+03  0.11082762136E+03 0.  0.
         25    2    1    2    0    0 -0.48315741904E+01 -0.80680112232E+02  0.20606400553E+03  0.25424835057E+03  0.12508886750E+03 0.  0.
        -24    2    1    2    0    0  0.15247342451E+01  0.69417128028E+02  0.82980553996E+03  0.83626740586E+03  0.77103031607E+02 0.  0.
        -13    1    3    3    0    0 -0.91313406453E+01 -0.40640855210E+02 -0.59851493050E+02  0.72919556461E+02  0.00000000000E+00 0.  1.
         14    1    3    3    0    0  0.12438180591E+02  0.51903839414E+02  0.43929851846E+00  0.53375180238E+02  0.00000000000E+00 0. -1.
         13    1    5    5    0    0 -0.14141653262E+02  0.21188991674E+02  0.61616142125E+03  0.61668781142E+03  0.00000000000E+00 0. -1.
        -14    1    5    5    0    0  0.15666387507E+02  0.48228136355E+02  0.21364411871E+03  0.21957959444E+03  0.00000000000E+00 0.  1.
          5    1    4    4  501    0  0.43600156051E+02 -0.59139161034E+02  0.48960947270E+02  0.88391519577E+02  0.41800000000E+01 0. -1.
         -5    1    4    4    0  501 -0.48431730242E+02 -0.21540951198E+02  0.15710305826E+03  0.16585683099E+03  0.41800000000E+01 0. -1.
</event>
<event>
11    1  0.8299058E-009  0.1808211E+03  0.7561462E-02  0.1068981E+00
         22   -1    0    0    0    0  0.00000000000E+00  0.00000000000E+00  0.54336255822E+03  0.54336255822E+03  0.00000000000E+00 0. -1.
         22   -1    0    0    0    0 -0.00000000000E+00 -0.00000000000E+00 -0.49140692559E+03  0.49140692559E+03  0.00000000000E+00 0.  1.
         24    2    1    2    0    0  0.11116298024E+03  0.52529809700E+02 -0.25689150951E+03  0.29612854886E+03  0.81131256021E+02 0.  0.
         25    2    1    2    0    0 -0.13494718271E+03 -0.60164472758E+02 -0.16682412864E+03  0.25556745773E+03  0.12511566510E+03 0.  0.
        -24    2    1    2    0    0  0.23784202465E+02  0.76346630581E+01  0.47567127078E+03  0.48307347722E+03  0.80454025260E+02 0.  0.
        -11    1    3    3    0    0  0.47426569748E+02  0.63884394091E+02 -0.17069297905E+03  0.18832575082E+03  0.00000000000E+00 0.  1.
         12    1    3    3    0    0  0.63736410495E+02 -0.11354584391E+02 -0.86198530467E+02  0.10780279803E+03  0.00000000000E+00 0. -1.
         13    1    5    5    0    0  0.41350875953E+02  0.30618179300E+02  0.36817476203E+03  0.37175263717E+03  0.00000000000E+00 0. -1.
        -14    1    5    5    0    0 -0.17566673488E+02 -0.22983516242E+02  0.10749650875E+03  0.11132084005E+03  0.00000000000E+00 0.  1.
          5    1    4    4  501    0 -0.97156026545E+02 -0.54883195321E+02 -0.33135663571E+02  0.11647705020E+03  0.41800000000E+01 0.  1.
         -5    1    4    4    0  501 -0.37791156164E+02 -0.52812774378E+01 -0.13368846507E+03  0.13909040754E+03  0.41800000000E+01 0.  1.
</event>
<event>
11    1  0.8299058E-009  0.1315765E+03  0.7561462E-02  0.1117347E+00
         22   -1    0    0    0    0  0.00000000000E+00  0.00000000000E+00  0.50263535618E+03  0.50263535618E+03  0.00000000000E+00 0. -1.
         22   -1    0    0    0    0 -0.00000000000E+00 -0.00000000000E+00 -0.46729650383E+03  0.46729650383E+03  0.00000000000E+00 0.  1.
         24    2    1    2    0    0  0.15614035066E+02  0.23952379944E+02 -0.43453250591E+03  0.44313643284E+03  0.82060251194E+02 0.  0.
         25    2    1    2    0    0 -0.51164487587E+02 -0.26282313964E+02  0.20872453049E+03  0.25004237810E+03  0.12508675550E+03 0.  0.
        -24    2    1    2    0    0  0.35550452521E+02  0.23299340204E+01  0.26114682776E+03  0.27675304906E+03  0.84411617954E+02 0.  0.
        -13    1    3    3    0    0  0.37056623612E+02  0.43621760797E+02 -0.26331010275E+03  0.26945920207E+03  0.00000000000E+00 0.  1.
         14    1    3    3    0    0 -0.21442588545E+02 -0.19669380853E+02 -0.17122240316E+03  0.17367723078E+03  0.00000000000E+00 0. -1.
         13    1    5    5    0    0  0.55107720570E+02 -0.14089593885E+02  0.22755959640E+03  0.23456075426E+03  0.00000000000E+00 0. -1.
        -14    1    5    5    0    0 -0.19557268050E+02  0.16419527906E+02  0.33587231359E+02  0.42192294801E+02  0.00000000000E+00 0.  1.
          5    1    4    4  501    0 -0.87511901521E+02 -0.17994751740E+02  0.18545920711E+03  0.20589981520E+03  0.41800000000E+01 0.  1.
         -5    1    4    4    0  501  0.36347413934E+02 -0.82875622243E+01  0.23265323380E+02  0.44142562899E+02  0.41800000000E+01 0.  1.
</event>
<event>
11    1  0.8299058E-009  0.1406589E+03  0.7561462E-02  0.1106825E+00
         22   -1    0    0    0    0  0.00000000000E+00  0.00000000000E+00  0.46627321313E+03  0.46627321313E+03  0.00000000000E+00 0.  1.
         22   -1    0    0    0    0 -0.00000000000E+00 -0.00000000000E+00 -0.81328785392E+03  0.81328785392E+03  0.00000000000E+00 0. -1.
         24    2    1    2    0    0  0.12527071149E+02 -0.13910437841E+02 -0.62258017511E+03  0.62797968356E+03  0.80012378624E+02 0.  0.
         25    2    1    2    0    0  0.25249658578E+02 -0.38884707645E+02 -0.15753577424E+03  0.20643308948E+03  0.12509010560E+03 0.  0.
        -24    2    1    2    0    0 -0.37776729727E+02  0.52795145486E+02  0.43310130856E+03  0.44514829402E+03  0.79786286412E+02 0.  0.
        -13    1    3    3    0    0  0.13187733897E+02  0.27228132766E+02 -0.42951265179E+03  0.43057682890E+03  0.00000000000E+00 0.  1.
         14    1    3    3    0    0 -0.66066274813E+00 -0.41138570607E+02 -0.19306752332E+03  0.19740285466E+03  0.00000000000E+00 0. -1.
         13    1    5    5    0    0 -0.10997352247E+02  0.51756913113E+02  0.12309094474E+03  0.13398171699E+03  0.00000000000E+00 0. -1.
        -14    1    5    5    0    0 -0.26779377480E+02  0.10382323732E+01  0.31001036382E+03  0.31116657703E+03  0.00000000000E+00 0.  1.
          5    1    4    4  501    0 -0.17663410874E+02  0.35158156759E+02 -0.19857340884E+02  0.44270514537E+02  0.41800000000E+01 0.  1.
         -5    1    4    4    0  501  0.42913069452E+02 -0.74042864404E+02 -0.13767843336E+03  0.16216257494E+03  0.41800000000E+01 0.  1.
</event>
<event>
11    1  0.8299058E-009  0.1387328E+03  0.7561462E-02  0.1108982E+00
         22   -1    0    0    0    0  0.00000000000E+00  0.00000000000E+00  0.15911398903E+03  0.15911398903E+03  0.00000000000E+00 0.  1.
         22   -1    0    0    0    0 -0.00000000000E+00 -0.00000000000E+00 -0.61871974136E+03  0.61871974136E+03  0.00000000000E+00 0. -1.
         24    2    1    2    0    0 -0.30269408502E+02  0.27207097849E+01 -0.47592784185E+03  0.48425190146E+03  0.84077072188E+02 0.  0.
         25    2    1    2    0    0 -0.54736629640E+01  0.49185539969E+02 -0.77216090747E+02  0.15510861829E+03  0.12508869041E+03 0.  0.
        -24    2    1    2    0    0  0.35743071466E+02 -0.51906249754E+02  0.93538180263E+02  0.13847321064E+03  0.80334382280E+02 0.  0.
        -13    1    3    3    0    0 -0.40319911665E+02  0.28871308305E+02 -0.17116526584E+03  0.17820436568E+03  0.00000000000E+00 0.  1.
         14    1    3    3    0    0  0.10050503163E+02 -0.26150598520E+02 -0.30476257601E+03  0.30604753577E+03  0.00000000000E+00 0. -1.
         11    1    5    5    0    0  0.38909292746E+01 -0.48968062333E+02  0.11544176087E+02  0.50460662509E+02  0.00000000000E+00 0. -1.
        -12    1    5    5    0    0  0.31852142192E+02 -0.29381874209E+01  0.81994004176E+02  0.88012548130E+02  0.00000000000E+00 0.  1.
          5    1    4    4  501    0  0.10054208535E+02  0.71112533284E+02  0.13667447627E+01  0.71954290286E+02  0.41800000000E+01 0.  1.
         -5    1    4    4    0  501 -0.15527871499E+02 -0.21926993314E+02 -0.78582835510E+02  0.83154328005E+02  0.41800000000E+01 0.  1.
</event>
<event>
11    1  0.8299058E-009  0.9265644E+03  0.7561462E-02  0.8752180E-01
         22   -1    0    0    0    0  0.00000000000E+00  0.00000000000E+00  0.82460643339E+03  0.82460643339E+03  0.00000000000E+00 0. -1.
         22   -1    0    0    0    0 -0.00000000000E+00 -0.00000000000E+00 -0.26028220115E+03  0.26028220115E+03  0.00000000000E+00 0. -1.
        -24    2    1    2    0    0 -0.10440787822E+02 -0.14615967483E+03  0.12672392180E+02  0.16722416078E+03  0.79571790404E+02 0.  0.
         25    2    1    2    0    0 -0.15249616939E+03  0.38167871851E+03  0.38179886252E+03  0.57476174358E+03  0.12508782763E+03 0.  0.
         24    2    1    2    0    0  0.16293695722E+03 -0.23551904367E+03  0.16985297754E+03  0.34290273018E+03  0.81942519045E+02 0.  0.
        -11    1    5    5    0    0  0.74790972459E+02 -0.43622084924E+02  0.53904605379E+02  0.10199157973E+03  0.00000000000E+00 0.  1.
         12    1    5    5    0    0  0.88145984758E+02 -0.19189695875E+03  0.11594837216E+03  0.24091115045E+03  0.00000000000E+00 0. -1.
         13    1    3    3    0    0  0.30583092524E+01 -0.36778950830E+02  0.39227562492E+02  0.53859503699E+02  0.00000000000E+00 0. -1.
        -14    1    3    3    0    0 -0.13499097074E+02 -0.10938072400E+03 -0.26555170312E+02  0.11336465708E+03  0.00000000000E+00 0.  1.
          5    1    4    4  501    0 -0.14260705242E+01  0.87968287031E+02  0.14001426778E+03  0.16541439110E+03  0.41800000000E+01 0. -1.
         -5    1    4    4    0  501 -0.15107009887E+03  0.29371043148E+03  0.24178459474E+03  0.40934735248E+03  0.41800000000E+01 0. -1.
</event>
<event>
11    1  0.8299058E-009  0.2168455E+03  0.7561462E-02  0.1043212E+00
         22   -1    0    0    0    0  0.00000000000E+00  0.00000000000E+00  0.62386923005E+03  0.62386923005E+03  0.00000000000E+00 0. -1.
         22   -1    0    0    0    0 -0.00000000000E+00 -0.00000000000E+00 -0.25330734252E+03  0.25330734252E+03  0.00000000000E+00 0. -1.
        -24    2    1    2    0    0  0.20964107413E+01 -0.50723020292E+02 -0.53466408008E+02  0.10885365722E+03  0.80082720861E+02 0.  0.
         25    2    1    2    0    0 -0.12313090049E+03  0.17435886977E+03 -0.53928977888E+02  0.25321803198E+03  0.12509517553E+03 0.  0.
         24    2    1    2    0    0  0.12103448974E+03 -0.12363584948E+03  0.47795727343E+03  0.51510488336E+03  0.83394931850E+02 0.  0.
        -11    1    5    5    0    0 -0.12657636807E+02 -0.65428871811E+01  0.31347838586E+02  0.34434170910E+02  0.00000000000E+00 0.  1.
         12    1    5    5    0    0  0.13369212655E+03 -0.11709296229E+03  0.44660943484E+03  0.48067071245E+03  0.00000000000E+00 0. -1.
         13    1    3    3    0    0 -0.22048295947E+02 -0.33422600731E+02 -0.65529935555E+02  0.76794336039E+02  0.00000000000E+00 0. -1.
        -14    1    3    3    0    0  0.24144706688E+02 -0.17300419561E+02  0.12063527547E+02  0.32059321186E+02  0.00000000000E+00 0.  1.
          5    1    4    4  501    0 -0.90133952793E+02  0.12422578612E+03 -0.94836398714E+02  0.18046492818E+03  0.41800000000E+01 0. -1.
         -5    1    4    4    0  501 -0.32996947692E+02  0.50133083651E+02  0.40907420826E+02  0.72753103797E+02  0.41800000000E+01 0. -1.
</event>
<event>
11    1  0.8299058E-009  0.1788210E+03  0.7561462E-02  0.1070600E+00
         22   -1    0    0    0    0  0.00000000000E+00  0.00000000000E+00  0.12960031055E+04  0.12960031055E+04  0.00000000000E+00 0.  1.
         22   -1    0    0    0    0 -0.00000000000E+00 -0.00000000000E+00 -0.45934736117E+03  0.45934736117E+03  0.00000000000E+00 0.  1.
         24    2    1    2    0    0  0.16313122467E+01  0.43611826856E+02 -0.34108029659E+03  0.35310012397E+03  0.80245100816E+02 0.  0.
         25    2    1    2    0    0  0.12127792538E+03 -0.65782571378E+01 -0.36907439113E+02  0.17821644956E+03  0.12508930881E+03 0.  0.
        -24    2    1    2    0    0 -0.12290923763E+03 -0.37033569718E+02  0.12146434800E+04  0.12240338931E+04  0.80137519266E+02 0.  0.
        -13    1    3    3    0    0  0.11228181929E+02  0.56789648529E+02 -0.32530286753E+03  0.33041351648E+03  0.00000000000E+00 0.  1.
         14    1    3    3    0    0 -0.95968696819E+01 -0.13177821673E+02 -0.15777429063E+02  0.22686607494E+02  0.00000000000E+00 0. -1.
         11    1    5    5    0    0 -0.12731703576E+02 -0.66828859183E+01  0.24437790645E+02  0.28354238691E+02  0.00000000000E+00 0. -1.
        -12    1    5    5    0    0 -0.11017753405E+03 -0.30350683800E+02  0.11902056893E+04  0.11956796544E+04  0.00000000000E+00 0.  1.
          5    1    4    4  501    0 -0.26899968572E+01 -0.30097757872E+02 -0.41948055277E+02  0.51867358266E+02  0.41800000000E+01 0. -1.
         -5    1    4    4    0  501  0.12396792224E+03  0.23519500735E+02  0.50406161642E+01  0.12634909129E+03  0.41800000000E+01 0. -1.
</event>
<event>
11    1  0.8299058E-009  0.1302197E+03  0.7561462E-02  0.1118999E+00
         22   -1    0    0    0    0  0.00000000000E+00  0.00000000000E+00  0.37925531169E+03  0.37925531169E+03  0.00000000000E+00 0. -1.
         22   -1    0    0    0    0 -0.00000000000E+00 -0.00000000000E+00 -0.56748632686E+03  0.56748632686E+03  0.00000000000E+00 0.  1.
         24    2    1    2    0    0  0.27282140704E+02 -0.63343369796E+01 -0.44747626179E+03  0.45527275999E+03  0.79081237296E+02 0.  0.
         25    2    1    2    0    0 -0.24105987742E+02 -0.30131700932E+02 -0.71499983241E+02  0.14915856622E+03  0.12508801792E+03 0.  0.
        -24    2    1    2    0    0 -0.31761529620E+01  0.36466037912E+02  0.33074522986E+03  0.34231031234E+03  0.80275045874E+02 0.  0.
        -13    1    3    3    0    0  0.41645135019E+02  0.45421948974E+01 -0.42197433205E+03  0.42404868318E+03  0.00000000000E+00 0.  1.
         14    1    3    3    0    0 -0.14362994315E+02 -0.10876531877E+02 -0.25501929746E+02  0.31224076801E+02  0.00000000000E+00 0. -1.
         11    1    5    5    0    0  0.29152275870E+02  0.28763162577E+02  0.26982148071E+03  0.27291171862E+03  0.00000000000E+00 0. -1.
        -12    1    5    5    0    0 -0.32328428832E+02  0.77028753353E+01  0.60923749153E+02  0.69398593718E+02  0.00000000000E+00 0.  1.
          5    1    4    4  501    0 -0.45749822441E+02 -0.66851512756E+02 -0.22702837177E+02  0.84232192344E+02  0.41800000000E+01 0. -1.
         -5    1    4    4    0  501  0.21643834699E+02  0.36719811824E+02 -0.48797146065E+02  0.64926373878E+02  0.41800000000E+01 0. -1.
</event>
<event>
11    1  0.8299058E-009  0.1471956E+03  0.7561462E-02  0.1099779E+00
         22   -1    0    0    0    0  0.00000000000E+00  0.00000000000E+00  0.14684065585E+04  0.14684065585E+04  0.00000000000E+00 0. -1.
         22   -1    0    0    0    0 -0.00000000000E+00 -0.00000000000E+00 -0.58515279171E+02  0.58515279171E+02  0.00000000000E+00 0. -1.
         24    2    1    2    0    0 -0.35621356375E+02  0.60084681563E+02  0.40898678205E+02  0.11371540012E+03  0.79871398862E+02 0.  0.
         25    2    1    2    0    0  0.45510812747E+02 -0.10446225352E+03  0.33743169071E+03  0.37748158789E+03  0.12509439161E+03 0.  0.
        -24    2    1    2    0    0 -0.98894563723E+01  0.44377571961E+02  0.10315609104E+04  0.10357248497E+04  0.80875719969E+02 0.  0.
        -13    1    3    3    0    0 -0.96382356329E+01  0.76772916355E+01  0.52632089306E+02  0.54055279277E+02  0.00000000000E+00 0.  1.
         14    1    3    3    0    0 -0.25983120742E+02  0.52407389928E+02 -0.11733411101E+02  0.59660120840E+02  0.00000000000E+00 0. -1.
         13    1    5    5    0    0 -0.13775688315E+02  0.21708600433E+02  0.96425495529E+03  0.96459766314E+03  0.00000000000E+00 0. -1.
        -14    1    5    5    0    0  0.38862319426E+01  0.22668971528E+02  0.67305955126E+02  0.71127186534E+02  0.00000000000E+00 0.  1.
          5    1    4    4  501    0 -0.38371608608E+02 -0.42929133562E+02  0.17744620348E+03  0.18660096030E+03  0.41800000000E+01 0. -1.
         -5    1    4    4    0  501  0.83882421355E+02 -0.61533119962E+02  0.15998548723E+03  0.19088062759E+03  0.41800000000E+01 0. -1.
</event>
<event>
11    1  0.9970032E-009  0.2492255E+03  0.7561462E-02  0.1024313E+00
         22   -1    0    0    0    0  0.00000000000E+00  0.00000000000E+00  0.11053119962E+04  0.11053119962E+04  0.00000000000E+00 0.  1.
         22   -1    0    0    0    0 -0.00000000000E+00 -0.00000000000E+00 -0.66376004897E+03  0.66376004897E+03  0.00000000000E+00 0. -1.
         24    2    1    2    0    0 -0.12528695958E+03  0.14977647302E+03 -0.33783666207E+03  0.39865151128E+03  0.81606391259E+02 0.  0.
         25    2    1    2    0    0  0.95257279672E+02 -0.26456842193E+03 -0.20877258246E+03  0.37189624893E+03  0.12510167691E+03 0.  0.
        -24    2    1    2    0    0  0.30029679909E+02  0.11479194891E+03  0.98816119175E+03  0.99852428495E+03  0.80679821168E+02 0.  0.
        -13    1    3    3    0    0 -0.62227282693E+02  0.16846336959E+02 -0.10646638882E+03  0.12446335095E+03  0.00000000000E+00 0.  1.
         14    1    3    3    0    0 -0.63059676888E+02  0.13293013607E+03 -0.23137027324E+03  0.27418816033E+03  0.00000000000E+00 0. -1.
         11    1    5    5    0    0  0.17484749220E+02 -0.79371251451E+01  0.98957703715E+02  0.10080347978E+03  0.00000000000E+00 0. -1.
        -12    1    5    5    0    0  0.12544930689E+02  0.12272907405E+03  0.88920348804E+03  0.89772080517E+03  0.00000000000E+00 0.  1.
          5    1    4    4  501    0 -0.25427548787E+02 -0.66880497121E+02 -0.77800421716E+02  0.10578250872E+03  0.41800000000E+01 0. -1.
         -5    1    4    4    0  501  0.12068482846E+03 -0.19768792481E+03 -0.13097216074E+03  0.26611374021E+03  0.41800000000E+01 0. -1.
</event>
<event>
11    1  0.8299058E-009  0.1531167E+03  0.7561462E-02  0.1093736E+00
         22   -1    0    0    0    0  0.00000000000E+00  0.00000000000E+00  0.73634602294E+03  0.73634602294E+03  0.00000000000E+00 0. -1.
         22   -1    0    0    0    0 -0.00000000000E+00 -0.00000000000E+00 -0.83032071755E+03  0.83032071755E+03  0.00000000000E+00 0. -1.
         24    2    1    2    0    0  0.46346990774E+02  0.79541187446E+02 -0.70481521854E+03  0.71501155736E+03  0.77473807315E+02 0.  0.
         25    2    1    2    0    0  0.22397105627E+02 -0.73686381170E+02 -0.69974035541E+02  0.16270939804E+03  0.12508664777E+03 0.  0.
        -24    2    1    2    0    0 -0.68744096401E+02 -0.58548062769E+01  0.68081455947E+03  0.68894578510E+03  0.79861134927E+02 0.  0.
        -13    1    3    3    0    0  0.56640632352E+01  0.18273017225E+02 -0.26298717483E+02  0.32520875020E+02  0.00000000000E+00 0.  1.
         14    1    3    3    0    0  0.40682927539E+02  0.61268170222E+02 -0.67851650105E+03  0.68249068234E+03  0.00000000000E+00 0. -1.
         13    1    5    5    0    0 -0.29857130876E+02 -0.29371010097E+02  0.13757840685E+03  0.14381210842E+03  0.00000000000E+00 0. -1.
        -14    1    5    5    0    0 -0.38886965525E+02  0.23516203820E+02  0.54323615262E+03  0.54513367667E+03  0.00000000000E+00 0.  1.
          5    1    4    4  501    0 -0.47141349984E+02 -0.40630609257E+01 -0.31363915968E+02  0.56920848265E+02  0.41800000000E+01 0.  1.
         -5    1    4    4    0  501  0.69538455611E+02 -0.69623320244E+02 -0.38610119573E+02  0.10578854978E+03  0.41800000000E+01 0.  1.
</event>
<event>
11    1  0.8299058E-009  0.1543488E+03  0.7561462E-02  0.1092516E+00
         22   -1    0    0    0    0  0.00000000000E+00  0.00000000000E+00  0.67964006494E+03  0.67964006494E+03  0.00000000000E+00 0. -1.
         22   -1    0    0    0    0 -0.00000000000E+00 -0.00000000000E+00 -0.51313938822E+03  0.51313938822E+03  0.00000000000E+00 0. -1.
        -24    2    1    2    0    0  0.12193411666E+02  0.90951043048E+02 -0.43474920792E+03  0.45151456308E+03  0.80235624032E+02 0.  0.
         25    2    1    2    0    0 -0.48932465719E+02 -0.69793787754E+02  0.20069250874E+02  0.15270300161E+03  0.12509945188E+03 0.  0.
         24    2    1    2    0    0  0.36739054053E+02 -0.21157255294E+02  0.58118063378E+03  0.58856188846E+03  0.82684822872E+02 0.  0.
        -13    1    5    5    0    0 -0.22036386808E+02 -0.78203050658E+01  0.30432744173E+03  0.30522442777E+03  0.00000000000E+00 0.  1.
         14    1    5    5    0    0  0.58775440861E+02 -0.13336950228E+02  0.27685319204E+03  0.28333746070E+03  0.00000000000E+00 0. -1.
         11    1    3    3    0    0 -0.28001341472E+02  0.72365863747E+02 -0.28046499115E+03  0.29100086705E+03  0.00000000000E+00 0. -1.
        -12    1    3    3    0    0  0.40194753138E+02  0.18585179301E+02 -0.15428421677E+03  0.16051369603E+03  0.00000000000E+00 0.  1.
          5    1    4    4  501    0 -0.65146255148E+02 -0.29934414565E+02 -0.37254170348E+02  0.80903951347E+02  0.41800000000E+01 0. -1.
         -5    1    4    4    0  501  0.16213789429E+02 -0.39859373189E+02  0.57323421222E+02  0.71799050267E+02  0.41800000000E+01 0. -1.
</event>
<event>
11    1  0.8299058E-009  0.1397074E+03  0.7561462E-02  0.1107886E+00
         22   -1    0    0    0    0  0.00000000000E+00  0.00000000000E+00  0.11950181810E+03  0.11950181810E+03  0.00000000000E+00 0.  1.
         22   -1    0    0    0    0 -0.00000000000E+00 -0.00000000000E+00 -0.16914028538E+04  0.16914028538E+04  0.00000000000E+00 0. -1.
         24    2    1    2    0    0  0.34745410942E+02  0.58897050288E+01 -0.90106167776E+03  0.90325460506E+03  0.52103764044E+02 0.  0.
         25    2    1    2    0    0 -0.14963584340E+02 -0.65022680172E+02 -0.75971823940E+03  0.77283405337E+03  0.12509521564E+03 0.  0.
        -24    2    1    2    0    0 -0.19781826602E+02  0.59132975144E+02  0.88878881492E+02  0.13481601344E+03  0.79924167134E+02 0.  0.
        -13    1    3    3    0    0  0.17114229825E+01 -0.18746099257E+02 -0.17149004798E+03  0.17252009090E+03  0.00000000000E+00 0.  1.
         14    1    3    3    0    0  0.33033987959E+02  0.24635804285E+02 -0.72957162978E+03  0.73073451417E+03  0.00000000000E+00 0. -1.
         11    1    5    5    0    0  0.26120310202E+02  0.23801898901E+02  0.95795139515E+01  0.36613769048E+02  0.00000000000E+00 0. -1.
        -12    1    5    5    0    0 -0.45902136804E+02  0.35331076242E+02  0.79299367540E+02  0.98202244393E+02  0.00000000000E+00 0.  1.
          5    1    4    4  501    0 -0.41305237029E+02  0.72379643391E+01 -0.98391410973E+02  0.10703668944E+03  0.41800000000E+01 0.  1.
         -5    1    4    4    0  501  0.26341652689E+02 -0.72260644512E+02 -0.66132682842E+03  0.66579736392E+03  0.41800000000E+01 0.  1.
</event>
<event>
11    1  0.8299058E-009  0.1365111E+03  0.7561462E-02  0.1111518E+00
         22   -1    0    0    0    0  0.00000000000E+00  0.00000000000E+00  0.14100830258E+03  0.14100830258E+03  0.00000000000E+00 0. -1.
         22   -1    0    0    0    0 -0.00000000000E+00 -0.00000000000E+00 -0.19687299350E+04  0.19687299350E+04  0.00000000000E+00 0.  1.
         24    2    1    2    0    0 -0.59851562107E+01  0.21550454394E+02 -0.16174398403E+04  0.16195976203E+04  0.80526831269E+02 0.  0.
         25    2    1    2    0    0  0.48268420696E+02 -0.54559662391E+02 -0.31461272081E+03  0.34631663670E+03  0.12508977402E+03 0.  0.
        -24    2    1    2    0    0 -0.42283264486E+02  0.33009207997E+02  0.10433092863E+03  0.14382398062E+03  0.83204041148E+02 0.  0.
        -11    1    3    3    0    0  0.27327398379E+02  0.67500717003E+01 -0.12578397419E+04  0.12581546672E+04  0.00000000000E+00 0.  1.
         12    1    3    3    0    0 -0.33312554589E+02  0.14800382694E+02 -0.35960009834E+03  0.36144295310E+03  0.00000000000E+00 0. -1.
         11    1    5    5    0    0  0.15663711522E+02 -0.84711068539E+01  0.53237976882E+02  0.56137275427E+02  0.00000000000E+00 0. -1.
        -12    1    5    5    0    0 -0.57946976007E+02  0.41480314851E+02  0.51092951749E+02  0.87686705189E+02  0.00000000000E+00 0.  1.
          5    1    4    4  501    0  0.25432074140E+02  0.24770493701E+02 -0.21371006871E+02  0.41648050229E+02  0.41800000000E+01 0.  1.
         -5    1    4    4    0  501  0.22836346557E+02 -0.79330156092E+02 -0.29324171394E+03  0.30466858647E+03  0.41800000000E+01 0.  1.
</event>
<event>
11    1  0.8299058E-009  0.1520232E+03  0.7561462E-02  0.1094829E+00
         22   -1    0    0    0    0  0.00000000000E+00  0.00000000000E+00  0.11237469929E+04  0.11237469929E+04  0.00000000000E+00 0. -1.
         22   -1    0    0    0    0 -0.00000000000E+00 -0.00000000000E+00 -0.60570557573E+03  0.60570557573E+03  0.00000000000E+00 0. -1.
        -24    2    1    2    0    0  0.46629555552E+02 -0.71197742904E+02 -0.55323139142E+03  0.56509586598E+03  0.77620430629E+02 0.  0.
         25    2    1    2    0    0 -0.22822653975E+02  0.14145740889E+03  0.16612212458E+03  0.25254017195E+03  0.12509558788E+03 0.  0.
         24    2    1    2    0    0 -0.23806901577E+02 -0.70259665991E+02  0.90515068398E+03  0.91181653068E+03  0.81292285487E+02 0.  0.
        -11    1    5    5    0    0 -0.22707986769E+02  0.13395139288E+02  0.20848062064E+03  0.21014102789E+03  0.00000000000E+00 0.  1.
         12    1    5    5    0    0 -0.10989148081E+01 -0.83654805279E+02  0.69667006334E+03  0.70167550279E+03  0.00000000000E+00 0. -1.
         11    1    3    3    0    0  0.64304402592E+02 -0.58665559294E+02 -0.50169458908E+03  0.50918971391E+03  0.00000000000E+00 0. -1.
        -12    1    3    3    0    0 -0.17674847041E+02 -0.12532183610E+02 -0.51536802340E+02  0.55906152071E+02  0.00000000000E+00 0.  1.
          5    1    4    4  501    0  0.16444152890E+02  0.14182785953E+03  0.15651866446E+03  0.21189883583E+03  0.41800000000E+01 0.  1.
         -5    1    4    4    0  501 -0.39266806865E+02 -0.37045063342E+00  0.96034601157E+01  0.40641336115E+02  0.41800000000E+01 0.  1.
</event>
<event>
11    1  0.8299058E-009  0.1308188E+03  0.7561462E-02  0.1118267E+00
         22   -1    0    0    0    0  0.00000000000E+00  0.00000000000E+00  0.34297481413E+03  0.34297481413E+03  0.00000000000E+00 0. -1.
         22   -1    0    0    0    0 -0.00000000000E+00 -0.00000000000E+00 -0.34154946239E+03  0.34154946239E+03  0.00000000000E+00 0. -1.
         24    2    1    2    0    0 -0.29137928210E+02  0.40119906189E+02 -0.23046752231E+03  0.25104368282E+03  0.86307740746E+02 0.  0.
         25    2    1    2    0    0 -0.14769470186E+01  0.94756437937E+01 -0.49629367966E+02  0.13491443411E+03  0.12508741411E+03 0.  0.
        -24    2    1    2    0    0  0.30614875228E+02 -0.49595549983E+02  0.28152224201E+03  0.29856615959E+03  0.80560472582E+02 0.  0.
        -13    1    3    3    0    0  0.12926272126E+02  0.37716471031E+02 -0.41945682264E+02  0.57871071864E+02  0.00000000000E+00 0.  1.
         14    1    3    3    0    0 -0.42064200336E+02  0.24034351580E+01 -0.18852184004E+03  0.19317261096E+03  0.00000000000E+00 0. -1.
         13    1    5    5    0    0  0.39999145200E+01  0.18419308875E+02  0.11770884510E+03  0.11920839933E+03  0.00000000000E+00 0. -1.
        -14    1    5    5    0    0  0.26614960708E+02 -0.68014858858E+02  0.16381339692E+03  0.17935776027E+03  0.00000000000E+00 0.  1.
          5    1    4    4  501    0  0.53727100597E+02 -0.43705159248E+01  0.70006027528E+01  0.54517736443E+02  0.41800000000E+01 0. -1.
         -5    1    4    4    0  501 -0.55204047616E+02  0.13846159719E+02 -0.56629970719E+02  0.80396697667E+02  0.41800000000E+01 0. -1.
</event>
<event>
11    1  0.8299058E-009  0.1484402E+03  0.7561462E-02  0.1098483E+00
         22   -1    0    0    0    0  0.00000000000E+00  0.00000000000E+00  0.20044184315E+04  0.20044184315E+04  0.00000000000E+00 0. -1.
         22   -1    0    0    0    0 -0.00000000000E+00 -0.00000000000E+00 -0.26681667583E+03  0.26681667583E+03  0.00000000000E+00 0. -1.
         24    2    1    2    0    0 -0.75344471141E+02 -0.34223443555E+02 -0.23572618045E+03  0.26234498122E+03  0.80062622977E+02 0.  0.
         25    2    1    2    0    0  0.20874036161E+02  0.18217942125E+02  0.23448377675E+03  0.26720273885E+03  0.12508814207E+03 0.  0.
        -24    2    1    2    0    0  0.54470434981E+02  0.16005501430E+02  0.17388441594E+04  0.17416873873E+04  0.81686841155E+02 0.  0.
        -13    1    3    3    0    0  0.22182016180E+01 -0.13451055691E+02 -0.33659451731E+00  0.13636884303E+02  0.00000000000E+00 0.  1.
         14    1    3    3    0    0 -0.77562672759E+02 -0.20772387864E+02 -0.23538958593E+03  0.24870809691E+03  0.00000000000E+00 0. -1.
         13    1    5    5    0    0  0.71053464921E+02  0.90341064146E+01  0.16101244130E+04  0.16117167354E+04  0.00000000000E+00 0. -1.
        -14    1    5    5    0    0 -0.16583029940E+02  0.69713950154E+01  0.12871974642E+03  0.12997065188E+03  0.00000000000E+00 0.  1.
          5    1    4    4  501    0 -0.32743249434E+02 -0.29701936110E+02  0.39838173580E+02  0.59656331319E+02  0.41800000000E+01 0. -1.
         -5    1    4    4    0  501  0.53617285595E+02  0.47919878235E+02  0.19464560317E+03  0.20754640753E+03  0.41800000000E+01 0. -1.
</event>
<event>
11    1  0.8299058E-009  0.1597745E+03  0.7561462E-02  0.1087290E+00
         22   -1    0    0    0    0  0.00000000000E+00  0.00000000000E+00  0.26084621065E+04  0.26084621065E+04  0.00000000000E+00 0.  1.
         22   -1    0    0    0    0 -0.00000000000E+00 -0.00000000000E+00 -0.79788624146E+02  0.79788624146E+02  0.00000000000E+00 0. -1.
        -24    2    1    2    0    0  0.27789306038E+02 -0.98302427248E+02  0.83374918667E+00  0.14169777966E+03  0.98193446269E+02 0.  0.
         25    2    1    2    0    0  0.11328414805E+02  0.78971897691E+02  0.66059328005E+03  0.67705118158E+03  0.12509966917E+03 0.  0.
         24    2    1    2    0    0 -0.39117720843E+02  0.19330529558E+02  0.18672464531E+04  0.18695017694E+04  0.80769323801E+02 0.  0.
        -13    1    5    5    0    0 -0.48604527615E+02 -0.79647919606E+01  0.15881080702E+04  0.15888716376E+04  0.00000000000E+00 0.  1.
         14    1    5    5    0    0  0.94868067729E+01  0.27295321518E+02  0.27913838290E+03  0.28063013182E+03  0.00000000000E+00 0. -1.
         11    1    3    3    0    0  0.54163551409E+02 -0.22564636313E+02 -0.13548667046E+02  0.60219759978E+02  0.00000000000E+00 0. -1.
        -12    1    3    3    0    0 -0.26374245371E+02 -0.75737790936E+02  0.14382416233E+02  0.81478019683E+02  0.00000000000E+00 0.  1.
          5    1    4    4  501    0 -0.33526510267E+02  0.93500128591E+02  0.39821832425E+03  0.41044074738E+03  0.41800000000E+01 0. -1.
         -5    1    4    4    0  501  0.44854925072E+02 -0.14528230900E+02  0.26237495580E+03  0.26661043420E+03  0.41800000000E+01 0. -1.
</event>
<event>
11    1  0.1102860E-008  0.1486064E+03  0.7561462E-02  0.1098311E+00
         22   -1    0    0    0    0  0.00000000000E+00  0.00000000000E+00  0.67630791108E+03  0.67630791108E+03  0.00000000000E+00 0.  1.
         22   -1    0    0    0    0 -0.00000000000E+00 -0.00000000000E+00 -0.74822798264E+03  0.74822798264E+03  0.00000000000E+00 0. -1.
        -24    2    1    2    0    0  0.24170916060E+02 -0.73682767806E+02 -0.57817579539E+03  0.58897046971E+03  0.81151588753E+02 0.  0.
         25    2    1    2    0    0 -0.79377567165E+02  0.12878055632E+03 -0.98896814016E+02  0.21980043592E+03  0.12508565847E+03 0.  0.
         24    2    1    2    0    0  0.55206651105E+02 -0.55097788513E+02  0.60515253786E+03  0.61576498809E+03  0.82905885512E+02 0.  0.
        -13    1    5    5    0    0  0.62076194705E+02 -0.72117492899E+02  0.48911969514E+03  0.49828953722E+03  0.00000000000E+00 0.  1.
         14    1    5    5    0    0 -0.68695436003E+01  0.17019704387E+02  0.11603284271E+03  0.11747545086E+03  0.00000000000E+00 0. -1.
         13    1    3    3    0    0  0.15147507637E+02 -0.81862102036E+02 -0.56471207618E+03  0.57081571433E+03  0.00000000000E+00 0. -1.
        -14    1    3    3    0    0  0.90234084235E+01  0.81793342294E+01 -0.13463719212E+02  0.18154755384E+02  0.00000000000E+00 0.  1.
          5    1    4    4  501    0 -0.35898976894E+02  0.96986422750E+02 -0.12290536089E+03  0.16068074830E+03  0.41800000000E+01 0.  1.
         -5    1    4    4    0  501 -0.43478590272E+02  0.31794133569E+02  0.24008546873E+02  0.59119687621E+02  0.41800000000E+01 0.  1.
</event>
<event>
11    1  0.8299058E-009  0.1311063E+03  0.7561462E-02  0.1117917E+00
         22   -1    0    0    0    0  0.00000000000E+00  0.00000000000E+00  0.12322105689E+04  0.12322105689E+04  0.00000000000E+00 0.  1.
         22   -1    0    0    0    0 -0.00000000000E+00 -0.00000000000E+00 -0.61354679833E+03  0.61354679833E+03  0.00000000000E+00 0. -1.
         24    2    1    2    0    0  0.73726456936E+01 -0.27642685776E+02 -0.41670795409E+03  0.42526318230E+03  0.79904826122E+02 0.  0.
         25    2    1    2    0    0 -0.33733268920E+02  0.56443060538E+02 -0.16473084247E+03  0.21704197866E+03  0.12508883852E+03 0.  0.
        -24    2    1    2    0    0  0.26360623226E+02 -0.28800374763E+02  0.12001025671E+04  0.12034522063E+04  0.80787976388E+02 0.  0.
        -11    1    3    3    0    0  0.31379363009E+02  0.14364401024E+02 -0.13006721860E+03  0.13456775912E+03  0.00000000000E+00 0.  1.
         12    1    3    3    0    0 -0.24006717315E+02 -0.42007086799E+02 -0.28664073548E+03  0.29069542318E+03  0.00000000000E+00 0. -1.
         13    1    5    5    0    0  0.35212832043E+00  0.18694775642E+02  0.84849309722E+02  0.86885119503E+02  0.00000000000E+00 0. -1.
        -14    1    5    5    0    0  0.26008494906E+02 -0.47495150405E+02  0.11152532574E+04  0.11165670868E+04  0.00000000000E+00 0.  1.
          5    1    4    4  501    0  0.20638108046E+02 -0.31434891032E+02 -0.41352812319E+02  0.56050079078E+02  0.41800000000E+01 0.  1.
         -5    1    4    4    0  501 -0.54371376966E+02  0.87877951571E+02 -0.12337803016E+03  0.16099189958E+03  0.41800000000E+01 0.  1.
</event>
<event>
11    1  0.8299058E-009  0.1607399E+03  0.7561462E-02  0.1086383E+00
         22   -1    0    0    0    0  0.00000000000E+00  0.00000000000E+00  0.13304774916E+03  0.13304774916E+03  0.00000000000E+00 0.  1.
         22   -1    0    0    0    0 -0.00000000000E+00 -0.00000000000E+00 -0.13459791955E+04  0.13459791955E+04  0.00000000000E+00 0.  1.
         24    2    1    2    0    0 -0.52792589530E+02 -0.86597473004E+02 -0.11939030903E+04  0.12009765760E+04  0.81571853334E+02 0.  0.
         25    2    1    2    0    0  0.86078667655E+02  0.56510408122E+02 -0.66277182617E+02  0.17505094501E+03  0.12508878911E+03 0.  0.
        -24    2    1    2    0    0 -0.33286078125E+02  0.30087064883E+02  0.47248826495E+02  0.10299942373E+03  0.79769889134E+02 0.  0.
        -11    1    3    3    0    0 -0.63541011918E+02 -0.69989535494E+02 -0.11330978884E+04  0.11370342211E+04  0.00000000000E+00 0.  1.
         12    1    3    3    0    0  0.10748422388E+02 -0.16607937510E+02 -0.60805201879E+02  0.63942354881E+02  0.00000000000E+00 0. -1.
         11    1    5    5    0    0  0.24028161683E+02 -0.34690361166E+00  0.24279577287E+02  0.34160953869E+02  0.00000000000E+00 0. -1.
        -12    1    5    5    0    0 -0.57314239808E+02  0.30433968494E+02  0.22969249208E+02  0.68838469857E+02  0.00000000000E+00 0.  1.
          5    1    4    4  501    0  0.75633049155E+02  0.25480268602E+02 -0.99900486385E+02  0.12793428701E+03  0.41800000000E+01 0.  1.
         -5    1    4    4    0  501  0.10445618500E+02  0.31030139520E+02  0.33623303768E+02  0.47116657997E+02  0.41800000000E+01 0.  1.
</event>
<event>
11    1  0.8299058E-009  0.1456936E+03  0.7561462E-02  0.1101362E+00
         22   -1    0    0    0    0  0.00000000000E+00  0.00000000000E+00  0.10499120201E+03  0.10499120201E+03  0.00000000000E+00 0. -1.
         22   -1    0    0    0    0 -0.00000000000E+00 -0.00000000000E+00 -0.18514004304E+04  0.18514004304E+04  0.00000000000E+00 0. -1.
         24    2    1    2    0    0 -0.67232115841E+02  0.30999658124E+02 -0.16631638645E+04  0.16669469636E+04  0.84362330226E+02 0.  0.
         25    2    1    2    0    0  0.67980729219E+02 -0.61213512731E+02 -0.12217810297E+03  0.19734427662E+03  0.12509516770E+03 0.  0.
        -24    2    1    2    0    0 -0.74861337824E+00  0.30213854607E+02  0.38932739096E+02  0.92100392280E+02  0.77802870463E+02 0.  0.
        -13    1    3    3    0    0 -0.25500930092E+02  0.99989261538E+01 -0.12042207533E+03  0.12349798455E+03  0.00000000000E+00 0.  1.
         14    1    3    3    0    0 -0.41731185748E+02  0.21000731970E+02 -0.15427417892E+04  0.15434489790E+04  0.00000000000E+00 0. -1.
         11    1    5    5    0    0  0.34056923140E+02  0.11322323897E+02  0.38307947437E+02  0.52493503112E+02  0.00000000000E+00 0. -1.
        -12    1    5    5    0    0 -0.34805536518E+02  0.18891530710E+02  0.62479165910E+00  0.39606889167E+02  0.00000000000E+00 0.  1.
          5    1    4    4  501    0  0.67597584920E+02 -0.87028845530E+02 -0.12958977152E+03  0.17016002681E+03  0.41800000000E+01 0. -1.
         -5    1    4    4    0  501  0.38314429831E+00  0.25815332799E+02  0.74116685455E+01  0.27184249809E+02  0.41800000000E+01 0. -1.
</event>
<event>
11    1  0.8299058E-009  0.4545011E+03  0.7561462E-02  0.9501363E-01
         22   -1    0    0    0    0  0.00000000000E+00  0.00000000000E+00  0.54579444596E+03  0.54579444596E+03  0.00000000000E+00 0. -1.
         22   -1    0    0    0    0 -0.00000000000E+00 -0.00000000000E+00 -0.23533653114E+04  0.23533653114E+04  0.00000000000E+00 0.  1.
         24    2    1    2    0    0  0.92336756251E+02  0.11987187300E+03 -0.11511469156E+04  0.11641135971E+04  0.84415065006E+02 0.  0.
         25    2    1    2    0    0 -0.50373054309E+03 -0.23295181233E+03 -0.10205686024E+04  0.11684257839E+04  0.12509010116E+03 0.  0.
        -24    2    1    2    0    0  0.41139378684E+03  0.11307993933E+03  0.36414465243E+03  0.56662037645E+03  0.80158608927E+02 0.  0.
        -13    1    3    3    0    0  0.19336650133E+02  0.92781081227E+02 -0.68077741358E+03  0.68734279796E+03  0.00000000000E+00 0.  1.
         14    1    3    3    0    0  0.73000106118E+02  0.27090791774E+02 -0.47036950198E+03  0.47677079911E+03  0.00000000000E+00 0. -1.
         11    1    5    5    0    0  0.18850822502E+03  0.93029357678E+02  0.16979723050E+03  0.27022381793E+03  0.00000000000E+00 0. -1.
        -12    1    5    5    0    0  0.22288556182E+03  0.20050581651E+02  0.19434742193E+03  0.29639655852E+03  0.00000000000E+00 0.  1.
          5    1    4    4  501    0 -0.38455943221E+03 -0.23229783936E+03 -0.78899176761E+03  0.90795028764E+03  0.41800000000E+01 0.  1.
         -5    1    4    4    0  501 -0.11917111088E+03 -0.65397297313E+00 -0.23157683475E+03  0.26047549624E+03  0.41800000000E+01 0.  1.
</event>
<event>
11    1  0.8299058E-009  0.1332620E+03  0.7561462E-02  0.1115325E+00
         22   -1    0    0    0    0  0.00000000000E+00  0.00000000000E+00  0.34906620385E+03  0.34906620385E+03  0.00000000000E+00 0.  1.
         22   -1    0    0    0    0 -0.00000000000E+00 -0.00000000000E+00 -0.67111947236E+03  0.67111947236E+03  0.00000000000E+00 0. -1.
         24    2    1    2    0    0  0.44184613558E+02 -0.11127389313E+02 -0.56095600842E+03  0.56775965464E+03  0.74855081173E+02 0.  0.
         25    2    1    2    0    0 -0.43868703938E+02  0.33910296916E+02 -0.54158708529E+02  0.14715675805E+03  0.12509026465E+03 0.  0.
        -24    2    1    2    0    0 -0.31590962026E+00 -0.22782907603E+02  0.29306144844E+03  0.30526926352E+03  0.82372022008E+02 0.  0.
        -11    1    3    3    0    0  0.16196311711E+02 -0.38555421056E+02 -0.18002954434E+03  0.18482282825E+03  0.00000000000E+00 0.  1.
         12    1    3    3    0    0  0.27988301847E+02  0.27428031744E+02 -0.38092646408E+03  0.38293682639E+03  0.00000000000E+00 0. -1.
         13    1    5    5    0    0 -0.25328246884E+02 -0.55376926289E+01  0.26830163195E+02  0.37310103015E+02  0.00000000000E+00 0. -1.
        -14    1    5    5    0    0  0.25012337264E+02 -0.17245214975E+02  0.26623128525E+03  0.26795916051E+03  0.00000000000E+00 0.  1.
          5    1    4    4  501    0 -0.47165388009E+02  0.66819031867E+02  0.19198519926E+01  0.81917733596E+02  0.41800000000E+01 0.  1.
         -5    1    4    4    0  501  0.32966840715E+01 -0.32908734951E+02 -0.56078560522E+02  0.65239024457E+02  0.41800000000E+01 0.  1.
</event>
<event>
11    1  0.8299058E-009  0.1331438E+03  0.7561462E-02  0.1115465E+00
         22   -1    0    0    0    0  0.00000000000E+00  0.00000000000E+00  0.26101186834E+03  0.26101186834E+03  0.00000000000E+00 0. -1.
         22   -1    0    0    0    0 -0.00000000000E+00 -0.00000000000E+00 -0.41677276028E+03  0.41677276028E+03  0.00000000000E+00 0.  1.
        -24    2    1    2    0    0 -0.65176656756E+00 -0.26169346473E+01 -0.31930730378E+03  0.32929060622E+03  0.80423105821E+02 0.  0.
         25    2    1    2    0    0 -0.14556642720E+01 -0.43207915540E+02 -0.29128277475E+02  0.13552473387E+03  0.12509777783E+03 0.  0.
         24    2    1    2    0    0  0.21074308395E+01  0.45824850187E+02  0.19267468931E+03  0.21296928853E+03  0.78281695152E+02 0.  0.
        -11    1    5    5    0    0  0.30712399875E+02  0.46463939694E+02  0.85500631075E+02  0.10204169301E+03  0.00000000000E+00 0.  1.
         12    1    5    5    0    0 -0.28604969036E+02 -0.63908950670E+00  0.10717405824E+03  0.11092759552E+03  0.00000000000E+00 0. -1.
         13    1    3    3    0    0 -0.20830707561E+01  0.47209937495E+01  0.36031479997E+01  0.62936190913E+01  0.00000000000E+00 0. -1.
        -14    1    3    3    0    0  0.14313041885E+01 -0.73379283968E+01 -0.32291045178E+03  0.32299698712E+03  0.00000000000E+00 0.  1.
          5    1    4    4  501    0  0.23264800532E+02 -0.82151657987E+02 -0.12925771237E+02  0.86456311602E+02  0.41800000000E+01 0. -1.
         -5    1    4    4    0  501 -0.24720464804E+02  0.38943742447E+02 -0.16202506237E+02  0.49068422272E+02  0.41800000000E+01 0. -1.
</event>
<event>
11    1  0.8299058E-009  0.2408227E+03  0.7561462E-02  0.1028905E+00
         22   -1    0    0    0    0  0.00000000000E+00  0.00000000000E+00  0.11154197623E+04  0.11154197623E+04  0.00000000000E+00 0.  1.
         22   -1    0    0    0    0 -0.00000000000E+00 -0.00000000000E+00 -0.31402330419E+03  0.31402330419E+03  0.00000000000E+00 0.  1.
         24    2    1    2    0    0 -0.13065888038E+02 -0.13950720411E+02 -0.22279430862E+03  0.23398764673E+03  0.68902647530E+02 0.  0.
         25    2    1    2    0    0  0.17216578164E+03 -0.11621614776E+03  0.13104363372E+03  0.27562342692E+03  0.12509432507E+03 0.  0.
        -24    2    1    2    0    0 -0.15909989360E+03  0.13016686817E+03  0.89314713299E+03  0.91983199281E+03  0.78248987922E+02 0.  0.
        -13    1    3    3    0    0 -0.90371829158E+01 -0.31831010968E+02 -0.20748378581E+03  0.21010570032E+03  0.00000000000E+00 0.  1.
         14    1    3    3    0    0 -0.40287051218E+01  0.17880290556E+02 -0.15310522814E+02  0.23881946407E+02  0.00000000000E+00 0. -1.
         13    1    5    5    0    0 -0.67018668459E+02  0.56357161484E+02  0.22683044153E+03  0.24314539020E+03  0.00000000000E+00 0. -1.
        -14    1    5    5    0    0 -0.92081225140E+02  0.73809706684E+02  0.66631669147E+03  0.67668660261E+03  0.00000000000E+00 0.  1.
          5    1    4    4  501    0  0.16138926367E+02  0.23875836299E+02  0.33289517211E+02  0.44228778634E+02  0.41800000000E+01 0.  1.
         -5    1    4    4    0  501  0.15602685527E+03 -0.14009198406E+03  0.97754116507E+02  0.23139464829E+03  0.41800000000E+01 0.  1.
</event>
<event>
11    1  0.8299058E-009  0.1732699E+03  0.7561462E-02  0.1075221E+00
         22   -1    0    0    0    0  0.00000000000E+00  0.00000000000E+00  0.12224817253E+03  0.12224817253E+03  0.00000000000E+00 0.  1.
         22   -1    0    0    0    0 -0.00000000000E+00 -0.00000000000E+00 -0.24149998623E+04  0.24149998623E+04  0.00000000000E+00 0. -1.
         24    2    1    2    0    0  0.10334033822E+03  0.15199657976E+02 -0.10580442607E+04  0.10661332493E+04  0.79197175139E+02 0.  0.
         25    2    1    2    0    0 -0.73381593401E+02 -0.13163426724E+03 -0.12981300324E+04  0.13128219693E+04  0.12508998126E+03 0.  0.
        -24    2    1    2    0    0 -0.29958744820E+02  0.11643460926E+03  0.63422603424E+02  0.15829281617E+03  0.81115007246E+02 0.  0.
        -13    1    3    3    0    0  0.29178933851E+02 -0.21113674759E+02 -0.14673543128E+03  0.15109097999E+03  0.00000000000E+00 0.  1.
         14    1    3    3    0    0  0.74161404370E+02  0.36313332735E+02 -0.91130882947E+03  0.91504226935E+03  0.00000000000E+00 0. -1.
         13    1    5    5    0    0 -0.36699751944E+02  0.57521443602E+02 -0.41911826662E+01  0.68360473074E+02  0.00000000000E+00 0. -1.
        -14    1    5    5    0    0  0.67410071241E+01  0.58913165662E+02  0.67613786090E+02  0.89932343097E+02  0.00000000000E+00 0.  1.
          5    1    4    4  501    0 -0.71518504482E+02 -0.15440358530E+03 -0.11981282236E+04  0.12101586987E+04  0.41800000000E+01 0.  1.
         -5    1    4    4    0  501 -0.18630889194E+01  0.22769318055E+02 -0.10000180883E+03  0.10266327052E+03  0.41800000000E+01 0.  1.
</event>
<event>
11    1  0.8299058E-009  0.1722426E+03  0.7561462E-02  0.1076096E+00
         22   -1    0    0    0    0  0.00000000000E+00  0.00000000000E+00  0.78592987218E+03  0.78592987218E+03  0.00000000000E+00 0. -1.
         22   -1    0    0    0    0 -0.00000000000E+00 -0.00000000000E+00 -0.40139483758E+03  0.40139483758E+03  0.00000000000E+00 0. -1.
         24    2    1    2    0    0 -0.11796291937E+03 -0.22865914235E+02 -0.24720762124E+03  0.28613849732E+03  0.79533208618E+02 0.  0.
         25    2    1    2    0    0  0.92437088072E+02  0.89651120352E+02 -0.69016820587E+02  0.19233439155E+03  0.12508900038E+03 0.  0.
        -24    2    1    2    0    0  0.25525831298E+02 -0.66785206117E+02  0.70075947642E+03  0.70885182088E+03  0.79342475043E+02 0.  0.
        -13    1    3    3    0    0 -0.36705707972E+01  0.21192904355E+02 -0.40784981640E+02  0.46108860454E+02  0.00000000000E+00 0.  1.
         14    1    3    3    0    0 -0.11429234857E+03 -0.44058818590E+02 -0.20642263960E+03  0.24002963687E+03  0.00000000000E+00 0. -1.
         13    1    5    5    0    0  0.10364110487E+01 -0.56904077670E+02  0.64094960257E+03  0.64347147663E+03  0.00000000000E+00 0. -1.
        -14    1    5    5    0    0  0.24489420249E+02 -0.98811284465E+01  0.59809873852E+02  0.65380344246E+02  0.00000000000E+00 0.  1.
          5    1    4    4  501    0  0.69699871438E+02  0.39217134784E+00 -0.71711075866E+02  0.10009084213E+03  0.41800000000E+01 0. -1.
         -5    1    4    4    0  501  0.22737216633E+02  0.89258949004E+02  0.26942552788E+01  0.92243549417E+02  0.41800000000E+01 0. -1.
</event>
<event>
11    1  0.8299058E-009  0.1257993E+03  0.7561462E-02  0.1124541E+00
         22   -1    0    0    0    0  0.00000000000E+00  0.00000000000E+00  0.29739779509E+03  0.29739779509E+03  0.00000000000E+00 0.  1.
         22   -1    0    0    0    0 -0.00000000000E+00 -0.00000000000E+00 -0.59631680410E+03  0.59631680410E+03  0.00000000000E+00 0.  1.
         24    2    1    2    0    0  0.24454087500E+02  0.16651580023E+02 -0.54001860582E+03  0.54587491849E+03  0.74054402268E+02 0.  0.
         25    2    1    2    0    0 -0.31597462072E+02 -0.61604919825E+01  0.46353556015E+02  0.13722256625E+03  0.12508009139E+03 0.  0.
        -24    2    1    2    0    0  0.71433745721E+01 -0.10491088040E+02  0.19474604079E+03  0.21061711445E+03  0.79198849542E+02 0.  0.
        -11    1    3    3    0    0  0.17151792115E+02  0.15147504816E+02 -0.53752723147E+03  0.53801408480E+03  0.00000000000E+00 0.  1.
         12    1    3    3    0    0  0.73022953844E+01  0.15040752068E+01 -0.24913743466E+01  0.78608336863E+01  0.00000000000E+00 0. -1.
         13    1    5    5    0    0  0.25258258117E+02 -0.13669286282E+02  0.20217726483E+02  0.35122435204E+02  0.00000000000E+00 0. -1.
        -14    1    5    5    0    0 -0.18114883544E+02  0.31781982416E+01  0.17452831431E+03  0.17549467925E+03  0.00000000000E+00 0.  1.
          5    1    4    4  501    0  0.31238170012E+01  0.96894211128E+01  0.83248740677E+02  0.83973021492E+02  0.41800000000E+01 0.  1.
         -5    1    4    4    0  501 -0.34721279073E+02 -0.15849913095E+02 -0.36895184662E+02  0.53249544757E+02  0.41800000000E+01 0.  1.
</event>
<event>
11    1  0.8299058E-009  0.1444237E+03  0.7561462E-02  0.1102717E+00
         22   -1    0    0    0    0  0.00000000000E+00  0.00000000000E+00  0.97028275633E+03  0.97028275633E+03  0.00000000000E+00 0. -1.
         22   -1    0    0    0    0 -0.00000000000E+00 -0.00000000000E+00 -0.37155347644E+03  0.37155347644E+03  0.00000000000E+00 0. -1.
         24    2    1    2    0    0 -0.32689468906E+02 -0.20647664967E+02 -0.27910171701E+03  0.29862898545E+03  0.98927119991E+02 0.  0.
         25    2    1    2    0    0 -0.39479393996E+02  0.33429617736E+02 -0.21826066411E+02  0.13711267699E+03  0.12508935655E+03 0.  0.
        -24    2    1    2    0    0  0.72168862902E+02 -0.12781952769E+02  0.89965706331E+03  0.90609457034E+03  0.79074747795E+02 0.  0.
        -11    1    3    3    0    0  0.23732528702E+02 -0.22561725360E+02 -0.34375814493E+02  0.47475899063E+02  0.00000000000E+00 0.  1.
         12    1    3    3    0    0 -0.56421997608E+02  0.19140603927E+01 -0.24472590251E+03  0.25115308639E+03  0.00000000000E+00 0. -1.
         13    1    5    5    0    0  0.49019530031E+02  0.14281136674E+02  0.76832350049E+03  0.77001809498E+03  0.00000000000E+00 0. -1.
        -14    1    5    5    0    0  0.23149332871E+02 -0.27063089443E+02  0.13133356282E+03  0.13607647536E+03  0.00000000000E+00 0.  1.
          5    1    4    4  501    0 -0.51019850976E+02 -0.37174901660E+02 -0.15724299279E+02  0.65189910990E+02  0.41800000000E+01 0. -1.
         -5    1    4    4    0  501  0.11540456980E+02  0.70604519396E+02 -0.61017671323E+01  0.71922765996E+02  0.41800000000E+01 0. -1.
</event>
<event>
11    1  0.8299058E-009  0.1516082E+03  0.7561462E-02  0.1095247E+00
         22   -1    0    0    0    0  0.00000000000E+00  0.00000000000E+00  0.49337685716E+03  0.49337685716E+03  0.00000000000E+00 0. -1.
         22   -1    0    0    0    0 -0.00000000000E+00 -0.00000000000E+00 -0.61400484921E+03  0.61400484921E+03  0.00000000000E+00 0. -1.
        -24    2    1    2    0    0  0.69379261213E+02 -0.55583300000E+01 -0.48918669536E+03  0.49923408742E+03  0.71320924044E+02 0.  0.
         25    2    1    2    0    0 -0.14519805658E+03 -0.24137904388E+02 -0.28257652904E+02  0.19522083820E+03  0.12509023406E+03 0.  0.
         24    2    1    2    0    0  0.75818795371E+02  0.29696234388E+02  0.39681635621E+03  0.41292678074E+03  0.80093380705E+02 0.  0.
        -13    1    5    5    0    0  0.74997373358E+02  0.28070491333E+02  0.19106738580E+03  0.20716974782E+03  0.00000000000E+00 0.  1.
         14    1    5    5    0    0  0.82142201290E+00  0.16257430556E+01  0.20574897041E+03  0.20575703293E+03  0.00000000000E+00 0. -1.
         13    1    3    3    0    0  0.73884721351E+02  0.74572288104E+01 -0.46870962548E+03  0.47455587166E+03  0.00000000000E+00 0. -1.
        -14    1    3    3    0    0 -0.45054601377E+01 -0.13015558810E+02 -0.20477069882E+02  0.24678215761E+02  0.00000000000E+00 0.  1.
          5    1    4    4  501    0 -0.45781541224E+02 -0.47900743451E+02 -0.58556913283E+02  0.88525788521E+02  0.41800000000E+01 0.  1.
         -5    1    4    4    0  501 -0.99416515361E+02  0.23762839063E+02  0.30299260380E+02  0.10669504968E+03  0.41800000000E+01 0.  1.
</event>
<event>
11    1  0.8299058E-009  0.2483522E+03  0.7561462E-02  0.1024781E+00
         22   -1    0    0    0    0  0.00000000000E+00  0.00000000000E+00  0.27198191181E+03  0.27198191181E+03  0.00000000000E+00 0. -1.
         22   -1    0    0    0    0 -0.00000000000E+00 -0.00000000000E+00 -0.13429252112E+04  0.13429252112E+04  0.00000000000E+00 0.  1.
         24    2    1    2    0    0 -0.22363552100E+01  0.52195803685E+02 -0.10578714673E+04  0.10621139272E+04  0.79148909364E+02 0.  0.
         25    2    1    2    0    0  0.52818764864E+02  0.16849431797E+03 -0.16201315345E+03  0.27032480631E+03  0.12508829644E+03 0.  0.
        -24    2    1    2    0    0 -0.50582409654E+02 -0.22069012166E+03  0.14894132131E+03  0.28246838953E+03  0.79637704162E+02 0.  0.
        -13    1    3    3    0    0  0.25000661560E+02  0.29847680476E+02 -0.87579754703E+03  0.87666256934E+03  0.00000000000E+00 0.  1.
         14    1    3    3    0    0 -0.27237016770E+02  0.22348123209E+02 -0.18207392023E+03  0.18545135783E+03  0.00000000000E+00 0. -1.
         13    1    5    5    0    0 -0.34107845488E+02 -0.21390938931E+03  0.15168799398E+03  0.26444246912E+03  0.00000000000E+00 0. -1.
        -14    1    5    5    0    0 -0.16474564166E+02 -0.67807323488E+01 -0.27466726686E+01  0.18025920404E+02  0.00000000000E+00 0.  1.
          5    1    4    4  501    0  0.36466529606E+02  0.50341288969E+02  0.77741864506E+01  0.62785058187E+02  0.41800000000E+01 0. -1.
         -5    1    4    4    0  501  0.16352235258E+02  0.11815302900E+03 -0.16978733990E+03  0.20753974812E+03  0.41800000000E+01 0. -1.
</event>
<event>
11    1  0.8299058E-009  0.4445951E+03  0.7561462E-02  0.9526631E-01
         22   -1    0    0    0    0  0.00000000000E+00  0.00000000000E+00  0.32989149781E+04  0.32989149781E+04  0.00000000000E+00 0.  1.
         22   -1    0    0    0    0 -0.00000000000E+00 -0.00000000000E+00 -0.49891040947E+03  0.49891040947E+03  0.00000000000E+00 0. -1.
        -24    2    1    2    0    0 -0.18273306729E+03 -0.16781827641E+03 -0.36754945352E+03  0.45042903574E+03  0.78989668169E+02 0.  0.
         25    2    1    2    0    0 -0.21287138935E+03  0.36702168665E+03  0.62823100229E+03  0.76833632440E+03  0.12508944110E+03 0.  0.
         24    2    1    2    0    0  0.39560445664E+03 -0.19920341024E+03  0.25393230199E+04  0.25790600274E+04  0.84878390156E+02 0.  0.
        -11    1    5    5    0    0  0.23914649977E+03 -0.12214778459E+03  0.17671274150E+04  0.17874144540E+04  0.00000000000E+00 0.  1.
         12    1    5    5    0    0  0.15645795687E+03 -0.77055625652E+02  0.77219560484E+03  0.79164557338E+03  0.00000000000E+00 0. -1.
         11    1    3    3    0    0 -0.11531425171E+03 -0.13795361723E+03 -0.20985894827E+03  0.27635005938E+03  0.00000000000E+00 0. -1.
        -12    1    3    3    0    0 -0.67418815580E+02 -0.29864659179E+02 -0.15769050526E+03  0.17407897636E+03  0.00000000000E+00 0.  1.
          5    1    4    4  501    0 -0.67378685168E+02  0.30365298788E+02  0.82903344000E+02  0.11114124091E+03  0.41800000000E+01 0.  1.
         -5    1    4    4    0  501 -0.14549270418E+03  0.33665638786E+03  0.54532765829E+03  0.65719508349E+03  0.41800000000E+01 0.  1.
</event>
<event>
11    1  0.8299058E-009  0.2960654E+03  0.7561462E-02  0.1001870E+00
         22   -1    0    0    0    0  0.00000000000E+00  0.00000000000E+00  0.25227424171E+03  0.25227424171E+03  0.00000000000E+00 0. -1.
         22   -1    0    0    0    0 -0.00000000000E+00 -0.00000000000E+00 -0.21015070812E+04  0.21015070812E+04  0.00000000000E+00 0.  1.
         24    2    1    2    0    0 -0.46555929437E+02 -0.25447642451E+03 -0.15340403285E+04  0.15577553446E+04  0.79976740011E+02 0.  0.
         25    2    1    2    0    0  0.51359406492E+02  0.30594352012E+03 -0.49196279335E+03  0.59490647654E+03  0.12508836735E+03 0.  0.
        -24    2    1    2    0    0 -0.48034770544E+01 -0.51467095606E+02  0.17677028234E+03  0.20111950181E+03  0.80804616005E+02 0.  0.
        -13    1    3    3    0    0 -0.66735222937E+02 -0.16698461173E+03 -0.95288772415E+03  0.96970741225E+03  0.00000000000E+00 0.  1.
         14    1    3    3    0    0  0.20179293499E+02 -0.87491812776E+02 -0.58115260436E+03  0.58804793235E+03  0.00000000000E+00 0. -1.
         13    1    5    5    0    0 -0.17245793584E+02 -0.68378055756E+02  0.15772999779E+03  0.17277652650E+03  0.00000000000E+00 0. -1.
        -14    1    5    5    0    0  0.12442316530E+02  0.16910960150E+02  0.19040284546E+02  0.28342975310E+02  0.00000000000E+00 0.  1.
          5    1    4    4  501    0 -0.46139651262E+01  0.19788639200E+02  0.24649929525E+01  0.20890847417E+02  0.41800000000E+01 0.  1.
         -5    1    4    4    0  501  0.55973371618E+02  0.28615488092E+03 -0.49442778631E+03  0.57401562912E+03  0.41800000000E+01 0.  1.
</event>
<event>
11    1  0.8299058E-009  0.1430686E+03  0.7561462E-02  0.1104179E+00
         22   -1    0    0    0    0  0.00000000000E+00  0.00000000000E+00  0.11121328377E+04  0.11121328377E+04  0.00000000000E+00 0.  1.
         22   -1    0    0    0    0 -0.00000000000E+00 -0.00000000000E+00 -0.25513224746E+03  0.25513224746E+03  0.00000000000E+00 0. -1.
        -24    2    1    2    0    0 -0.36383571779E+02 -0.62456633746E+02 -0.21224681087E+03  0.23902597291E+03  0.82825790714E+02 0.  0.
         25    2    1    2    0    0  0.36250124432E+02  0.20081369133E+02  0.13125870245E+03  0.18598958149E+03  0.12508375013E+03 0.  0.
         24    2    1    2    0    0  0.13344734776E+00  0.42375264613E+02  0.93798869864E+03  0.94224953075E+03  0.78839701687E+02 0.  0.
        -13    1    5    5    0    0  0.96896415463E+01 -0.18375419722E+02  0.43809788638E+03  0.43859013128E+03  0.00000000000E+00 0.  1.
         14    1    5    5    0    0 -0.95561941986E+01  0.60750684335E+02  0.49989081226E+03  0.50365939947E+03  0.00000000000E+00 0. -1.
         11    1    3    3    0    0 -0.34897138378E+02 -0.82155161104E+02 -0.18459236259E+03  0.20504053524E+03  0.00000000000E+00 0. -1.
        -12    1    3    3    0    0 -0.14864334015E+01  0.19698527358E+02 -0.27654448273E+02  0.33985437670E+02  0.00000000000E+00 0.  1.
          5    1    4    4  501    0  0.52631729041E+02  0.45265248866E+02  0.22521278184E+02  0.73100766260E+02  0.41800000000E+01 0. -1.
         -5    1    4    4    0  501 -0.16381604609E+02 -0.25183879733E+02  0.10873742427E+03  0.11288881523E+03  0.41800000000E+01 0. -1.
</event>
<event>
11    1  0.8299058E-009  0.1345738E+03  0.7561462E-02  0.1113774E+00
         22   -1    0    0    0    0  0.00000000000E+00  0.00000000000E+00  0.83605480430E+03  0.83605480430E+03  0.00000000000E+00 0. -1.
         22   -1    0    0    0    0 -0.00000000000E+00 -0.00000000000E+00 -0.35960970084E+03  0.35960970084E+03  0.00000000000E+00 0.  1.
         24    2    1    2    0    0 -0.25236032030E+02  0.28079543003E+02 -0.29053166261E+03  0.30431452763E+03  0.82300465944E+02 0.  0.
         25    2    1    2    0    0  0.57506937745E+02  0.99000789680E+01  0.21180779243E+02  0.13964475052E+03  0.12508785507E+03 0.  0.
        -24    2    1    2    0    0 -0.32270905715E+02 -0.37979621971E+02  0.74579598683E+03  0.75170522699E+03  0.79782399529E+02 0.  0.
        -11    1    3    3    0    0  0.67597943887E+01 -0.53362254704E+01 -0.21872648826E+03  0.21889597253E+03  0.00000000000E+00 0.  1.
         12    1    3    3    0    0 -0.31995826419E+02  0.33415768473E+02 -0.71805174354E+02  0.85418555097E+02  0.00000000000E+00 0. -1.
         11    1    5    5    0    0 -0.46129634626E+02  0.34084598243E-01  0.54017905436E+03  0.54214514212E+03  0.00000000000E+00 0. -1.
        -12    1    5    5    0    0  0.13858728912E+02 -0.38013706569E+02  0.20561693247E+03  0.20956008488E+03  0.00000000000E+00 0.  1.
          5    1    4    4  501    0  0.80920074264E+02  0.31861884488E+02  0.46353050235E+02  0.98637294003E+02  0.41800000000E+01 0. -1.
         -5    1    4    4    0  501 -0.23413136520E+02 -0.21961805521E+02 -0.25172270992E+02  0.41007456521E+02  0.41800000000E+01 0. -1.
</event>
<event>
11    1  0.8299058E-009  0.1513630E+03  0.7561462E-02  0.1095494E+00
         22   -1    0    0    0    0  0.00000000000E+00  0.00000000000E+00  0.58951651368E+03  0.58951651368E+03  0.00000000000E+00 0.  1.
         22   -1    0    0    0    0 -0.00000000000E+00 -0.00000000000E+00 -0.13361715543E+04  0.13361715543E+04  0.00000000000E+00 0. -1.
         24    2    1    2    0    0 -0.19257363852E+02 -0.50656768788E+02 -0.12398936258E+04  0.12433127737E+04  0.74521780448E+02 0.  0.
         25    2    1    2    0    0  0.48395302376E+02  0.12662605014E+03  0.90104307260E+01  0.18467477247E+03  0.12508925558E+03 0.  0.
        -24    2    1    2    0    0 -0.29137938524E+02 -0.75969281347E+02  0.48422815445E+03  0.49770052178E+03  0.81293004923E+02 0.  0.
        -13    1    3    3    0    0  0.24184100540E+02 -0.54546395119E+01 -0.55574013408E+03  0.55629283695E+03  0.00000000000E+00 0.  1.
         14    1    3    3    0    0 -0.43441464393E+02 -0.45202129276E+02 -0.68415349170E+03  0.68701993677E+03  0.00000000000E+00 0. -1.
         13    1    5    5    0    0  0.20405307961E+02 -0.12765531465E+02  0.22587155176E+03  0.22715037592E+03  0.00000000000E+00 0. -1.
        -14    1    5    5    0    0 -0.49543246485E+02 -0.63203749882E+02  0.25835660269E+03  0.27055014586E+03  0.00000000000E+00 0.  1.
          5    1    4    4  501    0 -0.25716912350E+01  0.12499662640E+03  0.31170368503E+02  0.12891793700E+03  0.41800000000E+01 0. -1.
         -5    1    4    4    0  501  0.50966993611E+02  0.16294237313E+01 -0.22159937777E+02  0.55756835471E+02  0.41800000000E+01 0. -1.
</event>
<event>
11    1  0.8299058E-009  0.3147830E+03  0.7561462E-02  0.9941218E-01
         22   -1    0    0    0    0  0.00000000000E+00  0.00000000000E+00  0.24304152825E+03  0.24304152825E+03  0.00000000000E+00 0. -1.
         22   -1    0    0    0    0 -0.00000000000E+00 -0.00000000000E+00 -0.92469984513E+03  0.92469984513E+03  0.00000000000E+00 0. -1.
         24    2    1    2    0    0  0.23341197747E+02  0.76853854785E+02 -0.25168361495E+03  0.27490445908E+03  0.76003243855E+02 0.  0.
         25    2    1    2    0    0 -0.47633840067E+02  0.22487853554E+03 -0.50658692267E+03  0.57019068884E+03  0.12509105862E+03 0.  0.
        -24    2    1    2    0    0  0.24292642320E+02 -0.30173239033E+03  0.76612220745E+02  0.32264622546E+03  0.81231684662E+02 0.  0.
        -11    1    3    3    0    0  0.10205855956E+01 -0.15383433745E+02 -0.42186716272E+02  0.44915594826E+02  0.00000000000E+00 0.  1.
         12    1    3    3    0    0  0.22320612151E+02  0.92237288530E+02 -0.20949689868E+03  0.22998886425E+03  0.00000000000E+00 0. -1.
         13    1    5    5    0    0  0.29022603523E+02 -0.21737194797E+03  0.18461817671E+02  0.22007660937E+03  0.00000000000E+00 0. -1.
        -14    1    5    5    0    0 -0.47299612025E+01 -0.84360442362E+02  0.58150403075E+02  0.10256961610E+03  0.00000000000E+00 0.  1.
          5    1    4    4  501    0 -0.49870064722E+01  0.20871924393E+03 -0.35527407779E+03  0.41209918196E+03  0.41800000000E+01 0.  1.
         -5    1    4    4    0  501 -0.42646833595E+02  0.16159291614E+02 -0.15131284488E+03  0.15809150688E+03  0.41800000000E+01 0.  1.
</event>
<event>
11    1  0.8299058E-009  0.3527844E+03  0.7561462E-02  0.9800359E-01
         22   -1    0    0    0    0  0.00000000000E+00  0.00000000000E+00  0.98947223617E+03  0.98947223617E+03  0.00000000000E+00 0. -1.
         22   -1    0    0    0    0 -0.00000000000E+00 -0.00000000000E+00 -0.33073470481E+03  0.33073470481E+03  0.00000000000E+00 0. -1.
        -24    2    1    2    0    0 -0.25127348168E+03 -0.19381498031E+03 -0.51672341995E+02  0.33149250770E+03  0.80713335602E+02 0.  0.
         25    2    1    2    0    0  0.30420957667E+03  0.18279492097E+03  0.12842747814E+03  0.39761628832E+03  0.12509055091E+03 0.  0.
         24    2    1    2    0    0 -0.52936094987E+02  0.11020059337E+02  0.58198239522E+03  0.59109814496E+03  0.88146677607E+02 0.  0.
        -13    1    5    5    0    0  0.87198404991E+01 -0.81334000975E+01  0.35263787846E+03  0.35283942685E+03  0.00000000000E+00 0.  1.
         14    1    5    5    0    0 -0.61655935486E+02  0.19153459434E+02  0.22934451676E+03  0.23825871811E+03  0.00000000000E+00 0. -1.
         11    1    3    3    0    0 -0.19022935678E+03 -0.16379582637E+03 -0.90031071279E+01  0.25119183278E+03  0.00000000000E+00 0. -1.
        -12    1    3    3    0    0 -0.61044124899E+02 -0.30019153939E+02 -0.42669234867E+02  0.80300674917E+02  0.00000000000E+00 0.  1.
          5    1    4    4  501    0  0.21550468646E+03  0.18832740275E+03  0.84838269500E+02  0.29853724204E+03  0.41800000000E+01 0. -1.
         -5    1    4    4    0  501  0.88704890209E+02 -0.55324817806E+01  0.43589208643E+02  0.99079046280E+02  0.41800000000E+01 0. -1.
</event>
<event>
11    1  0.8299058E-009  0.2160247E+03  0.7561462E-02  0.1043737E+00
         22   -1    0    0    0    0  0.00000000000E+00  0.00000000000E+00  0.11846040195E+04  0.11846040195E+04  0.00000000000E+00 0.  1.
         22   -1    0    0    0    0 -0.00000000000E+00 -0.00000000000E+00 -0.53982236889E+03  0.53982236889E+03  0.00000000000E+00 0. -1.
         24    2    1    2    0    0  0.16451022439E+02 -0.24136506636E+02 -0.46787337942E+03  0.47769556394E+03  0.91838693067E+02 0.  0.
         25    2    1    2    0    0 -0.10656283176E+02  0.19676454098E+03  0.17975221815E+03  0.29459788349E+03  0.12508881673E+03 0.  0.
        -24    2    1    2    0    0 -0.57947392625E+01 -0.17262803434E+03  0.93290281190E+03  0.95213294098E+03  0.80096589201E+02 0.  0.
        -13    1    3    3    0    0  0.32900104197E+02 -0.53169723736E+02 -0.28173147334E+03  0.28858631196E+03  0.00000000000E+00 0.  1.
         14    1    3    3    0    0 -0.16449081758E+02  0.29033217100E+02 -0.18614190608E+03  0.18910925198E+03  0.00000000000E+00 0. -1.
         13    1    5    5    0    0 -0.35554317996E+02 -0.68694312354E+02  0.49929092497E+03  0.50524691571E+03  0.00000000000E+00 0. -1.
        -14    1    5    5    0    0  0.29759578734E+02 -0.10393372199E+03  0.43361188694E+03  0.44688602528E+03  0.00000000000E+00 0.  1.
          5    1    4    4  501    0  0.31483254242E+02  0.17358555503E+03  0.10418563471E+03  0.20492744836E+03  0.41800000000E+01 0.  1.
         -5    1    4    4    0  501 -0.42139537418E+02  0.23178985947E+02  0.75566583436E+02  0.89670435125E+02  0.41800000000E+01 0.  1.
</event>
<event>
11    1  0.8299058E-009  0.2112023E+03  0.7561462E-02  0.1046873E+00
         22   -1    0    0    0    0  0.00000000000E+00  0.00000000000E+00  0.69148527641E+03  0.69148527641E+03  0.00000000000E+00 0.  1.
         22   -1    0    0    0    0 -0.00000000000E+00 -0.00000000000E+00 -0.89186589811E+03  0.89186589811E+03  0.00000000000E+00 0. -1.
         24    2    1    2    0    0 -0.45924149673E+01 -0.19417972303E+02 -0.41106135957E+03  0.42030421715E+03  0.85358337005E+02 0.  0.
         25    2    1    2    0    0  0.11100596186E+03 -0.11382214278E+03 -0.44076229973E+03  0.48497000289E+03  0.12508675025E+03 0.  0.
        -24    2    1    2    0    0 -0.10641354689E+03  0.13324011508E+03  0.65144303760E+03  0.67807695448E+03  0.79583627262E+02 0.  0.
        -11    1    3    3    0    0 -0.14828961013E+02 -0.27032407315E+02 -0.48195313775E+02  0.57213961581E+02  0.00000000000E+00 0.  1.
         12    1    3    3    0    0  0.10236546045E+02  0.76144350127E+01 -0.36286604580E+03  0.36309025557E+03  0.00000000000E+00 0. -1.
         13    1    5    5    0    0 -0.17740358225E+02 -0.85774688395E+01  0.95820052114E+02  0.97825230226E+02  0.00000000000E+00 0. -1.
        -14    1    5    5    0    0 -0.88673188668E+02  0.14181758392E+03  0.55562298549E+03  0.58025172425E+03  0.00000000000E+00 0.  1.
          5    1    4    4  501    0  0.10587183919E+02 -0.51851905749E+02 -0.28288455821E+03  0.28782260903E+03  0.41800000000E+01 0.  1.
         -5    1    4    4    0  501  0.10041877794E+03 -0.61970237028E+02 -0.15787774152E+03  0.19714739387E+03  0.41800000000E+01 0.  1.
</event>
<event>
11    1  0.8299058E-009  0.1255552E+03  0.7561462E-02  0.1124854E+00
         22   -1    0    0    0    0  0.00000000000E+00  0.00000000000E+00  0.10203593009E+04  0.10203593009E+04  0.00000000000E+00 0.  1.
         22   -1    0    0    0    0 -0.00000000000E+00 -0.00000000000E+00 -0.33340503247E+03  0.33340503247E+03  0.00000000000E+00 0.  1.
         24    2    1    2    0    0  0.37411703449E+01  0.62780881603E+01 -0.21333518975E+03  0.22828589675E+03  0.80926736769E+02 0.  0.
         25    2    1    2    0    0 -0.38151585227E+02 -0.90589273617E+00 -0.72497850919E+02  0.14953286314E+03  0.12509106552E+03 0.  0.
        -24    2    1    2    0    0  0.34410414883E+02 -0.53721954242E+01  0.97278730915E+03  0.97594557352E+03  0.70297059012E+02 0.  0.
        -11    1    3    3    0    0  0.51460945747E+01  0.19471832554E+01 -0.22007965871E+03  0.22014842718E+03  0.00000000000E+00 0.  1.
         12    1    3    3    0    0 -0.14049242298E+01  0.43309049049E+01  0.67444689637E+01  0.81374695692E+01  0.00000000000E+00 0. -1.
         11    1    5    5    0    0  0.21735576627E+02 -0.37161757341E+02  0.45664514220E+03  0.45867005287E+03  0.00000000000E+00 0. -1.
        -12    1    5    5    0    0  0.12674838256E+02  0.31789561917E+02  0.51614216694E+03  0.51727552065E+03  0.00000000000E+00 0.  1.
          5    1    4    4  501    0 -0.55766121732E+02  0.32310073141E+02  0.34581741828E+01  0.64677913758E+02  0.41800000000E+01 0. -1.
         -5    1    4    4    0  501  0.17614536504E+02 -0.33215965878E+02 -0.75956025102E+02  0.84854949383E+02  0.41800000000E+01 0. -1.
</event>
<event>
11    1  0.8299058E-009  0.1429709E+03  0.7561462E-02  0.1104286E+00
         22   -1    0    0    0    0  0.00000000000E+00  0.00000000000E+00  0.67931502164E+02  0.67931502164E+02  0.00000000000E+00 0. -1.
         22   -1    0    0    0    0 -0.00000000000E+00 -0.00000000000E+00 -0.13836004334E+04  0.13836004334E+04  0.00000000000E+00 0. -1.
         24    2    1    2    0    0 -0.65360308216E+02  0.17445212175E+02 -0.11445625725E+04  0.11505553327E+04  0.95800761882E+02 0.  0.
         25    2    1    2    0    0  0.77399055470E+02 -0.53176397036E+02 -0.12666985085E+03  0.20127190562E+03  0.12508711320E+03 0.  0.
        -24    2    1    2    0    0 -0.12038747254E+02  0.35731184861E+02 -0.44436507873E+02  0.99704697206E+02  0.80899780012E+02 0.  0.
        -11    1    3    3    0    0 -0.17040073601E+02 -0.10151807270E+02 -0.40548845368E+02  0.45140139121E+02  0.00000000000E+00 0.  1.
         12    1    3    3    0    0 -0.48320234615E+02  0.27597019445E+02 -0.11040137272E+04  0.11054151936E+04  0.00000000000E+00 0. -1.
         11    1    5    5    0    0 -0.38537701548E+02  0.18061793250E+02 -0.51772879735E+02  0.67020995905E+02  0.00000000000E+00 0. -1.
        -12    1    5    5    0    0  0.26498954294E+02  0.17669391611E+02  0.73363718622E+01  0.32683701301E+02  0.00000000000E+00 0.  1.
          5    1    4    4  501    0  0.80956017266E+02 -0.42264742405E+01 -0.19735814592E+02  0.83538701173E+02  0.41800000000E+01 0.  1.
         -5    1    4    4    0  501 -0.35569617958E+01 -0.48949922796E+02 -0.10693403626E+03  0.11773320445E+03  0.41800000000E+01 0.  1.
</event>
<event>
11    1  0.8299058E-009  0.1698474E+03  0.7561462E-02  0.1078164E+00
         22   -1    0    0    0    0  0.00000000000E+00  0.00000000000E+00  0.43523454382E+03  0.43523454382E+03  0.00000000000E+00 0. -1.
         22   -1    0    0    0    0 -0.00000000000E+00 -0.00000000000E+00 -0.41178720846E+03  0.41178720846E+03  0.00000000000E+00 0. -1.
        -24    2    1    2    0    0 -0.24570924646E+02  0.41957066012E+02 -0.96457969364E+02  0.13499616656E+03  0.80967273665E+02 0.  0.
         25    2    1    2    0    0  0.78079397569E+02 -0.14126210277E+03 -0.24649279449E+03  0.32008802061E+03  0.12508504786E+03 0.  0.
         24    2    1    2    0    0 -0.53508472923E+02  0.99305036760E+02  0.36639809921E+03  0.39193756512E+03  0.81503624732E+02 0.  0.
        -13    1    5    5    0    0 -0.19906320325E+02  0.25804277937E+02  0.24919214222E+02  0.41025474844E+02  0.00000000000E+00 0.  1.
         14    1    5    5    0    0 -0.33602152598E+02  0.73500758823E+02  0.34147888499E+03  0.35091209027E+03  0.00000000000E+00 0. -1.
         11    1    3    3    0    0  0.22057483507E+02  0.32749333466E+02 -0.70593099821E+02  0.80885333426E+02  0.00000000000E+00 0. -1.
        -12    1    3    3    0    0 -0.46628408153E+02  0.92077325461E+01 -0.25864869543E+02  0.54110833130E+02  0.00000000000E+00 0.  1.
          5    1    4    4  501    0  0.70984397789E+02 -0.12713477104E+03 -0.26056196603E+03  0.29851640705E+03  0.41800000000E+01 0.  1.
         -5    1    4    4    0  501  0.70949997804E+01 -0.14127331737E+02  0.14069171539E+02  0.21571613562E+02  0.41800000000E+01 0.  1.
</event>
<event>
11    1  0.8299059E-009  0.2110465E+03  0.7561462E-02  0.1046976E+00
         22   -1    0    0    0    0  0.00000000000E+00  0.00000000000E+00  0.12286975445E+04  0.12286975445E+04  0.00000000000E+00 0.  1.
         22   -1    0    0    0    0 -0.00000000000E+00 -0.00000000000E+00 -0.11341770891E+04  0.11341770891E+04  0.00000000000E+00 0.  1.
         24    2    1    2    0    0 -0.12545826963E+02 -0.19588525528E+02 -0.71873616716E+03  0.72359660984E+03  0.80431757845E+02 0.  0.
         25    2    1    2    0    0 -0.13321497397E+03  0.10706191374E+03 -0.37801114145E+03  0.43329856040E+03  0.12508691667E+03 0.  0.
        -24    2    1    2    0    0  0.14576080094E+03 -0.87473388209E+02  0.11912677640E+04  0.12059794633E+04  0.79810873914E+02 0.  0.
        -13    1    3    3    0    0  0.51114746517E+01 -0.38065611908E+02 -0.17081218357E+03  0.17507689751E+03  0.00000000000E+00 0.  1.
         14    1    3    3    0    0 -0.17657301615E+02  0.18477086380E+02 -0.54792398359E+03  0.54851971233E+03  0.00000000000E+00 0. -1.
         11    1    5    5    0    0  0.11162221539E+02  0.44143052655E+00  0.14618117755E+02  0.18397810122E+02  0.00000000000E+00 0. -1.
        -12    1    5    5    0    0  0.13459857940E+03 -0.87914818736E+02  0.11766496463E+04  0.11875816532E+04  0.00000000000E+00 0.  1.
          5    1    4    4  501    0 -0.11100828582E+02  0.76134152712E+02 -0.20687102299E+03  0.22075490971E+03  0.41800000000E+01 0. -1.
         -5    1    4    4    0  501 -0.12211414539E+03  0.30927761025E+02 -0.17114011846E+03  0.21254365070E+03  0.41800000000E+01 0. -1.
</event>
<event>
11    1  0.8299058E-009  0.2420685E+03  0.7561462E-02  0.1028211E+00
         22   -1    0    0    0    0  0.00000000000E+00  0.00000000000E+00  0.32373712160E+03  0.32373712160E+03  0.00000000000E+00 0.  1.
         22   -1    0    0    0    0 -0.00000000000E+00 -0.00000000000E+00 -0.14597325111E+04  0.14597325111E+04  0.00000000000E+00 0. -1.
         24    2    1    2    0    0 -0.19671437113E+03  0.74795131304E+02 -0.12271724479E+04  0.12476468406E+04  0.79872189072E+02 0.  0.
         25    2    1    2    0    0  0.13848354542E+03 -0.15029614996E+03 -0.13711342234E+03  0.27607020186E+03  0.12509212895E+03 0.  0.
        -24    2    1    2    0    0  0.58230825706E+02  0.75501018654E+02  0.22829048072E+03  0.25975259021E+03  0.79143108696E+02 0.  0.
        -11    1    3    3    0    0 -0.19674675442E+03  0.58122535607E+02 -0.10618987065E+04  0.10815342701E+04  0.00000000000E+00 0.  1.
         12    1    3    3    0    0  0.32383290265E-01  0.16672595696E+02 -0.16527374135E+03  0.16611257049E+03  0.00000000000E+00 0. -1.
         13    1    5    5    0    0  0.21824003183E+02  0.42455983732E+02  0.32174648696E+02  0.57567401264E+02  0.00000000000E+00 0. -1.
        -14    1    5    5    0    0  0.36406822523E+02  0.33045034922E+02  0.19611583203E+03  0.20218518895E+03  0.00000000000E+00 0.  1.
          5    1    4    4  501    0  0.56893754300E+02  0.10104390484E+02 -0.47877010818E+02  0.75157691225E+02  0.41800000000E+01 0. -1.
         -5    1    4    4    0  501  0.81589791122E+02 -0.16040054044E+03 -0.89236411527E+02  0.20091251064E+03  0.41800000000E+01 0. -1.
</event>
<event>
11    1  0.8299058E-009  0.3808222E+03  0.7561462E-02  0.9708101E-01
         22   -1    0    0    0    0  0.00000000000E+00  0.00000000000E+00  0.63282954668E+03  0.63282954668E+03  0.00000000000E+00 0.  1.
         22   -1    0    0    0    0 -0.00000000000E+00 -0.00000000000E+00 -0.13198282153E+04  0.13198282153E+04  0.00000000000E+00 0. -1.
         24    2    1    2    0    0 -0.33948314324E+03  0.99537452248E+02 -0.11097766699E+04  0.11682691190E+04  0.89955368545E+02 0.  0.
         25    2    1    2    0    0  0.42698408669E+03 -0.19296029416E+03  0.40349708714E+03  0.63087709302E+03  0.12508765632E+03 0.  0.
        -24    2    1    2    0    0 -0.87500943446E+02  0.93422841911E+02  0.19280914165E+02  0.15351154996E+03  0.82521511298E+02 0.  0.
        -13    1    3    3    0    0 -0.15405074801E+03  0.64449109980E+02 -0.65361613231E+03  0.67461053146E+03  0.00000000000E+00 0.  1.
         14    1    3    3    0    0 -0.18543239523E+03  0.35088342268E+02 -0.45616053758E+03  0.49365858750E+03  0.00000000000E+00 0. -1.
         11    1    5    5    0    0 -0.48664317937E+02  0.10029405676E+03  0.50787416883E+01  0.11159259509E+03  0.00000000000E+00 0. -1.
        -12    1    5    5    0    0 -0.38836625508E+02 -0.68712148533E+01  0.14202172477E+02  0.41918954871E+02  0.00000000000E+00 0.  1.
          5    1    4    4  501    0  0.13133951917E+01 -0.22136093785E+02  0.46619338168E+01  0.23042085016E+02  0.41800000000E+01 0. -1.
         -5    1    4    4    0  501  0.42567069150E+03 -0.17082420037E+03  0.39883515332E+03  0.60783500801E+03  0.41800000000E+01 0. -1.
</event>
<event>
11    1  0.8299058E-009  0.1290792E+03  0.7561462E-02  0.1120406E+00
         22   -1    0    0    0    0  0.00000000000E+00  0.00000000000E+00  0.60274028240E+03  0.60274028240E+03  0.00000000000E+00 0. -1.
         22   -1    0    0    0    0 -0.00000000000E+00 -0.00000000000E+00 -0.59676263204E+03  0.59676263204E+03  0.00000000000E+00 0. -1.
         24    2    1    2    0    0 -0.45469958554E+02  0.19983329796E+02 -0.47948214814E+03  0.48750029552E+03  0.72708714365E+02 0.  0.
         25    2    1    2    0    0  0.44993235669E+02  0.12481280874E+02 -0.69199800705E+02  0.15038252945E+03  0.12508444795E+03 0.  0.
        -24    2    1    2    0    0  0.47672288515E+00 -0.32464610670E+02  0.55465959920E+03  0.56162008947E+03  0.81949226319E+02 0.  0.
        -13    1    3    3    0    0 -0.21727608331E+02 -0.27045943087E+02 -0.16157664335E+03  0.16525914098E+03  0.00000000000E+00 0.  1.
         14    1    3    3    0    0 -0.23742350223E+02  0.47029272884E+02 -0.31790550480E+03  0.32224115454E+03  0.00000000000E+00 0. -1.
         13    1    5    5    0    0 -0.61882408474E+01 -0.28113493737E+02  0.55266535556E+03  0.55341454452E+03  0.00000000000E+00 0. -1.
        -14    1    5    5    0    0  0.66649637325E+01 -0.43511169338E+01  0.19942436454E+01  0.82055449450E+01  0.00000000000E+00 0.  1.
          5    1    4    4  501    0  0.65504563257E+02  0.30750155953E+02 -0.90084352056E+02  0.11562474988E+03  0.41800000000E+01 0. -1.
         -5    1    4    4    0  501 -0.20511327587E+02 -0.18268875079E+02  0.20884551350E+02  0.34757779577E+02  0.41800000000E+01 0. -1.
</event>
<event>
11    1  0.8299058E-009  0.1456077E+03  0.7561462E-02  0.1101453E+00
         22   -1    0    0    0    0  0.00000000000E+00  0.00000000000E+00  0.43576287149E+03  0.43576287149E+03  0.00000000000E+00 0. -1.
         22   -1    0    0    0    0 -0.00000000000E+00 -0.00000000000E+00 -0.73934289378E+03  0.73934289378E+03  0.00000000000E+00 0.  1.
        -24    2    1    2    0    0 -0.13050183850E+02  0.76230597587E+02 -0.59664701812E+03  0.60631108299E+03  0.75126918079E+02 0.  0.
         25    2    1    2    0    0 -0.11918160980E+02 -0.10823556281E+01 -0.98944044523E+02  0.15994177043E+03  0.12509289319E+03 0.  0.
         24    2    1    2    0    0  0.24968344829E+02 -0.75148241959E+02  0.39201104035E+03  0.40885291185E+03  0.84955113214E+02 0.  0.
        -13    1    5    5    0    0  0.86825770677E+01  0.11483744106E+02  0.11970153405E+02  0.18722929679E+02  0.00000000000E+00 0.  1.
         14    1    5    5    0    0  0.16285767762E+02 -0.86631986064E+02  0.38004088694E+03  0.39012998217E+03  0.00000000000E+00 0. -1.
         13    1    3    3    0    0 -0.51564400791E+00  0.47070664540E+02 -0.12455865945E+03  0.13315694872E+03  0.00000000000E+00 0. -1.
        -14    1    3    3    0    0 -0.12534539842E+02  0.29159933047E+02 -0.47208835867E+03  0.47315413427E+03  0.00000000000E+00 0.  1.
          5    1    4    4  501    0 -0.62105307703E+02 -0.24772770354E+02 -0.36487656874E+02  0.76286177647E+02  0.41800000000E+01 0.  1.
         -5    1    4    4    0  501  0.50187146723E+02  0.23690414725E+02 -0.62456387648E+02  0.83655592784E+02  0.41800000000E+01 0.  1.
</event>
<event>
11    1  0.8299058E-009  0.1654966E+03  0.7561462E-02  0.1082019E+00
         22   -1    0    0    0    0  0.00000000000E+00  0.00000000000E+00  0.10168581885E+04  0.10168581885E+04  0.00000000000E+00 0. -1.
         22   -1    0    0    0    0 -0.00000000000E+00 -0.00000000000E+00 -0.87620840889E+03  0.87620840889E+03  0.00000000000E+00 0.  1.
        -24    2    1    2    0    0 -0.10716948009E+03 -0.11616732685E+01 -0.81055156821E+03  0.82102486164E+03  0.74842045319E+02 0.  0.
         25    2    1    2    0    0  0.14455841213E+03 -0.19973666785E+02  0.10185274552E+03  0.21752649176E+03  0.12509081087E+03 0.  0.
         24    2    1    2    0    0 -0.37388932039E+02  0.21135340053E+02  0.84934860231E+03  0.85451524402E+03  0.83418338352E+02 0.  0.
        -11    1    5    5    0    0 -0.51217196176E+02  0.36351544035E+01  0.27615647059E+03  0.28088932301E+03  0.00000000000E+00 0.  1.
         12    1    5    5    0    0  0.13828264137E+02  0.17500185650E+02  0.57319213172E+03  0.57362592101E+03  0.00000000000E+00 0. -1.
         11    1    3    3    0    0 -0.47761492440E+02 -0.26568877570E+02 -0.54465942294E+03  0.54739469528E+03  0.00000000000E+00 0. -1.
        -12    1    3    3    0    0 -0.59407987651E+02  0.25407204302E+02 -0.26589214527E+03  0.27363016636E+03  0.00000000000E+00 0.  1.
          5    1    4    4  501    0 -0.16698054190E+02 -0.35698315877E+00  0.40187874974E+02  0.43720591781E+02  0.41800000000E+01 0. -1.
         -5    1    4    4    0  501  0.16125646632E+03 -0.19616683626E+02  0.61664870547E+02  0.17380589997E+03  0.41800000000E+01 0. -1.
</event>
<event>
11    1  0.8299058E-009  0.1397227E+03  0.7561462E-02  0.1107868E+00
         22   -1    0    0    0    0  0.00000000000E+00  0.00000000000E+00  0.15323233571E+04  0.15323233571E+04  0.00000000000E+00 0. -1.
         22   -1    0    0    0    0 -0.00000000000E+00 -0.00000000000E+00 -0.78786627577E+03  0.78786627577E+03  0.00000000000E+00 0. -1.
        -24    2    1    2    0    0 -0.32518720060E+02  0.53118644126E+02 -0.75822209318E+03  0.76496523866E+03  0.79950086043E+02 0.  0.
         25    2    1    2    0    0  0.74925504700E+02 -0.26084830033E+02  0.19941454535E+03  0.24840473189E+03  0.12507797695E+03 0.  0.
         24    2    1    2    0    0 -0.42406784640E+02 -0.27033814093E+02  0.13032646291E+04  0.13068196623E+04  0.82157006532E+02 0.  0.
        -11    1    5    5    0    0 -0.40034461847E+02 -0.25315173619E+02  0.31416506845E+03  0.31771576351E+03  0.00000000000E+00 0.  1.
         12    1    5    5    0    0 -0.23723227933E+01 -0.17186404733E+01  0.98909956068E+03  0.98910389878E+03  0.00000000000E+00 0. -1.
         13    1    3    3    0    0 -0.23385180412E+02 -0.11237956868E+02 -0.40373669938E+03  0.40456950054E+03  0.00000000000E+00 0. -1.
        -14    1    3    3    0    0 -0.91335396484E+01  0.64356600994E+02 -0.35448539380E+03  0.36039573812E+03  0.00000000000E+00 0.  1.
          5    1    4    4  501    0  0.32152715981E+02 -0.70507547226E+02  0.68008193305E+02  0.10318768394E+03  0.41800000000E+01 0. -1.
         -5    1    4    4    0  501  0.42772788719E+02  0.44422717192E+02  0.13140635204E+03  0.14521704795E+03  0.41800000000E+01 0. -1.
</event>
<event>
11    1  0.8299058E-009  0.1596221E+03  0.7561462E-02  0.1087433E+00
         22   -1    0    0    0    0  0.00000000000E+00  0.00000000000E+00  0.14869010360E+04  0.14869010360E+04  0.00000000000E+00 0.  1.
         22   -1    0    0    0    0 -0.00000000000E+00 -0.00000000000E+00 -0.55237034631E+03  0.55237034631E+03  0.00000000000E+00 0.  1.
        -24    2    1    2    0    0 -0.74782047239E+02 -0.62608505360E+02 -0.47009210299E+03  0.48683996622E+03  0.80711758016E+02 0.  0.
         25    2    1    2    0    0  0.86391429856E+02  0.82419588807E+02  0.30540454695E+02  0.17560291357E+03  0.12508875293E+03 0.  0.
         24    2    1    2    0    0 -0.11609382617E+02 -0.19811083447E+02  0.13740823380E+04  0.13768285026E+04  0.83828378450E+02 0.  0.
        -11    1    5    5    0    0 -0.16711545417E+02 -0.30048421841E+02  0.13468845411E+04  0.13473233281E+04  0.00000000000E+00 0.  1.
         12    1    5    5    0    0  0.51021627999E+01  0.10237338394E+02  0.27197796901E+02  0.29505174443E+02  0.00000000000E+00 0. -1.
         13    1    3    3    0    0 -0.37472823490E+02  0.13052850098E+02 -0.10824021391E+03  0.11528457530E+03  0.00000000000E+00 0. -1.
        -14    1    3    3    0    0 -0.37309223749E+02 -0.75661355458E+02 -0.36185188908E+03  0.37155539092E+03  0.00000000000E+00 0.  1.
          5    1    4    4  501    0 -0.15244331975E+02  0.56300841064E+02 -0.16155212591E+02  0.60668259047E+02  0.41800000000E+01 0. -1.
         -5    1    4    4    0  501  0.10163576183E+03  0.26118747743E+02  0.46695667287E+02  0.11493465452E+03  0.41800000000E+01 0. -1.
</event>
<event>
11    1  0.8299058E-009  0.1489152E+03  0.7561462E-02  0.1097992E+00
         22   -1    0    0    0    0  0.00000000000E+00  0.00000000000E+00  0.11152899650E+04  0.11152899650E+04  0.00000000000E+00 0.  1.
         22   -1    0    0    0    0 -0.00000000000E+00 -0.00000000000E+00 -0.67924689304E+03  0.67924689304E+03  0.00000000000E+00 0.  1.
        -24    2    1    2    0    0 -0.24319865322E+02  0.16951079638E+01 -0.63671911112E+03  0.64184858483E+03  0.77227262970E+02 0.  0.
         25    2    1    2    0    0 -0.25658608769E+02  0.63527450903E+02  0.10267162887E+03  0.17573506912E+03  0.12508896803E+03 0.  0.
         24    2    1    2    0    0  0.49978474091E+02 -0.65222558867E+02  0.97009055417E+03  0.97695320405E+03  0.81302211179E+02 0.  0.
        -11    1    5    5    0    0  0.30931462182E+02 -0.12895535403E+02  0.71817252170E+03  0.71895397705E+03  0.00000000000E+00 0.  1.
         12    1    5    5    0    0  0.19047011909E+02 -0.52327023464E+02  0.25191803247E+03  0.25799922700E+03  0.00000000000E+00 0. -1.
         11    1    3    3    0    0 -0.18857957832E+02  0.19647482059E+02 -0.74584176944E+02  0.79400538885E+02  0.00000000000E+00 0. -1.
        -12    1    3    3    0    0 -0.54619074902E+01 -0.17952374095E+02 -0.56213493417E+03  0.56244804594E+03  0.00000000000E+00 0.  1.
          5    1    4    4  501    0 -0.60005187681E+02  0.74293385389E+02  0.10157608776E+03  0.13948227007E+03  0.41800000000E+01 0.  1.
         -5    1    4    4    0  501  0.34346578913E+02 -0.10765934486E+02  0.10955411109E+01  0.36252799046E+02  0.41800000000E+01 0.  1.
</event>
<event>
11    1  0.8299058E-009  0.1498479E+03  0.7561462E-02  0.1097034E+00
         22   -1    0    0    0    0  0.00000000000E+00  0.00000000000E+00  0.52042084837E+03  0.52042084837E+03  0.00000000000E+00 0. -1.
         22   -1    0    0    0    0 -0.00000000000E+00 -0.00000000000E+00 -0.44260631672E+03  0.44260631672E+03  0.00000000000E+00 0.  1.
        -24    2    1    2    0    0  0.64388707681E+01  0.98663451956E+02 -0.30383493535E+03  0.32960822626E+03  0.80931940960E+02 0.  0.
         25    2    1    2    0    0  0.21032048400E+02 -0.36985470268E+02 -0.83909307918E+02  0.15651748260E+03  0.12508668327E+03 0.  0.
         24    2    1    2    0    0 -0.27470919168E+02 -0.61677981688E+02  0.46555877492E+03  0.47690145624E+03  0.78301987399E+02 0.  0.
        -11    1    5    5    0    0 -0.28474803411E+02  0.70930506155E+01  0.21799435702E+03  0.21996059986E+03  0.00000000000E+00 0.  1.
         12    1    5    5    0    0  0.10038842429E+01 -0.68771032304E+02  0.24756441790E+03  0.25694085639E+03  0.00000000000E+00 0. -1.
         11    1    3    3    0    0 -0.15653273614E+02  0.10021700758E+03 -0.21025010107E+03  0.23343859703E+03  0.00000000000E+00 0. -1.
        -12    1    3    3    0    0  0.22092144382E+02 -0.15535556220E+01 -0.93584834281E+02  0.96169629228E+02  0.00000000000E+00 0.  1.
          5    1    4    4  501    0 -0.52044838505E+02 -0.15614795920E+02 -0.24010719660E+02  0.59552280605E+02  0.41800000000E+01 0. -1.
         -5    1    4    4    0  501  0.73076886905E+02 -0.21370674348E+02 -0.59898588258E+02  0.96965201991E+02  0.41800000000E+01 0. -1.
</event>
<event>
11    1  0.8299058E-009  0.1407836E+03  0.7561462E-02  0.1106687E+00
         22   -1    0    0    0    0  0.00000000000E+00  0.00000000000E+00  0.17215780972E+03  0.17215780972E+03  0.00000000000E+00 0.  1.
         22   -1    0    0    0    0 -0.00000000000E+00 -0.00000000000E+00 -0.44446175004E+03  0.44446175004E+03  0.00000000000E+00 0.  1.
        -24    2    1    2    0    0 -0.53675241057E+02 -0.45644470373E+02 -0.20159271978E+03  0.23021780511E+03  0.86000953171E+02 0.  0.
         25    2    1    2    0    0  0.56721596140E+02  0.16097124487E+02 -0.19229421142E+03  0.23685688159E+03  0.12509061406E+03 0.  0.
         24    2    1    2    0    0 -0.30463550828E+01  0.29547345885E+02  0.12158299087E+03  0.14954487305E+03  0.81846927000E+02 0.  0.
        -13    1    5    5    0    0  0.17970996460E+02  0.52028378090E+02  0.89618350286E+02  0.10517298868E+03  0.00000000000E+00 0.  1.
         14    1    5    5    0    0 -0.21017351543E+02 -0.22481032205E+02  0.31964640583E+02  0.44371884370E+02  0.00000000000E+00 0. -1.
         11    1    3    3    0    0  0.17125483968E+02 -0.87913505193E+01 -0.95675846214E+02  0.97593225143E+02  0.00000000000E+00 0. -1.
        -12    1    3    3    0    0 -0.70800725025E+02 -0.36853119853E+02 -0.10591687356E+03  0.13262457997E+03  0.00000000000E+00 0.  1.
          5    1    4    4  501    0  0.19613346253E+02 -0.33937749178E+02 -0.16335174458E+03  0.16804082548E+03  0.41800000000E+01 0.  1.
         -5    1    4    4    0  501  0.37108249887E+02  0.50034873666E+02 -0.28942466844E+02  0.68816056117E+02  0.41800000000E+01 0.  1.
</event>
<event>
11    1  0.8299058E-009  0.1499850E+03  0.7561462E-02  0.1096894E+00
         22   -1    0    0    0    0  0.00000000000E+00  0.00000000000E+00  0.32903215375E+03  0.32903215375E+03  0.00000000000E+00 0. -1.
         22   -1    0    0    0    0 -0.00000000000E+00 -0.00000000000E+00 -0.43037095238E+03  0.43037095238E+03  0.00000000000E+00 0.  1.
         24    2    1    2    0    0 -0.81081333147E+02  0.43218939666E+02 -0.32190870998E+03  0.34459248110E+03  0.81711083321E+02 0.  0.
         25    2    1    2    0    0  0.25040935547E+02  0.33606639142E+02 -0.29531899318E+02  0.13519095620E+03  0.12509199381E+03 0.  0.
        -24    2    1    2    0    0  0.56040397600E+02 -0.76825578808E+02  0.25010181067E+03  0.27961966884E+03  0.81200663664E+02 0.  0.
        -13    1    3    3    0    0 -0.83011744670E+01  0.24694229033E+02 -0.19796053844E+03  0.19966744658E+03  0.00000000000E+00 0.  1.
         14    1    3    3    0    0 -0.72780158680E+02  0.18524710632E+02 -0.12394817154E+03  0.14492503452E+03  0.00000000000E+00 0. -1.
         13    1    5    5    0    0  0.23726486153E+02 -0.86188456358E+02  0.15757670991E+03  0.18116792117E+03  0.00000000000E+00 0. -1.
        -14    1    5    5    0    0  0.32313911447E+02  0.93628775499E+01  0.92525100752E+02  0.98451747665E+02  0.00000000000E+00 0.  1.
          5    1    4    4  501    0  0.10998542055E+02  0.80896752910E+02 -0.11757151265E+02  0.82589076545E+02  0.41800000000E+01 0. -1.
         -5    1    4    4    0  501  0.14042393492E+02 -0.47290113768E+02 -0.17774748053E+02  0.52601879658E+02  0.41800000000E+01 0. -1.
</event>
<event>
11    1  0.8299058E-009  0.1482577E+03  0.7561462E-02  0.1098672E+00
         22   -1    0    0    0    0  0.00000000000E+00  0.00000000000E+00  0.26001304564E+04  0.26001304564E+04  0.00000000000E+00 0.  1.
         22   -1    0    0    0    0 -0.00000000000E+00 -0.00000000000E+00 -0.10140810040E+04  0.10140810040E+04  0.00000000000E+00 0.  1.
        -24    2    1    2    0    0 -0.14055934333E+02  0.55190915481E+01 -0.99887182881E+03  0.10021249017E+04  0.79255022421E+02 0.  0.
         25    2    1    2    0    0  0.71518297310E+02 -0.58254205672E+02  0.48880577514E+03  0.51292033779E+03  0.12509103794E+03 0.  0.
         24    2    1    2    0    0 -0.57462362977E+02  0.52735114124E+02  0.20961155061E+04  0.20991662209E+04  0.81949329025E+02 0.  0.
        -13    1    5    5    0    0 -0.50639684607E+02  0.73433022543E+02  0.18237855410E+04  0.18259656311E+04  0.00000000000E+00 0.  1.
         14    1    5    5    0    0 -0.68226783703E+01 -0.20697908419E+02  0.27232996516E+03  0.27320058982E+03  0.00000000000E+00 0. -1.
         13    1    3    3    0    0 -0.27783126836E+02  0.19961245811E+02 -0.19311762053E+03  0.19612437082E+03  0.00000000000E+00 0. -1.
        -14    1    3    3    0    0  0.13727192502E+02 -0.14442154263E+02 -0.80575420828E+03  0.80600053089E+03  0.00000000000E+00 0.  1.
          5    1    4    4  501    0  0.43043112704E+02  0.27088830584E+01  0.39650618524E+02  0.58734074846E+02  0.41800000000E+01 0. -1.
         -5    1    4    4    0  501  0.28475184607E+02 -0.60963088731E+02  0.44915515662E+03  0.45418626294E+03  0.41800000000E+01 0. -1.
</event>
<event>
11    1  0.8299058E-009  0.1270673E+03  0.7561462E-02  0.1122926E+00
         22   -1    0    0    0    0  0.00000000000E+00  0.00000000000E+00  0.49667430659E+03  0.49667430659E+03  0.00000000000E+00 0.  1.
         22   -1    0    0    0    0 -0.00000000000E+00 -0.00000000000E+00 -0.23086645420E+03  0.23086645420E+03  0.00000000000E+00 0. -1.
         24    2    1    2    0    0  0.12130972903E+02 -0.65172679034E+01 -0.15100414173E+03  0.17202543548E+03  0.81245703567E+02 0.  0.
         25    2    1    2    0    0 -0.30230602041E+01  0.26818202722E+02 -0.25184573225E+01  0.12799405348E+03  0.12509108764E+03 0.  0.
        -24    2    1    2    0    0 -0.91079126990E+01 -0.20300934819E+02  0.41933045145E+03  0.42752127183E+03  0.80257886420E+02 0.  0.
        -13    1    3    3    0    0 -0.32887704811E+02  0.37086644422E+01 -0.40754029373E+02  0.52499964094E+02  0.00000000000E+00 0.  1.
         14    1    3    3    0    0  0.45018677714E+02 -0.10225932346E+02 -0.11025011236E+03  0.11952547139E+03  0.00000000000E+00 0. -1.
         11    1    5    5    0    0 -0.99533731948E+01  0.74614677436E+01  0.70345121221E+01  0.14290818718E+02  0.00000000000E+00 0. -1.
        -12    1    5    5    0    0  0.84546049580E+00 -0.27762402562E+02  0.41229593932E+03  0.41323045312E+03  0.00000000000E+00 0.  1.
          5    1    4    4  501    0  0.21049125376E+02 -0.39148357772E+02  0.26478676144E+02  0.51906187354E+02  0.41800000000E+01 0. -1.
         -5    1    4    4    0  501 -0.24072185580E+02  0.65966560494E+02 -0.28997133466E+02  0.76087866124E+02  0.41800000000E+01 0. -1.
</event>
<event>
11    1  0.8299058E-009  0.1360769E+03  0.7561462E-02  0.1112020E+00
         22   -1    0    0    0    0  0.00000000000E+00  0.00000000000E+00  0.92095340391E+03  0.92095340391E+03  0.00000000000E+00 0. -1.
         22   -1    0    0    0    0 -0.00000000000E+00 -0.00000000000E+00 -0.99660301305E+03  0.99660301305E+03  0.00000000000E+00 0.  1.
        -24    2    1    2    0    0 -0.26618461908E+02  0.52333196089E+02 -0.82490936634E+03  0.83097920798E+03  0.81263001935E+02 0.  0.
         25    2    1    2    0    0  0.17622847113E+02 -0.63679711020E+01 -0.14211012697E+03  0.19021354446E+03  0.12503914792E+03 0.  0.
         24    2    1    2    0    0  0.89956147949E+01 -0.45965224987E+02  0.89136988418E+03  0.89636366452E+03  0.82059890664E+02 0.  0.
        -13    1    5    5    0    0 -0.24070888379E+02  0.78347435162E+01  0.42286859531E+03  0.42362558914E+03  0.00000000000E+00 0.  1.
         14    1    5    5    0    0  0.33066503174E+02 -0.53799968503E+02  0.46850128887E+03  0.47273807538E+03  0.00000000000E+00 0. -1.
         11    1    3    3    0    0 -0.27609599767E+02 -0.78211041154E+01 -0.11504128820E+03  0.11856625852E+03  0.00000000000E+00 0. -1.
        -12    1    3    3    0    0  0.99113785883E+00  0.60154300204E+02 -0.70986807814E+03  0.71241294946E+03  0.00000000000E+00 0.  1.
          5    1    4    4  501    0  0.56049460347E+02 -0.38499607284E+02 -0.47407226672E+02  0.82998068091E+02  0.41800000000E+01 0.  1.
         -5    1    4    4    0  501 -0.38426613234E+02  0.32131636182E+02 -0.94702900302E+02  0.10721547637E+03  0.41800000000E+01 0.  1.
</event>
<event>
11    1  0.8299058E-009  0.2209711E+03  0.7561462E-02  0.1040611E+00
         22   -1    0    0    0    0  0.00000000000E+00  0.00000000000E+00  0.50474506226E+03  0.50474506226E+03  0.00000000000E+00 0. -1.
         22   -1    0    0    0    0 -0.00000000000E+00 -0.00000000000E+00 -0.88804061913E+03  0.88804061913E+03  0.00000000000E+00 0. -1.
         24    2    1    2    0    0 -0.39896566795E+02 -0.21526074420E+02 -0.79225872545E+03  0.79762149252E+03  0.80442832905E+02 0.  0.
         25    2    1    2    0    0  0.15096688568E+03 -0.11860727543E+03  0.15299254856E+03  0.27552085697E+03  0.12508531629E+03 0.  0.
        -24    2    1    2    0    0 -0.11107031888E+03  0.14013334985E+03  0.25597062002E+03  0.31964333190E+03  0.68388082549E+02 0.  0.
        -13    1    3    3    0    0 -0.30742340604E+02 -0.46218814317E+02 -0.33187682400E+03  0.33648699322E+03  0.00000000000E+00 0.  1.
         14    1    3    3    0    0 -0.91542261901E+01  0.24692739898E+02 -0.46038190145E+03  0.46113449930E+03  0.00000000000E+00 0. -1.
         13    1    5    5    0    0 -0.93368377492E+02  0.67210726293E+02  0.17313885662E+03  0.20787496077E+03  0.00000000000E+00 0. -1.
        -14    1    5    5    0    0 -0.17701941390E+02  0.72922623561E+02  0.82831763405E+02  0.11176837113E+03  0.00000000000E+00 0.  1.
          5    1    4    4  501    0  0.14715025826E+03 -0.13866383502E+03  0.15468964461E+03  0.25461189328E+03  0.41800000000E+01 0. -1.
         -5    1    4    4    0  501  0.38166274204E+01  0.20056559591E+02 -0.16970960521E+01  0.20908963687E+02  0.41800000000E+01 0. -1.
</event>
<event>
11    1  0.8299058E-009  0.2411752E+03  0.7561462E-02  0.1028708E+00
         22   -1    0    0    0    0  0.00000000000E+00  0.00000000000E+00  0.57467934999E+03  0.57467934999E+03  0.00000000000E+00 0.  1.
         22   -1    0    0    0    0 -0.00000000000E+00 -0.00000000000E+00 -0.24585081195E+03  0.24585081195E+03  0.00000000000E+00 0. -1.
        -24    2    1    2    0    0 -0.28647551684E+02 -0.75163840810E+01 -0.63654058763E+02  0.10511053023E+03  0.78225354715E+02 0.  0.
         25    2    1    2    0    0 -0.13629133382E+03  0.13625735600E+03 -0.35210572820E+02  0.23244009762E+03  0.12508884765E+03 0.  0.
         24    2    1    2    0    0  0.16493888550E+03 -0.12874097192E+03  0.42769316963E+03  0.48297953409E+03  0.81047573728E+02 0.  0.
        -11    1    5    5    0    0  0.11168714557E+03 -0.10295981957E+03  0.37160949655E+03  0.40145779462E+03  0.00000000000E+00 0.  1.
         12    1    5    5    0    0  0.53251739926E+02 -0.25781152346E+02  0.56083673076E+02  0.81521739475E+02  0.00000000000E+00 0. -1.
         13    1    3    3    0    0 -0.36098692515E+01 -0.38989242805E+02 -0.48021927049E+02  0.61962066525E+02  0.00000000000E+00 0. -1.
        -14    1    3    3    0    0 -0.25037682432E+02  0.31472858724E+02 -0.15632131714E+02  0.43148463701E+02  0.00000000000E+00 0.  1.
          5    1    4    4  501    0 -0.15673870599E+03  0.94862366825E+02 -0.24812760705E+02  0.18492981395E+03  0.41800000000E+01 0.  1.
         -5    1    4    4    0  501  0.20447372173E+02  0.41394989174E+02 -0.10397812115E+02  0.47510283669E+02  0.41800000000E+01 0.  1.
</event>
<event>
11    1  0.8299058E-009  0.1520864E+03  0.7561462E-02  0.1094766E+00
         22   -1    0    0    0    0  0.00000000000E+00  0.00000000000E+00  0.27243770648E+03  0.27243770648E+03  0.00000000000E+00 0. -1.
         22   -1    0    0    0    0 -0.00000000000E+00 -0.00000000000E+00 -0.51945077984E+03  0.51945077984E+03  0.00000000000E+00 0.  1.
        -24    2    1    2    0    0 -0.26834030904E+02  0.39491698559E+02 -0.40597878404E+03  0.41665843797E+03  0.80658672048E+02 0.  0.
         25    2    1    2    0    0  0.90067188088E+02 -0.87539613804E+02 -0.52370859926E+01  0.17734439991E+03  0.12509327222E+03 0.  0.
         24    2    1    2    0    0 -0.63233157184E+02  0.48047915245E+02  0.16420279667E+03  0.19788564843E+03  0.76740713408E+02 0.  0.
        -11    1    5    5    0    0 -0.32581873481E+02  0.64589125110E+02  0.86704324225E+02  0.11292020812E+03  0.00000000000E+00 0.  1.
         12    1    5    5    0    0 -0.30651283704E+02 -0.16541209866E+02  0.77498472447E+02  0.84965440316E+02  0.00000000000E+00 0. -1.
         13    1    3    3    0    0 -0.34415091602E+02 -0.15130322502E+02 -0.13570016752E+03  0.14081143652E+03  0.00000000000E+00 0. -1.
        -14    1    3    3    0    0  0.75810606981E+01  0.54622021061E+02 -0.27027861652E+03  0.27584700146E+03  0.00000000000E+00 0.  1.
          5    1    4    4  501    0  0.37888066645E+02 -0.78154891387E+02  0.50296644947E+02  0.10045355909E+03  0.41800000000E+01 0. -1.
         -5    1    4    4    0  501  0.52179121443E+02 -0.93847224163E+01 -0.55533730939E+02  0.76890840817E+02  0.41800000000E+01 0. -1.
</event>
<event>
11    1  0.8299058E-009  0.1745173E+03  0.7561462E-02  0.1074166E+00
         22   -1    0    0    0    0  0.00000000000E+00  0.00000000000E+00  0.20410232804E+03  0.20410232804E+03  0.00000000000E+00 0.  1.
         22   -1    0    0    0    0 -0.00000000000E+00 -0.00000000000E+00 -0.16943816772E+04  0.16943816772E+04  0.00000000000E+00 0.  1.
         24    2    1    2    0    0  0.12039385918E+03 -0.23865877813E+01 -0.15416745124E+04  0.15484524446E+04  0.80276358756E+02 0.  0.
         25    2    1    2    0    0 -0.14791935910E+03 -0.93483085480E+01 -0.66333179337E+02  0.20497626497E+03  0.12509057059E+03 0.  0.
        -24    2    1    2    0    0  0.27525499923E+02  0.11734896329E+02  0.11772834257E+03  0.14505529571E+03  0.79282502683E+02 0.  0.
        -11    1    3    3    0    0  0.10170375723E+03  0.27394643998E+02 -0.12962313376E+04  0.13005036721E+04  0.00000000000E+00 0.  1.
         12    1    3    3    0    0  0.18690101944E+02 -0.29781231780E+02 -0.24544317483E+03  0.24794877242E+03  0.00000000000E+00 0. -1.
         11    1    5    5    0    0 -0.13154857279E+02  0.34493152570E+02  0.40086583366E+02  0.54495522845E+02  0.00000000000E+00 0. -1.
        -12    1    5    5    0    0  0.40680357203E+02 -0.22758256240E+02  0.77641759201E+02  0.90559772864E+02  0.00000000000E+00 0.  1.
          5    1    4    4  501    0 -0.37925801421E+02 -0.42137237849E+02 -0.69864653950E+02  0.90069170633E+02  0.41800000000E+01 0. -1.
         -5    1    4    4    0  501 -0.10999355768E+03  0.32788929301E+02  0.35314746133E+01  0.11490709433E+03  0.41800000000E+01 0. -1.
</event>
<event>
11    1  0.8299058E-009  0.3794311E+03  0.7561462E-02  0.9712476E-01
         22   -1    0    0    0    0  0.00000000000E+00  0.00000000000E+00  0.98102861490E+03  0.98102861490E+03  0.00000000000E+00 0.  1.
         22   -1    0    0    0    0 -0.00000000000E+00 -0.00000000000E+00 -0.22422183647E+04  0.22422183647E+04  0.00000000000E+00 0. -1.
         24    2    1    2    0    0 -0.65468408224E+02 -0.49608692660E+02 -0.12755590525E+04  0.12807483858E+04  0.80736587957E+02 0.  0.
         25    2    1    2    0    0  0.38935127945E+03  0.19551695035E+03 -0.87275351678E+03  0.98344655170E+03  0.12508845800E+03 0.  0.
        -24    2    1    2    0    0 -0.32388287122E+03 -0.14590825769E+03  0.88712281940E+03  0.95905204210E+03  0.81268621382E+02 0.  0.
        -11    1    3    3    0    0  0.23743792219E+00 -0.49445383822E+02 -0.56072373769E+03  0.56289964680E+03  0.00000000000E+00 0.  1.
         12    1    3    3    0    0 -0.65705846147E+02 -0.16330883846E+00 -0.71483531478E+03  0.71784873904E+03  0.00000000000E+00 0. -1.
         11    1    5    5    0    0 -0.28278150885E+03 -0.15259134116E+03  0.80997755555E+03  0.87138575823E+03  0.00000000000E+00 0. -1.
        -12    1    5    5    0    0 -0.41101362373E+02  0.66830834722E+01  0.77145263848E+02  0.87666283871E+02  0.00000000000E+00 0.  1.
          5    1    4    4  501    0  0.34000267385E+03  0.12516751141E+03 -0.75675117928E+03  0.83902237388E+03  0.41800000000E+01 0.  1.
         -5    1    4    4    0  501  0.49348605599E+02  0.70349438937E+02 -0.11600233750E+03  0.14442417782E+03  0.41800000000E+01 0.  1.
</event>
<event>
11    1  0.8299058E-009  0.1948301E+03  0.7561462E-02  0.1058241E+00
         22   -1    0    0    0    0  0.00000000000E+00  0.00000000000E+00  0.92031721843E+03  0.92031721843E+03  0.00000000000E+00 0.  1.
         22   -1    0    0    0    0 -0.00000000000E+00 -0.00000000000E+00 -0.14585567035E+04  0.14585567035E+04  0.00000000000E+00 0. -1.
         24    2    1    2    0    0 -0.25621897835E+02  0.14853581948E+03 -0.11093101660E+04  0.11223778906E+04  0.80272745231E+02 0.  0.
         25    2    1    2    0    0  0.12677293152E+03 -0.11646848513E+03 -0.30447072909E+03  0.37146601365E+03  0.12509312621E+03 0.  0.
        -24    2    1    2    0    0 -0.10115103369E+03 -0.32067334350E+02  0.87554141001E+03  0.88503001769E+03  0.73793807418E+02 0.  0.
        -11    1    3    3    0    0  0.68064717178E+00  0.13599268978E+03 -0.77870398948E+03  0.79048996084E+03  0.00000000000E+00 0.  1.
         12    1    3    3    0    0 -0.26302545007E+02  0.12543129703E+02 -0.33060617653E+03  0.33188792978E+03  0.00000000000E+00 0. -1.
         13    1    5    5    0    0 -0.46064977781E+02 -0.50532911596E+02  0.38096398399E+03  0.38705182395E+03  0.00000000000E+00 0. -1.
        -14    1    5    5    0    0 -0.55086055908E+02  0.18465577246E+02  0.49457742603E+03  0.49797819373E+03  0.00000000000E+00 0.  1.
          5    1    4    4  501    0  0.23316627819E+02 -0.10556533335E+03 -0.16784302376E+03  0.19969090555E+03  0.41800000000E+01 0.  1.
         -5    1    4    4    0  501  0.10345630370E+03 -0.10903151785E+02 -0.13662770533E+03  0.17177510809E+03  0.41800000000E+01 0.  1.
</event>
<event>
11    1  0.8299058E-009  0.1888418E+03  0.7561462E-02  0.1062707E+00
         22   -1    0    0    0    0  0.00000000000E+00  0.00000000000E+00  0.10488272021E+04  0.10488272021E+04  0.00000000000E+00 0.  1.
         22   -1    0    0    0    0 -0.00000000000E+00 -0.00000000000E+00 -0.19368600465E+03  0.19368600465E+03  0.00000000000E+00 0.  1.
        -24    2    1    2    0    0  0.55586042690E+02 -0.11208170828E+03 -0.34652708094E+02  0.15221579802E+03  0.79477805187E+02 0.  0.
         25    2    1    2    0    0 -0.11146895626E+01  0.19134457739E+03  0.40897744376E+02  0.23223688964E+03  0.12508939838E+03 0.  0.
         24    2    1    2    0    0 -0.54471353127E+02 -0.79262869109E+02  0.84889616113E+03  0.85806051904E+03  0.79958934606E+02 0.  0.
        -13    1    5    5    0    0 -0.26286177580E+02 -0.54335525597E+02  0.74707625804E+03  0.74951067224E+03  0.00000000000E+00 0.  1.
         14    1    5    5    0    0 -0.28185175548E+02 -0.24927343512E+02  0.10181990309E+03  0.10854984680E+03  0.00000000000E+00 0. -1.
         13    1    3    3    0    0  0.63296521737E+02 -0.42032115134E+02 -0.29664791047E+02  0.81566832686E+02  0.00000000000E+00 0. -1.
        -14    1    3    3    0    0 -0.77104790471E+01 -0.70049593143E+02 -0.49879170473E+01  0.70648965336E+02  0.00000000000E+00 0.  1.
          5    1    4    4  501    0  0.31059627280E+02  0.19267677548E+03  0.42281315475E+02  0.19973538068E+03  0.41800000000E+01 0.  1.
         -5    1    4    4    0  501 -0.32174316842E+02 -0.13321980930E+01 -0.13835710993E+01  0.32501508965E+02  0.41800000000E+01 0.  1.
</event>
<event>
11    1  0.8299058E-009  0.1497254E+03  0.7561462E-02  0.1097160E+00
         22   -1    0    0    0    0  0.00000000000E+00  0.00000000000E+00  0.43194072326E+03  0.43194072326E+03  0.00000000000E+00 0.  1.
         22   -1    0    0    0    0 -0.00000000000E+00 -0.00000000000E+00 -0.47248562017E+03  0.47248562017E+03  0.00000000000E+00 0.  1.
        -24    2    1    2    0    0 -0.18416492861E+02 -0.74335506535E+01 -0.39908178965E+03  0.40764904142E+03  0.80728193691E+02 0.  0.
         25    2    1    2    0    0  0.25202861447E+02 -0.75387282129E+02  0.33935061097E+02  0.15204247937E+03  0.12508757184E+03 0.  0.
         24    2    1    2    0    0 -0.67863685867E+01  0.82820832783E+02  0.32460183164E+03  0.34473482264E+03  0.81058026706E+02 0.  0.
        -11    1    5    5    0    0 -0.17198460654E+01  0.53818676613E+01  0.18441242919E+03  0.18449896046E+03  0.00000000000E+00 0.  1.
         12    1    5    5    0    0 -0.50665225213E+01  0.77438965122E+02  0.14018940245E+03  0.16023586218E+03  0.00000000000E+00 0. -1.
         11    1    3    3    0    0 -0.38903842323E+02 -0.13672549961E+02 -0.10528094020E+03  0.11306866913E+03  0.00000000000E+00 0. -1.
        -12    1    3    3    0    0  0.20487349463E+02  0.62389993076E+01 -0.29380084945E+03  0.29458037229E+03  0.00000000000E+00 0.  1.
          5    1    4    4  501    0  0.41148739481E+02 -0.45756297988E+02  0.76085964709E+02  0.97945923816E+02  0.41800000000E+01 0. -1.
         -5    1    4    4    0  501 -0.15945878033E+02 -0.29630984141E+02 -0.42150903612E+02  0.54096555553E+02  0.41800000000E+01 0. -1.
</event>
<event>
11    1  0.8299058E-009  0.1513109E+03  0.7561462E-02  0.1095547E+00
         22   -1    0    0    0    0  0.00000000000E+00  0.00000000000E+00  0.31282708849E+03  0.31282708849E+03  0.00000000000E+00 0.  1.
         22   -1    0    0    0    0 -0.00000000000E+00 -0.00000000000E+00 -0.57402401068E+03  0.57402401068E+03  0.00000000000E+00 0. -1.
        -24    2    1    2    0    0 -0.41916725412E+01  0.21216601761E+02 -0.32798038553E+03  0.33732728154E+03  0.75834340971E+02 0.  0.
         25    2    1    2    0    0 -0.10974194262E+01 -0.10513699699E+03 -0.20017003123E+03  0.25839925379E+03  0.12508853060E+03 0.  0.
         24    2    1    2    0    0  0.52890919674E+01  0.83920395231E+02  0.26695349457E+03  0.29112456384E+03  0.80117015534E+02 0.  0.
        -11    1    5    5    0    0  0.35157283536E+02  0.59047689184E+02  0.21824292947E+03  0.22880699388E+03  0.00000000000E+00 0.  1.
         12    1    5    5    0    0 -0.29868191568E+02  0.24872706047E+02  0.48710565102E+02  0.62317569964E+02  0.00000000000E+00 0. -1.
         13    1    3    3    0    0 -0.38545743829E+02  0.21060702779E+02 -0.20400074778E+03  0.20867590341E+03  0.00000000000E+00 0. -1.
        -14    1    3    3    0    0  0.34354071288E+02  0.15589898269E+00 -0.12397963775E+03  0.12865137813E+03  0.00000000000E+00 0.  1.
          5    1    4    4  501    0  0.42479852066E+02 -0.19741605747E+02 -0.14193846427E+02  0.49124398270E+02  0.41800000000E+01 0.  1.
         -5    1    4    4    0  501 -0.43577271492E+02 -0.85395391246E+02 -0.18597618481E+03  0.20927485552E+03  0.41800000000E+01 0.  1.
</event>
<event>
11    1  0.8299058E-009  0.1400202E+03  0.7561462E-02  0.1107536E+00
         22   -1    0    0    0    0  0.00000000000E+00  0.00000000000E+00  0.70765312280E+03  0.70765312280E+03  0.00000000000E+00 0.  1.
         22   -1    0    0    0    0 -0.00000000000E+00 -0.00000000000E+00 -0.46035678400E+03  0.46035678400E+03  0.00000000000E+00 0.  1.
        -24    2    1    2    0    0  0.60232530759E+02 -0.17504140189E+02 -0.38010798195E+03  0.39357027746E+03  0.80505482216E+02 0.  0.
         25    2    1    2    0    0 -0.61740435845E+02  0.20371040480E+02 -0.88374317060E+00  0.14097569579E+03  0.12508599080E+03 0.  0.
         24    2    1    2    0    0  0.15079050860E+01 -0.28669002911E+01  0.62828806393E+03  0.63346393356E+03  0.80747575518E+02 0.  0.
        -13    1    5    5    0    0  0.32543649593E+02 -0.83487480774E+01  0.50819280193E+03  0.50930218403E+03  0.00000000000E+00 0.  1.
         14    1    5    5    0    0 -0.31035744507E+02  0.54818477863E+01  0.12009526200E+03  0.12416174953E+03  0.00000000000E+00 0. -1.
         13    1    3    3    0    0  0.38424941008E+02  0.11430954044E+02 -0.64876835294E+02  0.76263664740E+02  0.00000000000E+00 0. -1.
        -14    1    3    3    0    0  0.21807589751E+02 -0.28935094233E+02 -0.31523114666E+03  0.31730661272E+03  0.00000000000E+00 0.  1.
          5    1    4    4  501    0  0.28495500159E+02 -0.94250182565E+01  0.28316826757E+02  0.41474565411E+02  0.41800000000E+01 0. -1.
         -5    1    4    4    0  501 -0.90235936004E+02  0.29796058736E+02 -0.29200569928E+02  0.99501130380E+02  0.41800000000E+01 0. -1.
</event>
<event>
11    1  0.8299058E-009  0.1356512E+03  0.7561462E-02  0.1112514E+00
         22   -1    0    0    0    0  0.00000000000E+00  0.00000000000E+00  0.34886697139E+03  0.34886697139E+03  0.00000000000E+00 0.  1.
         22   -1    0    0    0    0 -0.00000000000E+00 -0.00000000000E+00 -0.46748376104E+03  0.46748376104E+03  0.00000000000E+00 0.  1.
        -24    2    1    2    0    0 -0.39772682172E+02  0.32821330616E+02 -0.33037709988E+03  0.34395259496E+03  0.80593135363E+02 0.  0.
         25    2    1    2    0    0  0.15210652639E+02 -0.68764444265E+02 -0.81593186831E+02  0.16512348124E+03  0.12509357765E+03 0.  0.
         24    2    1    2    0    0  0.24562029532E+02  0.35943113649E+02  0.29335349706E+03  0.30727465622E+03  0.80412930594E+02 0.  0.
        -13    1    5    5    0    0  0.51784919978E+02  0.21207445290E+02  0.13887905577E+03  0.14972917486E+03  0.00000000000E+00 0.  1.
         14    1    5    5    0    0 -0.27222890445E+02  0.14735668359E+02  0.15447444129E+03  0.15754548136E+03  0.00000000000E+00 0. -1.
         11    1    3    3    0    0  0.24773940803E+02  0.45112283707E+01 -0.84309263902E+02  0.87989495419E+02  0.00000000000E+00 0. -1.
        -12    1    3    3    0    0 -0.64546622975E+02  0.28310102245E+02 -0.24606783598E+03  0.25596309954E+03  0.00000000000E+00 0.  1.
          5    1    4    4  501    0  0.22786868342E+02 -0.14692102118E+01 -0.93411456394E+02  0.96252649486E+02  0.41800000000E+01 0. -1.
         -5    1    4    4    0  501 -0.75762157025E+01 -0.67295234053E+02  0.11818269563E+02  0.68870831751E+02  0.41800000000E+01 0. -1.
</event>
<event>
11    1  0.8299058E-009  0.1290734E+03  0.7561462E-02  0.1120413E+00
         22   -1    0    0    0    0  0.00000000000E+00  0.00000000000E+00  0.21566141271E+04  0.21566141271E+04  0.00000000000E+00 0.  1.
         22   -1    0    0    0    0 -0.00000000000E+00 -0.00000000000E+00 -0.30589472928E+02  0.30589472928E+02  0.00000000000E+00 0. -1.
        -24    2    1    2    0    0 -0.12685628819E+02  0.29715029238E+02  0.54886233118E+02  0.10241005352E+03  0.80196086783E+02 0.  0.
         25    2    1    2    0    0  0.17679049545E+02 -0.21895069210E+02  0.73015679190E+03  0.74132904929E+03  0.12509146939E+03 0.  0.
         24    2    1    2    0    0 -0.49934207253E+01 -0.78199600280E+01  0.13409816291E+04  0.13434644972E+04  0.81111278661E+02 0.  0.
        -11    1    5    5    0    0 -0.18227049192E+02 -0.24297570064E+02  0.12361855482E+04  0.12365586548E+04  0.00000000000E+00 0.  1.
         12    1    5    5    0    0  0.13233628466E+02  0.16477610036E+02  0.10479608094E+03  0.10690584238E+03  0.00000000000E+00 0. -1.
         11    1    3    3    0    0 -0.90724540458E+01 -0.55435012711E+01 -0.18259627262E+02  0.21129453768E+02  0.00000000000E+00 0. -1.
        -12    1    3    3    0    0 -0.36131747734E+01  0.35258530510E+02  0.73145860380E+02  0.81280599754E+02  0.00000000000E+00 0.  1.
          5    1    4    4  501    0 -0.27782186898E+02 -0.36735539283E+02  0.61267539849E+03  0.61441839659E+03  0.41800000000E+01 0. -1.
         -5    1    4    4    0  501  0.45461236442E+02  0.14840470072E+02  0.11748139342E+03  0.12691065271E+03  0.41800000000E+01 0. -1.
</event>
<event>
11    1  0.8299058E-009  0.1316702E+03  0.7561462E-02  0.1117234E+00
         22   -1    0    0    0    0  0.00000000000E+00  0.00000000000E+00  0.25122103826E+03  0.25122103826E+03  0.00000000000E+00 0. -1.
         22   -1    0    0    0    0 -0.00000000000E+00 -0.00000000000E+00 -0.60162596205E+03  0.60162596205E+03  0.00000000000E+00 0. -1.
         24    2    1    2    0    0 -0.22862980235E+02  0.21035885906E+02 -0.45172256833E+03  0.45971798883E+03  0.79511798785E+02 0.  0.
         25    2    1    2    0    0  0.51632651426E+02 -0.47730514276E+02 -0.99670933220E+02  0.17471727162E+03  0.12509075660E+03 0.  0.
        -24    2    1    2    0    0 -0.28769671191E+02  0.26694628370E+02  0.20098857776E+03  0.21841173986E+03  0.75940651510E+02 0.  0.
        -13    1    3    3    0    0 -0.51407518920E+02  0.70333774546E+01 -0.23379774283E+03  0.23948608718E+03  0.00000000000E+00 0.  1.
         14    1    3    3    0    0  0.28544538685E+02  0.14002508451E+02 -0.21792482551E+03  0.22023190165E+03  0.00000000000E+00 0. -1.
         11    1    5    5    0    0 -0.22912783947E+02  0.44115784595E+02  0.19126337213E+03  0.19761800433E+03  0.00000000000E+00 0. -1.
        -12    1    5    5    0    0 -0.58568872441E+01 -0.17421156224E+02  0.97252056337E+01  0.20793735523E+02  0.00000000000E+00 0.  1.
          5    1    4    4  501    0  0.48298272916E+02 -0.45207630476E+02 -0.12887376635E+03  0.14492195511E+03  0.41800000000E+01 0.  1.
         -5    1    4    4    0  501  0.33343785100E+01 -0.25228837998E+01  0.29202833133E+02  0.29795316507E+02  0.41800000000E+01 0.  1.
</event>
<event>
11    1  0.8299058E-009  0.1346726E+03  0.7561462E-02  0.1113658E+00
         22   -1    0    0    0    0  0.00000000000E+00  0.00000000000E+00  0.74812430693E+03  0.74812430693E+03  0.00000000000E+00 0.  1.
         22   -1    0    0    0    0 -0.00000000000E+00 -0.00000000000E+00 -0.40652899539E+03  0.40652899539E+03  0.00000000000E+00 0. -1.
         24    2    1    2    0    0  0.42389252390E+02  0.24677877839E+02 -0.35022391155E+03  0.36311600050E+03  0.82405067978E+02 0.  0.
         25    2    1    2    0    0 -0.57119914715E+02 -0.27675435549E+02  0.56884506258E+02  0.15137081749E+03  0.12509461598E+03 0.  0.
        -24    2    1    2    0    0  0.14730662326E+02  0.29975577102E+01  0.63493471684E+03  0.64016648432E+03  0.80281101396E+02 0.  0.
        -13    1    3    3    0    0 -0.60528003526E+01 -0.10400379053E+02 -0.54800599361E+01  0.13222531280E+02  0.00000000000E+00 0.  1.
         14    1    3    3    0    0  0.48442052742E+02  0.35078256892E+02 -0.34474385161E+03  0.34989346922E+03  0.00000000000E+00 0. -1.
         13    1    5    5    0    0  0.45618056297E+02  0.14460617067E+02  0.32884669516E+03  0.33231049551E+03  0.00000000000E+00 0. -1.
        -14    1    5    5    0    0 -0.30887393972E+02 -0.11463059357E+02  0.30608802167E+03  0.30785598881E+03  0.00000000000E+00 0.  1.
          5    1    4    4  501    0 -0.60396490371E+02 -0.37371729321E+01 -0.25214530989E+02  0.65688259862E+02  0.41800000000E+01 0.  1.
         -5    1    4    4    0  501  0.32765756561E+01 -0.23938262617E+02  0.82099037248E+02  0.85682557631E+02  0.41800000000E+01 0.  1.
</event>
<event>
11    1  0.8299058E-009  0.1452519E+03  0.7561462E-02  0.1101832E+00
         22   -1    0    0    0    0  0.00000000000E+00  0.00000000000E+00  0.30729609663E+03  0.30729609663E+03  0.00000000000E+00 0.  1.
         22   -1    0    0    0    0 -0.00000000000E+00 -0.00000000000E+00 -0.34444893946E+03  0.34444893946E+03  0.00000000000E+00 0. -1.
        -24    2    1    2    0    0  0.27349941302E+02 -0.64910544662E+02 -0.22301452807E+03  0.24733176187E+03  0.80474359921E+02 0.  0.
         25    2    1    2    0    0  0.58804342989E+01  0.10018047758E+03 -0.32524342034E+02  0.16363307187E+03  0.12508893553E+03 0.  0.
         24    2    1    2    0    0 -0.33230375601E+02 -0.35269932916E+02  0.21838602727E+03  0.24078020234E+03  0.89075377650E+02 0.  0.
        -11    1    5    5    0    0  0.25885520512E+02 -0.12708779286E+02  0.12285896330E+03  0.12619785302E+03  0.00000000000E+00 0.  1.
         12    1    5    5    0    0 -0.59115896113E+02 -0.22561153630E+02  0.95527063968E+02  0.11458234932E+03  0.00000000000E+00 0. -1.
         13    1    3    3    0    0  0.51426481417E+02 -0.60892461819E+02 -0.14342494604E+03  0.16408318026E+03  0.00000000000E+00 0. -1.
        -14    1    3    3    0    0 -0.24076540114E+02 -0.40180828438E+01 -0.79589582024E+02  0.83248581612E+02  0.00000000000E+00 0.  1.
          5    1    4    4  501    0  0.43048177160E+02  0.11263008599E+03 -0.28794406350E+02  0.12403738172E+03  0.41800000000E+01 0.  1.
         -5    1    4    4    0  501 -0.37167742861E+02 -0.12449608407E+02 -0.37299356849E+01  0.39595690158E+02  0.41800000000E+01 0.  1.
</event>
<event>
11    1  0.8299058E-009  0.1430729E+03  0.7561462E-02  0.1104175E+00
         22   -1    0    0    0    0  0.00000000000E+00  0.00000000000E+00  0.33985157853E+03  0.33985157853E+03  0.00000000000E+00 0. -1.
         22   -1    0    0    0    0 -0.00000000000E+00 -0.00000000000E+00 -0.12310297480E+04  0.12310297480E+04  0.00000000000E+00 0.  1.
        -24    2    1    2    0    0  0.22667818087E+02  0.28217898616E+02 -0.11187083379E+04  0.11221954423E+04  0.80648531572E+02 0.  0.
         25    2    1    2    0    0 -0.46361605303E+02 -0.90098390802E+02 -0.35860186565E+02  0.16492612975E+03  0.12509019475E+03 0.  0.
         24    2    1    2    0    0  0.23693787215E+02  0.61880492186E+02  0.26339035500E+03  0.28375975449E+03  0.82185937317E+02 0.  0.
        -11    1    5    5    0    0  0.18197789518E+02 -0.23527771879E+01  0.74147236491E+01  0.19790735980E+02  0.00000000000E+00 0.  1.
         12    1    5    5    0    0  0.54959976972E+01  0.64233269374E+02  0.25597563135E+03  0.26396901851E+03  0.00000000000E+00 0. -1.
         11    1    3    3    0    0  0.42086684280E+02 -0.11181888806E+01 -0.32607792920E+03  0.32878466396E+03  0.00000000000E+00 0. -1.
        -12    1    3    3    0    0 -0.19418866192E+02  0.29336087497E+02 -0.79263040872E+03  0.79341077836E+03  0.00000000000E+00 0.  1.
          5    1    4    4  501    0 -0.67335357655E+02 -0.22158263212E+02 -0.56526327614E+02  0.90761980656E+02  0.41800000000E+01 0. -1.
         -5    1    4    4    0  501  0.20973752352E+02 -0.67940127590E+02  0.20666141049E+02  0.74164149092E+02  0.41800000000E+01 0. -1.
</event>
<event>
11    1  0.8299058E-009  0.1597058E+03  0.7561462E-02  0.1087354E+00
         22   -1    0    0    0    0  0.00000000000E+00  0.00000000000E+00  0.21927872041E+04  0.21927872041E+04  0.00000000000E+00 0. -1.
         22   -1    0    0    0    0 -0.00000000000E+00 -0.00000000000E+00 -0.62754594920E+03  0.62754594920E+03  0.00000000000E+00 0.  1.
         24    2    1    2    0    0 -0.91456240527E+02 -0.37974475823E+02 -0.60335204828E+03  0.61666678506E+03  0.80236680507E+02 0.  0.
         25    2    1    2    0    0  0.81398721756E+02  0.12649763899E+03  0.61426291812E+03  0.64466580570E+03  0.12509062269E+03 0.  0.
        -24    2    1    2    0    0  0.10057518772E+02 -0.88523163165E+02  0.15543303851E+04  0.15590005625E+04  0.81254562959E+02 0.  0.
        -13    1    3    3    0    0 -0.10091013822E+03 -0.39826410519E+02 -0.44540550442E+03  0.45842672516E+03  0.00000000000E+00 0.  1.
         14    1    3    3    0    0  0.94538976943E+01  0.18519346954E+01 -0.15794654386E+03  0.15824005991E+03  0.00000000000E+00 0. -1.
         11    1    5    5    0    0  0.14163578837E+02 -0.76002468361E+02  0.15236512457E+04  0.15256113858E+04  0.00000000000E+00 0. -1.
        -12    1    5    5    0    0 -0.41060600656E+01 -0.12520694805E+02  0.30679139379E+02  0.33389176700E+02  0.00000000000E+00 0.  1.
          5    1    4    4  501    0 -0.32584399453E+02  0.42990536177E+02  0.15813348653E+03  0.16713348334E+03  0.41800000000E+01 0. -1.
         -5    1    4    4    0  501  0.11398312121E+03  0.83507102811E+02  0.45612943159E+03  0.47753232236E+03  0.41800000000E+01 0. -1.
</event>
<event>
11    1  0.8299058E-009  0.1325578E+03  0.7561462E-02  0.1116166E+00
         22   -1    0    0    0    0  0.00000000000E+00  0.00000000000E+00  0.16701427561E+04  0.16701427561E+04  0.00000000000E+00 0.  1.
         22   -1    0    0    0    0 -0.00000000000E+00 -0.00000000000E+00 -0.16467070609E+03  0.16467070609E+03  0.00000000000E+00 0.  1.
         24    2    1    2    0    0  0.31247604337E+02 -0.24024188819E+02 -0.88543452944E+02  0.12380377836E+03  0.77031539335E+02 0.  0.
         25    2    1    2    0    0  0.20449181884E+01 -0.59607263160E+01  0.11587883515E+02  0.12578322900E+03  0.12508968665E+03 0.  0.
        -24    2    1    2    0    0 -0.33292522525E+02  0.29984915135E+02  0.15824276194E+04  0.15852264548E+04  0.82814582798E+02 0.  0.
        -13    1    3    3    0    0  0.47918833485E+02  0.17744147149E+01 -0.77553275606E+02  0.91180445860E+02  0.00000000000E+00 0.  1.
         14    1    3    3    0    0 -0.16671229148E+02 -0.25798603534E+02 -0.10990177338E+02  0.32623332502E+02  0.00000000000E+00 0. -1.
         13    1    5    5    0    0 -0.42257483567E+02 -0.15512265956E+02  0.58927872325E+03  0.59099554904E+03  0.00000000000E+00 0. -1.
        -14    1    5    5    0    0  0.89649610419E+01  0.45497181091E+02  0.99314889615E+03  0.99423090575E+03  0.00000000000E+00 0.  1.
          5    1    4    4  501    0 -0.14539303028E+02  0.25507219727E+02  0.59195011293E+02  0.66208242332E+02  0.41800000000E+01 0.  1.
         -5    1    4    4    0  501  0.16584221216E+02 -0.31467946043E+02 -0.47607127778E+02  0.59574986670E+02  0.41800000000E+01 0.  1.
</event>
<event>
11    1  0.8299058E-009  0.1329366E+03  0.7561462E-02  0.1115713E+00
         22   -1    0    0    0    0  0.00000000000E+00  0.00000000000E+00  0.10942420956E+04  0.10942420956E+04  0.00000000000E+00 0. -1.
         22   -1    0    0    0    0 -0.00000000000E+00 -0.00000000000E+00 -0.96885776272E+03  0.96885776272E+03  0.00000000000E+00 0. -1.
         24    2    1    2    0    0 -0.36033545176E+02  0.27196793599E+02 -0.94893051603E+03  0.95335568616E+03  0.79874014008E+02 0.  0.
         25    2    1    2    0    0  0.92445054442E+01 -0.31200903436E+02  0.24862757627E+03  0.28021928321E+03  0.12509283651E+03 0.  0.
        -24    2    1    2    0    0  0.26789039732E+02  0.40041098376E+01  0.82568727263E+03  0.82952488894E+03  0.74955877977E+02 0.  0.
        -11    1    3    3    0    0  0.45593032466E+01 -0.11594639845E+02 -0.27210979928E+02  0.29927585066E+02  0.00000000000E+00 0.  1.
         12    1    3    3    0    0 -0.40592848423E+02  0.38791433444E+02 -0.92171953610E+03  0.92342810109E+03  0.00000000000E+00 0. -1.
         11    1    5    5    0    0  0.22161046423E+02  0.10879119015E+02  0.81750845703E+03  0.81788113105E+03  0.00000000000E+00 0. -1.
        -12    1    5    5    0    0  0.46279933083E+01 -0.68750091772E+01  0.81788156018E+01  0.11643757894E+02  0.00000000000E+00 0.  1.
          5    1    4    4  501    0  0.35468200570E+01  0.58878612314E+01  0.24169901336E+03  0.24183286026E+03  0.41800000000E+01 0. -1.
         -5    1    4    4    0  501  0.56976853872E+01 -0.37088764668E+02  0.69285629162E+01  0.38386422957E+02  0.41800000000E+01 0. -1.
</event>
<event>
11    1  0.8299058E-009  0.1672716E+03  0.7561462E-02  0.1080431E+00
         22   -1    0    0    0    0  0.00000000000E+00  0.00000000000E+00  0.35937348083E+04  0.35937348083E+04  0.00000000000E+00 0.  1.
         22   -1    0    0    0    0 -0.00000000000E+00 -0.00000000000E+00 -0.49686784895E+02  0.49686784895E+02  0.00000000000E+00 0. -1.
         24    2    1    2    0    0 -0.56033137920E+02  0.31061428253E+02  0.57323346477E+02  0.11806567329E+03  0.80925967946E+02 0.  0.
         25    2    1    2    0    0  0.10239651946E+03 -0.12731316479E+03  0.57776532222E+03  0.61331441474E+03  0.12509242436E+03 0.  0.
        -24    2    1    2    0    0 -0.46363381542E+02  0.96251736533E+02  0.29089593547E+04  0.29120415051E+04  0.80791339657E+02 0.  0.
        -11    1    3    3    0    0  0.40257787091E+01  0.37314898593E+02  0.40853460526E+02  0.55476245260E+02  0.00000000000E+00 0.  1.
         12    1    3    3    0    0 -0.60058916629E+02 -0.62534703400E+01  0.16469885951E+02  0.62589428031E+02  0.00000000000E+00 0. -1.
         13    1    5    5    0    0 -0.26803091059E+02  0.15993689716E+02  0.16890848098E+04  0.16893731673E+04  0.00000000000E+00 0. -1.
        -14    1    5    5    0    0 -0.19560290483E+02  0.80258046817E+02  0.12198745449E+04  0.12226683378E+04  0.00000000000E+00 0.  1.
          5    1    4    4  501    0 -0.26494130744E+02 -0.38480621501E+02  0.98144071102E+02  0.10877696579E+03  0.41800000000E+01 0. -1.
         -5    1    4    4    0  501  0.12889065021E+03 -0.88832543285E+02  0.47962125112E+03  0.50453744894E+03  0.41800000000E+01 0. -1.
</event>
<event>
11    1  0.8299058E-009  0.1329886E+03  0.7561462E-02  0.1115651E+00
         22   -1    0    0    0    0  0.00000000000E+00  0.00000000000E+00  0.13178077493E+03  0.13178077493E+03  0.00000000000E+00 0. -1.
         22   -1    0    0    0    0 -0.00000000000E+00 -0.00000000000E+00 -0.12814985966E+04  0.12814985966E+04  0.00000000000E+00 0. -1.
        -24    2    1    2    0    0  0.41279404203E+02 -0.23146558616E+02 -0.11580055353E+04  0.11621872412E+04  0.86386408151E+02 0.  0.
         25    2    1    2    0    0  0.70386871255E+01  0.16658405126E+02 -0.55415348801E+02  0.13800479668E+03  0.12508963765E+03 0.  0.
         24    2    1    2    0    0 -0.48318091329E+02  0.64881534903E+01  0.63703062430E+02  0.11308733361E+03  0.79711547313E+02 0.  0.
        -11    1    5    5    0    0 -0.21767876150E+02 -0.28003334062E+02 -0.55733970630E+00  0.35473057074E+02  0.00000000000E+00 0.  1.
         12    1    5    5    0    0 -0.26550215179E+02  0.34491487552E+02  0.64260402136E+02  0.77614276537E+02  0.00000000000E+00 0. -1.
         11    1    3    3    0    0  0.62926772120E+02 -0.64046524244E+01 -0.56094123118E+03  0.56449611430E+03  0.00000000000E+00 0. -1.
        -12    1    3    3    0    0 -0.21647367917E+02 -0.16741906192E+02 -0.59706430411E+03  0.59769112692E+03  0.00000000000E+00 0.  1.
          5    1    4    4  501    0 -0.22661436797E+02  0.61494771738E+02 -0.52335126836E+02  0.83973719519E+02  0.41800000000E+01 0. -1.
         -5    1    4    4    0  501  0.29700123922E+02 -0.44836366612E+02 -0.30802219652E+01  0.54031077163E+02  0.41800000000E+01 0. -1.
</event>
<event>
11    1  0.8299058E-009  0.1916267E+03  0.7561462E-02  0.1060608E+00
         22   -1    0    0    0    0  0.00000000000E+00  0.00000000000E+00  0.24079580462E+03  0.24079580462E+03  0.00000000000E+00 0.  1.
         22   -1    0    0    0    0 -0.00000000000E+00 -0.00000000000E+00 -0.64701029349E+03  0.64701029349E+03  0.00000000000E+00 0. -1.
         24    2    1    2    0    0 -0.95140772414E+02  0.58433158066E+02 -0.20640803856E+03  0.24860918939E+03  0.82073443501E+02 0.  0.
         25    2    1    2    0    0  0.15688324496E+03 -0.12772686259E+03 -0.36365389618E+03  0.43453296942E+03  0.12509293077E+03 0.  0.
        -24    2    1    2    0    0 -0.61742472545E+02  0.69293704526E+02  0.16384744587E+03  0.20466393931E+03  0.80172265345E+02 0.  0.
        -11    1    3    3    0    0 -0.51432285828E+01 -0.14011740620E+02 -0.38423018653E+01  0.15412493604E+02  0.00000000000E+00 0.  1.
         12    1    3    3    0    0 -0.89997543831E+02  0.72444898687E+02 -0.20256573669E+03  0.23319669578E+03  0.00000000000E+00 0. -1.
         13    1    5    5    0    0 -0.38457990932E+02  0.64382382629E+02  0.54368405898E+02  0.92628461174E+02  0.00000000000E+00 0. -1.
        -14    1    5    5    0    0 -0.23284481613E+02  0.49113218968E+01  0.10947903997E+03  0.11203547813E+03  0.00000000000E+00 0.  1.
          5    1    4    4  501    0  0.22028561273E+02 -0.73412627565E+02 -0.20699056807E+03  0.22076512194E+03  0.41800000000E+01 0.  1.
         -5    1    4    4    0  501  0.13485468369E+03 -0.54314235027E+02 -0.15666332811E+03  0.21376784747E+03  0.41800000000E+01 0.  1.
</event>
<event>
11    1  0.8299058E-009  0.3900493E+03  0.7561462E-02  0.9679583E-01
         22   -1    0    0    0    0  0.00000000000E+00  0.00000000000E+00  0.20682650788E+03  0.20682650788E+03  0.00000000000E+00 0.  1.
         22   -1    0    0    0    0 -0.00000000000E+00 -0.00000000000E+00 -0.24872101630E+04  0.24872101630E+04  0.00000000000E+00 0.  1.
        -24    2    1    2    0    0 -0.22423118934E+03  0.32295179125E+03 -0.16616942860E+04  0.17094906556E+04  0.80950080274E+02 0.  0.
         25    2    1    2    0    0  0.37930782700E+03 -0.71685782380E+02 -0.52749318325E+03  0.66551602300E+03  0.12509692032E+03 0.  0.
         24    2    1    2    0    0 -0.15507663766E+03 -0.25126600887E+03 -0.91196185796E+02  0.31902999227E+03  0.79246582903E+02 0.  0.
        -13    1    5    5    0    0 -0.11873131946E+03 -0.18099727359E+03 -0.10180517788E+03  0.23921001967E+03  0.00000000000E+00 0.  1.
         14    1    5    5    0    0 -0.36345318202E+02 -0.70268735279E+02  0.10608992080E+02  0.79819972600E+02  0.00000000000E+00 0. -1.
         11    1    3    3    0    0 -0.42155804358E+02  0.91214779371E+02 -0.56619847685E+03  0.57504605294E+03  0.00000000000E+00 0. -1.
        -12    1    3    3    0    0 -0.18207538498E+03  0.23173701188E+03 -0.10954958092E+04  0.11344446026E+04  0.00000000000E+00 0.  1.
          5    1    4    4  501    0  0.35077839451E+03 -0.45307993951E+02 -0.40896020226E+03  0.54070714421E+03  0.41800000000E+01 0. -1.
         -5    1    4    4    0  501  0.28529432489E+02 -0.26377788429E+02 -0.11853298100E+03  0.12480887879E+03  0.41800000000E+01 0. -1.
</event>
<event>
11    1  0.8299058E-009  0.1343412E+03  0.7561462E-02  0.1114047E+00
         22   -1    0    0    0    0  0.00000000000E+00  0.00000000000E+00  0.26309993643E+03  0.26309993643E+03  0.00000000000E+00 0.  1.
         22   -1    0    0    0    0 -0.00000000000E+00 -0.00000000000E+00 -0.92289011084E+03  0.92289011084E+03  0.00000000000E+00 0. -1.
        -24    2    1    2    0    0 -0.20258242644E+02 -0.51011789171E+02 -0.73387531783E+03  0.74025927907E+03  0.79988868616E+02 0.  0.
         25    2    1    2    0    0  0.23685554931E+02 -0.32509024093E+01 -0.15308958893E+03  0.19913883940E+03  0.12509309030E+03 0.  0.
         24    2    1    2    0    0 -0.34273122869E+01  0.54262691581E+02  0.22717473235E+03  0.24659192881E+03  0.79012873436E+02 0.  0.
        -11    1    5    5    0    0 -0.23668232224E+02  0.67526263222E+02  0.17574652011E+03  0.18975463307E+03  0.00000000000E+00 0.  1.
         12    1    5    5    0    0  0.20240919937E+02 -0.13263571642E+02  0.51428212237E+02  0.56837295735E+02  0.00000000000E+00 0. -1.
         11    1    3    3    0    0 -0.24904961023E+02 -0.30638449811E+02 -0.69502527879E+03  0.69614589695E+03  0.00000000000E+00 0. -1.
        -12    1    3    3    0    0  0.46467183792E+01 -0.20373339360E+02 -0.38850039041E+02  0.44113382117E+02  0.00000000000E+00 0.  1.
          5    1    4    4  501    0 -0.24132851128E+02  0.23505346044E+02 -0.13805182577E+03  0.14216425287E+03  0.41800000000E+01 0. -1.
         -5    1    4    4    0  501  0.47818406058E+02 -0.26756248454E+02 -0.15037763161E+02  0.56974586529E+02  0.41800000000E+01 0. -1.
</event>
<event>
11    1  0.8299058E-009  0.3163709E+03  0.7561462E-02  0.9934912E-01
         22   -1    0    0    0    0  0.00000000000E+00  0.00000000000E+00  0.11388668806E+04  0.11388668806E+04  0.00000000000E+00 0. -1.
         22   -1    0    0    0    0 -0.00000000000E+00 -0.00000000000E+00 -0.42421761348E+03  0.42421761348E+03  0.00000000000E+00 0. -1.
         24    2    1    2    0    0  0.98292818277E+01  0.46387292003E+02 -0.13910674163E+03  0.16803837269E+03  0.81472777604E+02 0.  0.
         25    2    1    2    0    0 -0.66270825014E+02 -0.32747225426E+03 -0.12031374873E+03  0.37650021347E+03  0.12508842092E+03 0.  0.
        -24    2    1    2    0    0  0.56441543186E+02  0.28108496226E+03  0.97406975753E+03  0.10185459080E+04  0.80183977829E+02 0.  0.
        -13    1    3    3    0    0  0.22831693624E+02  0.43910419630E+02 -0.29460890957E+02  0.57596486714E+02  0.00000000000E+00 0.  1.
         14    1    3    3    0    0 -0.13002411796E+02  0.24768723725E+01 -0.10964585067E+03  0.11044188598E+03  0.00000000000E+00 0. -1.
         11    1    5    5    0    0  0.56802250328E+02  0.11379849960E+03  0.49620294624E+03  0.51224404146E+03  0.00000000000E+00 0. -1.
        -12    1    5    5    0    0 -0.36070714207E+00  0.16728646266E+03  0.47786681128E+03  0.50630186650E+03  0.00000000000E+00 0.  1.
          5    1    4    4  501    0  0.18096034896E+01 -0.26181814167E+03 -0.82374786310E+02  0.27450881915E+03  0.41800000000E+01 0.  1.
         -5    1    4    4    0  501 -0.68080428503E+02 -0.65654112594E+02 -0.37938962419E+02  0.10199139432E+03  0.41800000000E+01 0.  1.
</event>
<event>
11    1  0.8299058E-009  0.1372833E+03  0.7561462E-02  0.1110631E+00
         22   -1    0    0    0    0  0.00000000000E+00  0.00000000000E+00  0.15895775409E+03  0.15895775409E+03  0.00000000000E+00 0. -1.
         22   -1    0    0    0    0 -0.00000000000E+00 -0.00000000000E+00 -0.23753047416E+04  0.23753047416E+04  0.00000000000E+00 0. -1.
         24    2    1    2    0    0  0.99117839557E+02  0.47641101499E+02 -0.21342049323E+04  0.21385898775E+04  0.81498162268E+02 0.  0.
         25    2    1    2    0    0  0.31241753875E+02  0.74377853476E+01 -0.16791134447E+03  0.21183078140E+03  0.12508673995E+03 0.  0.
        -24    2    1    2    0    0 -0.13035959343E+03 -0.55078886847E+02  0.85769289314E+02  0.18384183673E+03  0.80088342256E+02 0.  0.
        -13    1    3    3    0    0  0.35205423211E+02 -0.35958357495E+01 -0.23801676598E+03  0.24063319128E+03  0.00000000000E+00 0.  1.
         14    1    3    3    0    0  0.63912416346E+02  0.51236937248E+02 -0.18961881664E+04  0.18979566863E+04  0.00000000000E+00 0. -1.
         13    1    5    5    0    0 -0.11465169716E+03 -0.11674096424E+02  0.71077331130E+02  0.13540045491E+03  0.00000000000E+00 0. -1.
        -14    1    5    5    0    0 -0.15707896269E+02 -0.43404790423E+02  0.14691958184E+02  0.48441381815E+02  0.00000000000E+00 0.  1.
          5    1    4    4  501    0 -0.21290158022E+02  0.54391286714E+02 -0.76902953642E+02  0.96660330942E+02  0.41800000000E+01 0. -1.
         -5    1    4    4    0  501  0.52531911897E+02 -0.46953501366E+02 -0.91008390827E+02  0.11517045046E+03  0.41800000000E+01 0. -1.
</event>
<event>
11    1  0.8299058E-009  0.1320189E+03  0.7561462E-02  0.1116813E+00
         22   -1    0    0    0    0  0.00000000000E+00  0.00000000000E+00  0.39984266339E+03  0.39984266339E+03  0.00000000000E+00 0. -1.
         22   -1    0    0    0    0 -0.00000000000E+00 -0.00000000000E+00 -0.92483482338E+03  0.92483482338E+03  0.00000000000E+00 0. -1.
         24    2    1    2    0    0 -0.11749796580E+01  0.42791552209E+02 -0.80114653482E+03  0.80688160575E+03  0.85963119568E+02 0.  0.
         25    2    1    2    0    0  0.18858841844E+02 -0.31995711422E+02 -0.79270723960E+02  0.15271338082E+03  0.12513251992E+03 0.  0.
        -24    2    1    2    0    0 -0.17683862186E+02 -0.10795840787E+02  0.35542509879E+03  0.36508250020E+03  0.80801992203E+02 0.  0.
        -11    1    3    3    0    0  0.11773628937E+02  0.61121909201E+02 -0.37387994095E+03  0.37902601015E+03  0.00000000000E+00 0.  1.
         12    1    3    3    0    0 -0.12948608595E+02 -0.18330356992E+02 -0.42726659387E+03  0.42785559560E+03  0.00000000000E+00 0. -1.
         11    1    5    5    0    0 -0.24755702757E+02 -0.14954355212E+02  0.35570009892E+03  0.35687398046E+03  0.00000000000E+00 0. -1.
        -12    1    5    5    0    0  0.70718405707E+01  0.41585144246E+01 -0.27500012907E+00  0.82085197416E+01  0.00000000000E+00 0.  1.
          5    1    4    4  501    0  0.30181687417E+02  0.43961382196E+02 -0.29186278846E+02  0.60933149047E+02  0.41800000000E+01 0.  1.
         -5    1    4    4    0  501 -0.11322845573E+02 -0.75957093618E+02 -0.50084445114E+02  0.91780231777E+02  0.41800000000E+01 0.  1.
</event>
<event>
11    1  0.8299058E-009  0.1485340E+03  0.7561462E-02  0.1098386E+00
         22   -1    0    0    0    0  0.00000000000E+00  0.00000000000E+00  0.46346770019E+03  0.46346770019E+03  0.00000000000E+00 0.  1.
         22   -1    0    0    0    0 -0.00000000000E+00 -0.00000000000E+00 -0.56993727411E+03  0.56993727411E+03  0.00000000000E+00 0. -1.
         24    2    1    2    0    0 -0.58840358341E+02 -0.16227037551E+02 -0.41589038649E+03  0.42821994311E+03  0.81743510973E+02 0.  0.
         25    2    1    2    0    0  0.13360688338E+03  0.33964325359E+02 -0.78128346151E+02  0.20188170678E+03  0.12509120823E+03 0.  0.
        -24    2    1    2    0    0 -0.74766525038E+02 -0.17737287809E+02  0.38754915872E+03  0.40330332441E+03  0.80960338525E+02 0.  0.
        -13    1    3    3    0    0 -0.19728409837E+02 -0.42513000815E+02 -0.12422282591E+03  0.13277001118E+03  0.00000000000E+00 0.  1.
         14    1    3    3    0    0 -0.39111948504E+02  0.26285963265E+02 -0.29166756058E+03  0.29544993193E+03  0.00000000000E+00 0. -1.
         13    1    5    5    0    0 -0.46158663910E+02  0.30177427184E+02  0.17061860342E+03  0.17930980787E+03  0.00000000000E+00 0. -1.
        -14    1    5    5    0    0 -0.28607861128E+02 -0.47914714993E+02  0.21693055530E+03  0.22399351655E+03  0.00000000000E+00 0.  1.
          5    1    4    4  501    0  0.11196520341E+03 -0.31188986019E+02 -0.38544874386E+02  0.12252403587E+03  0.41800000000E+01 0. -1.
         -5    1    4    4    0  501  0.21641679967E+02  0.65153311378E+02 -0.39583471765E+02  0.79357670910E+02  0.41800000000E+01 0. -1.
</event>
<event>
11    1  0.8299058E-009  0.1697244E+03  0.7561462E-02  0.1078272E+00
         22   -1    0    0    0    0  0.00000000000E+00  0.00000000000E+00  0.68513906624E+03  0.68513906624E+03  0.00000000000E+00 0.  1.
         22   -1    0    0    0    0 -0.00000000000E+00 -0.00000000000E+00 -0.13859086333E+04  0.13859086333E+04  0.00000000000E+00 0. -1.
        -24    2    1    2    0    0 -0.87153446856E+02  0.48686394290E+02 -0.12801586138E+04  0.12865395126E+04  0.80073420444E+02 0.  0.
         25    2    1    2    0    0  0.71356602016E+01 -0.13324671037E+03 -0.57205986305E+01  0.18298833946E+03  0.12508558534E+03 0.  0.
         24    2    1    2    0    0  0.80017786654E+02  0.84560316080E+02  0.58510964542E+03  0.60151984743E+03  0.76938523850E+02 0.  0.
        -13    1    5    5    0    0  0.76536025204E+02  0.77820618801E+02  0.35767776678E+03  0.37396149095E+03  0.00000000000E+00 0.  1.
         14    1    5    5    0    0  0.34817614495E+01  0.67396972782E+01  0.22743187864E+03  0.22755835648E+03  0.00000000000E+00 0. -1.
         13    1    3    3    0    0 -0.88386307235E+02  0.10436689396E+02 -0.95436069943E+03  0.95850164758E+03  0.00000000000E+00 0. -1.
        -14    1    3    3    0    0  0.12328603793E+01  0.38249704894E+02 -0.32579791439E+03  0.32803786502E+03  0.00000000000E+00 0.  1.
          5    1    4    4  501    0 -0.39117468766E+02 -0.38352895025E+01  0.18055734107E+02  0.43455353438E+02  0.41800000000E+01 0. -1.
         -5    1    4    4    0  501  0.46253128968E+02 -0.12941142087E+03 -0.23776332738E+02  0.13953298602E+03  0.41800000000E+01 0. -1.
</event>
<event>
11    1  0.8299058E-009  0.1515059E+03  0.7561462E-02  0.1095350E+00
         22   -1    0    0    0    0  0.00000000000E+00  0.00000000000E+00  0.27986268024E+04  0.27986268024E+04  0.00000000000E+00 0. -1.
         22   -1    0    0    0    0 -0.00000000000E+00 -0.00000000000E+00 -0.16028906756E+03  0.16028906756E+03  0.00000000000E+00 0. -1.
         24    2    1    2    0    0 -0.88546041666E+02 -0.11832484527E+02 -0.12081394403E+03  0.17058636161E+03  0.80766877570E+02 0.  0.
         25    2    1    2    0    0  0.37066856616E+02 -0.35087950574E+02  0.32694202168E+03  0.35375717405E+03  0.12509171242E+03 0.  0.
        -24    2    1    2    0    0  0.51479185050E+02  0.46920435101E+02  0.24322096572E+04  0.24345723343E+04  0.81529140448E+02 0.  0.
        -13    1    3    3    0    0 -0.68564702177E+02 -0.44762585342E+02 -0.80368190418E+02  0.11473383748E+03  0.00000000000E+00 0.  1.
         14    1    3    3    0    0 -0.19981339488E+02  0.32930100814E+02 -0.40445753608E+02  0.55852524136E+02  0.00000000000E+00 0. -1.
         11    1    5    5    0    0  0.70033064809E+02  0.40002810323E+02  0.22132770206E+04  0.22147460408E+04  0.00000000000E+00 0. -1.
        -12    1    5    5    0    0 -0.18553879759E+02  0.69176247784E+01  0.21893263657E+03  0.21982629357E+03  0.00000000000E+00 0.  1.
          5    1    4    4  501    0 -0.31080593433E+02 -0.47948466617E+02  0.88725892137E+02  0.10561635799E+03  0.41800000000E+01 0. -1.
         -5    1    4    4    0  501  0.68147450049E+02  0.12860516043E+02  0.23821612954E+03  0.24814081606E+03  0.41800000000E+01 0. -1.
</event>
<event>
11    1  0.8299058E-009  0.2823697E+03  0.7561462E-02  0.1007942E+00
         22   -1    0    0    0    0  0.00000000000E+00  0.00000000000E+00  0.13783093945E+03  0.13783093945E+03  0.00000000000E+00 0.  1.
         22   -1    0    0    0    0 -0.00000000000E+00 -0.00000000000E+00 -0.23239077034E+04  0.23239077034E+04  0.00000000000E+00 0. -1.
        -24    2    1    2    0    0  0.70366825053E+02 -0.23202232823E+03 -0.17719418605E+04  0.17903377379E+04  0.82130431869E+02 0.  0.
         25    2    1    2    0    0 -0.15093878207E+03  0.30247115456E+03 -0.39730376277E+03  0.53644253043E+03  0.12509593627E+03 0.  0.
         24    2    1    2    0    0  0.80571957020E+02 -0.70448826330E+02 -0.16831140695E+02  0.13495837456E+03  0.80471101501E+02 0.  0.
        -11    1    5    5    0    0  0.16941845219E+02 -0.61636389907E+02  0.11156584040E+02  0.64888674263E+02  0.00000000000E+00 0.  1.
         12    1    5    5    0    0  0.63630111801E+02 -0.88124364238E+01 -0.27987724736E+02  0.70069700295E+02  0.00000000000E+00 0. -1.
         13    1    3    3    0    0  0.61350747421E+02 -0.23097313300E+03 -0.17542477287E+04  0.17704512408E+04  0.00000000000E+00 0. -1.
        -14    1    3    3    0    0  0.90160776326E+01 -0.10491952221E+01 -0.17694131822E+02  0.19886497113E+02  0.00000000000E+00 0.  1.
          5    1    4    4  501    0 -0.51237028822E+02  0.43162441541E+02 -0.15057619246E+03  0.16486021842E+03  0.41800000000E+01 0. -1.
         -5    1    4    4    0  501 -0.99701753251E+02  0.25930871302E+03 -0.24672757031E+03  0.37158231201E+03  0.41800000000E+01 0. -1.
</event>
<event>
11    1  0.8299058E-009  0.2269889E+03  0.7561462E-02  0.1036926E+00
         22   -1    0    0    0    0  0.00000000000E+00  0.00000000000E+00  0.17088782116E+04  0.17088782116E+04  0.00000000000E+00 0. -1.
         22   -1    0    0    0    0 -0.00000000000E+00 -0.00000000000E+00 -0.91349327256E+03  0.91349327256E+03  0.00000000000E+00 0. -1.
        -24    2    1    2    0    0  0.32662817744E+02  0.41840507471E+02 -0.79984158213E+03  0.80742492714E+03  0.96803764037E+02 0.  0.
         25    2    1    2    0    0 -0.19291200886E+03  0.58471994248E+02  0.33224343980E+02  0.23954636824E+03  0.12507832838E+03 0.  0.
         24    2    1    2    0    0  0.16024919111E+03 -0.10031250172E+03  0.15620021772E+04  0.15754001887E+04  0.79325607387E+02 0.  0.
        -13    1    5    5    0    0 -0.58049083966E+01 -0.15738635509E+02  0.20111996112E+03  0.20181833507E+03  0.00000000000E+00 0.  1.
         14    1    5    5    0    0  0.16605409951E+03 -0.84573866210E+02  0.13608822160E+04  0.13735818537E+04  0.00000000000E+00 0. -1.
         13    1    3    3    0    0  0.19579053772E+02 -0.77241047564E+01 -0.62165179376E+03  0.62200800141E+03  0.00000000000E+00 0. -1.
        -14    1    3    3    0    0  0.13083763972E+02  0.49564612228E+02 -0.17818978838E+03  0.18541692573E+03  0.00000000000E+00 0.  1.
          5    1    4    4  501    0 -0.18776651995E+03  0.69605139883E+02 -0.37873030952E+01  0.20033211819E+03  0.41800000000E+01 0.  1.
         -5    1    4    4    0  501 -0.51454889068E+01 -0.11133145635E+02  0.37011647075E+02  0.39214250051E+02  0.41800000000E+01 0.  1.
</event>
<event>
11    1  0.8299058E-009  0.1759899E+03  0.7561462E-02  0.1072933E+00
         22   -1    0    0    0    0  0.00000000000E+00  0.00000000000E+00  0.15765678215E+03  0.15765678215E+03  0.00000000000E+00 0.  1.
         22   -1    0    0    0    0 -0.00000000000E+00 -0.00000000000E+00 -0.70011317045E+03  0.70011317045E+03  0.00000000000E+00 0.  1.
        -24    2    1    2    0    0 -0.35494187433E+02 -0.11787709261E+03 -0.41041652080E+03  0.43522793429E+03  0.76333399857E+02 0.  0.
         25    2    1    2    0    0 -0.17673831689E+01  0.12980420978E+03 -0.22872673691E+03  0.29122981226E+03  0.12508647750E+03 0.  0.
         24    2    1    2    0    0  0.37261570601E+02 -0.11927117164E+02  0.96686869404E+02  0.13131220605E+03  0.79773830144E+02 0.  0.
        -11    1    5    5    0    0  0.46928353289E+02  0.70059685844E+01  0.99143457383E+02  0.10991259746E+03  0.00000000000E+00 0.  1.
         12    1    5    5    0    0 -0.96667826877E+01 -0.18933085749E+02 -0.24565879788E+01  0.21399608594E+02  0.00000000000E+00 0. -1.
         13    1    3    3    0    0 -0.35112984517E+02 -0.14843865193E+02 -0.71934675583E+02  0.81411667265E+02  0.00000000000E+00 0. -1.
        -14    1    3    3    0    0 -0.38120291603E+00 -0.10303322742E+03 -0.33848184522E+03  0.35381626703E+03  0.00000000000E+00 0.  1.
          5    1    4    4  501    0 -0.34976140220E+02  0.14577573955E+02 -0.64915835082E+01  0.38671037011E+02  0.41800000000E+01 0.  1.
         -5    1    4    4    0  501  0.33208757051E+02  0.11522663582E+03 -0.22223515340E+03  0.25255877525E+03  0.41800000000E+01 0.  1.
</event>
<event>
11    1  0.8299058E-009  0.1449379E+03  0.7561462E-02  0.1102166E+00
         22   -1    0    0    0    0  0.00000000000E+00  0.00000000000E+00  0.14655100921E+03  0.14655100921E+03  0.00000000000E+00 0. -1.
         22   -1    0    0    0    0 -0.00000000000E+00 -0.00000000000E+00 -0.18924383147E+04  0.18924383147E+04  0.00000000000E+00 0.  1.
         24    2    1    2    0    0 -0.67812601117E+02  0.25088578580E+02 -0.11285643789E+04  0.11338038891E+04  0.81398499960E+02 0.  0.
         25    2    1    2    0    0  0.85502080604E+02  0.28774977042E+02 -0.73504718860E+03  0.75106022047E+03  0.12513384915E+03 0.  0.
        -24    2    1    2    0    0 -0.17689479487E+02 -0.53863555622E+02  0.11772426201E+03  0.15412521442E+03  0.81739706048E+02 0.  0.
        -13    1    3    3    0    0 -0.73121127613E+02  0.39549859921E+02 -0.69318837061E+03  0.69815543245E+03  0.00000000000E+00 0.  1.
         14    1    3    3    0    0  0.53085264961E+01 -0.14461281341E+02 -0.43537600834E+03  0.43564845661E+03  0.00000000000E+00 0. -1.
         11    1    5    5    0    0 -0.35838738929E+02 -0.29621134738E+02  0.11460979672E+03  0.12368198064E+03  0.00000000000E+00 0. -1.
        -12    1    5    5    0    0  0.18149259442E+02 -0.24242420884E+02  0.31144652883E+01  0.30443233775E+02  0.00000000000E+00 0.  1.
          5    1    4    4  501    0  0.51937172633E+02 -0.31891247317E+02 -0.55042112112E+03  0.55380087083E+03  0.41800000000E+01 0.  1.
         -5    1    4    4    0  501  0.33564907971E+02  0.60666224359E+02 -0.18462606748E+03  0.19725934963E+03  0.41800000000E+01 0.  1.
</event>
<event>
11    1  0.8299058E-009  0.1521456E+03  0.7561462E-02  0.1094706E+00
         22   -1    0    0    0    0  0.00000000000E+00  0.00000000000E+00  0.23072744431E+03  0.23072744431E+03  0.00000000000E+00 0.  1.
         22   -1    0    0    0    0 -0.00000000000E+00 -0.00000000000E+00 -0.40527554443E+03  0.40527554443E+03  0.00000000000E+00 0.  1.
         24    2    1    2    0    0  0.64800106528E+02  0.72942938794E+02 -0.27832466012E+03  0.30472167725E+03  0.76622177129E+02 0.  0.
         25    2    1    2    0    0 -0.46874892808E+02 -0.21324874398E+02 -0.50379238205E+02  0.14434672535E+03  0.12508358659E+03 0.  0.
        -24    2    1    2    0    0 -0.17925213720E+02 -0.51618064396E+02  0.15415579821E+03  0.18693458614E+03  0.90525087768E+02 0.  0.
        -13    1    3    3    0    0  0.46872339347E+00  0.38030634974E+01 -0.12217108236E+03  0.12223115952E+03  0.00000000000E+00 0.  1.
         14    1    3    3    0    0  0.64331383135E+02  0.69139875296E+02 -0.15615357776E+03  0.18249051773E+03  0.00000000000E+00 0. -1.
         11    1    5    5    0    0 -0.48681840037E+02 -0.55100706576E+01  0.57749710580E+02  0.75731839408E+02  0.00000000000E+00 0. -1.
        -12    1    5    5    0    0  0.30756626317E+02 -0.46107993738E+02  0.96406087630E+02  0.11120274673E+03  0.00000000000E+00 0.  1.
          5    1    4    4  501    0  0.16390093977E+02  0.48088008497E+01 -0.70674135260E+02  0.72829015790E+02  0.41800000000E+01 0.  1.
         -5    1    4    4    0  501 -0.63264986785E+02 -0.26133675248E+02  0.20294897055E+02  0.71517709565E+02  0.41800000000E+01 0.  1.
</event>
<event>
11    1  0.8299058E-009  0.1581792E+03  0.7561462E-02  0.1088802E+00
         22   -1    0    0    0    0  0.00000000000E+00  0.00000000000E+00  0.84385730975E+02  0.84385730975E+02  0.00000000000E+00 0.  1.
         22   -1    0    0    0    0 -0.00000000000E+00 -0.00000000000E+00 -0.10357725058E+04  0.10357725058E+04  0.00000000000E+00 0. -1.
        -24    2    1    2    0    0  0.18400927866E+02 -0.11159474363E+02 -0.62271311321E+03  0.62839290888E+03  0.81503978773E+02 0.  0.
         25    2    1    2    0    0 -0.84187975231E+02 -0.58870007955E+02 -0.32858547387E+03  0.36628968007E+03  0.12508566297E+03 0.  0.
         24    2    1    2    0    0  0.65787047365E+02  0.70029482318E+02 -0.88187745727E-01  0.12547564782E+03  0.80697375568E+02 0.  0.
        -11    1    5    5    0    0  0.25605161422E+02 -0.14184479730E+02  0.11500510375E+02  0.31449729658E+02  0.00000000000E+00 0.  1.
         12    1    5    5    0    0  0.40181885943E+02  0.84213962048E+02 -0.11588698121E+02  0.94025918161E+02  0.00000000000E+00 0. -1.
         11    1    3    3    0    0 -0.22197471237E+02  0.14216372631E+02 -0.38529433884E+03  0.38619497734E+03  0.00000000000E+00 0. -1.
        -12    1    3    3    0    0  0.40598399103E+02 -0.25375846994E+02 -0.23741877437E+03  0.24219793154E+03  0.00000000000E+00 0.  1.
          5    1    4    4  501    0 -0.90502250046E+01  0.19282352878E+02 -0.15895787015E+01  0.21764991743E+02  0.41800000000E+01 0.  1.
         -5    1    4    4    0  501 -0.75137750227E+02 -0.78152360833E+02 -0.32699589517E+03  0.34452468833E+03  0.41800000000E+01 0.  1.
</event>
<event>
11    1  0.8299058E-009  0.1686094E+03  0.7561462E-02  0.1079248E+00
         22   -1    0    0    0    0  0.00000000000E+00  0.00000000000E+00  0.60509665242E+03  0.60509665242E+03  0.00000000000E+00 0.  1.
         22   -1    0    0    0    0 -0.00000000000E+00 -0.00000000000E+00 -0.27865562028E+04  0.27865562028E+04  0.00000000000E+00 0.  1.
        -24    2    1    2    0    0 -0.57988533033E+02 -0.95599580727E+02 -0.26541716825E+04  0.26580806455E+04  0.90903507618E+02 0.  0.
         25    2    1    2    0    0  0.13337332087E+03  0.12468233171E+03 -0.24853902476E+02  0.22270936980E+03  0.12509044875E+03 0.  0.
         24    2    1    2    0    0 -0.75384787839E+02 -0.29082750984E+02  0.49756603458E+03  0.51086284000E+03  0.82947030607E+02 0.  0.
        -11    1    5    5    0    0 -0.42340277497E+02 -0.52013472001E+02  0.39570353276E+03  0.40134696487E+03  0.00000000000E+00 0.  1.
         12    1    5    5    0    0 -0.33044510341E+02  0.22930721018E+02  0.10186250181E+03  0.10951587513E+03  0.00000000000E+00 0. -1.
         11    1    3    3    0    0 -0.19144373090E+02  0.49839889598E+01 -0.12028372952E+03  0.12189964214E+03  0.00000000000E+00 0. -1.
        -12    1    3    3    0    0 -0.38844159943E+02 -0.10058356969E+03 -0.25338879530E+04  0.25361810033E+04  0.00000000000E+00 0.  1.
          5    1    4    4  501    0  0.20088079787E+01 -0.49364242662E+01 -0.37096096819E+02  0.37709367447E+02  0.41800000000E+01 0. -1.
         -5    1    4    4    0  501  0.13136451289E+03  0.12961875598E+03  0.12242194344E+02  0.18500000235E+03  0.41800000000E+01 0. -1.
</event>
<event>
11    1  0.8299058E-009  0.2432400E+03  0.7561462E-02  0.1027563E+00
         22   -1    0    0    0    0  0.00000000000E+00  0.00000000000E+00  0.12953147974E+04  0.12953147974E+04  0.00000000000E+00 0.  1.
         22   -1    0    0    0    0 -0.00000000000E+00 -0.00000000000E+00 -0.68959659987E+03  0.68959659987E+03  0.00000000000E+00 0.  1.
        -24    2    1    2    0    0  0.12752539572E+02 -0.13072156415E+02 -0.52751355573E+03  0.53376529160E+03  0.79380895054E+02 0.  0.
         25    2    1    2    0    0 -0.17852756271E+03 -0.11332972506E+03 -0.46765230492E+02  0.25009395243E+03  0.12507710034E+03 0.  0.
         24    2    1    2    0    0  0.16577502313E+03  0.12640188148E+03  0.11799969837E+04  0.12010521532E+04  0.81698220551E+02 0.  0.
        -13    1    5    5    0    0  0.12534801360E+03  0.57018579271E+02  0.86960781752E+03  0.88044363771E+03  0.00000000000E+00 0.  1.
         14    1    5    5    0    0  0.40427009533E+02  0.69383302205E+02  0.31038916619E+03  0.32060851550E+03  0.00000000000E+00 0. -1.
         13    1    3    3    0    0  0.13286849759E+02 -0.37716379545E+02 -0.14367620612E+03  0.14913724507E+03  0.00000000000E+00 0. -1.
        -14    1    3    3    0    0 -0.53431018701E+00  0.24644223130E+02 -0.38383734960E+03  0.38462804652E+03  0.00000000000E+00 0.  1.
          5    1    4    4  501    0 -0.75150165408E+02 -0.11373148765E+03  0.41415244693E+00  0.13638197302E+03  0.41800000000E+01 0. -1.
         -5    1    4    4    0  501 -0.10337739730E+03  0.40176258807E+00 -0.47179382939E+02  0.11371197940E+03  0.41800000000E+01 0. -1.
</event>
<event>
11    1  0.8299058E-009  0.1583446E+03  0.7561462E-02  0.1088645E+00
         22   -1    0    0    0    0  0.00000000000E+00  0.00000000000E+00  0.29668772409E+03  0.29668772409E+03  0.00000000000E+00 0. -1.
         22   -1    0    0    0    0 -0.00000000000E+00 -0.00000000000E+00 -0.70743077406E+03  0.70743077406E+03  0.00000000000E+00 0.  1.
         24    2    1    2    0    0 -0.98626360664E+02 -0.28619990024E+01 -0.63602806686E+03  0.64833086126E+03  0.77883591152E+02 0.  0.
         25    2    1    2    0    0  0.72474761674E+02  0.14812238299E+02  0.37686563372E+02  0.15013237743E+03  0.12508980858E+03 0.  0.
        -24    2    1    2    0    0  0.26151598990E+02 -0.11950239297E+02  0.18759845353E+03  0.20565525946E+03  0.79209795026E+02 0.  0.
        -11    1    3    3    0    0 -0.97043530741E+02  0.21126800481E+02 -0.45498471730E+03  0.46569827307E+03  0.00000000000E+00 0.  1.
         12    1    3    3    0    0 -0.15828299233E+01 -0.23988799484E+02 -0.18104334956E+03  0.18263258819E+03  0.00000000000E+00 0. -1.
         13    1    5    5    0    0  0.30912972129E+01  0.26553644094E+02  0.12955213333E+03  0.13228154589E+03  0.00000000000E+00 0. -1.
        -14    1    5    5    0    0  0.23060301777E+02 -0.38503883391E+02  0.58046320201E+02  0.73373713571E+02  0.00000000000E+00 0.  1.
          5    1    4    4  501    0  0.89454134142E+02 -0.30555695362E+02  0.12709488127E+02  0.95470917680E+02  0.41800000000E+01 0. -1.
         -5    1    4    4    0  501 -0.16979372468E+02  0.45367933662E+02  0.24977075245E+02  0.54661459749E+02  0.41800000000E+01 0. -1.
</event>
<event>
11    1  0.8299058E-009  0.1897385E+03  0.7561462E-02  0.1062027E+00
         22   -1    0    0    0    0  0.00000000000E+00  0.00000000000E+00  0.11950140957E+04  0.11950140957E+04  0.00000000000E+00 0.  1.
         22   -1    0    0    0    0 -0.00000000000E+00 -0.00000000000E+00 -0.11915341009E+03  0.11915341009E+03  0.00000000000E+00 0.  1.
         24    2    1    2    0    0  0.63391189652E+01  0.81610857533E+01 -0.37179976278E+02  0.88697125629E+02  0.79862642761E+02 0.  0.
         25    2    1    2    0    0  0.64849661005E+02  0.11691969869E+03  0.12039610971E+03  0.21912496474E+03  0.12507930470E+03 0.  0.
        -24    2    1    2    0    0 -0.71188779970E+02 -0.12508078445E+03  0.99264455218E+03  0.10063454154E+04  0.81699713294E+02 0.  0.
        -13    1    3    3    0    0  0.41942971580E+02  0.11071033726E+02 -0.28598696966E+02  0.51958311374E+02  0.00000000000E+00 0.  1.
         14    1    3    3    0    0 -0.35603852615E+02 -0.29099479725E+01 -0.85812793119E+01  0.36738814255E+02  0.00000000000E+00 0. -1.
         13    1    5    5    0    0 -0.66218658141E+02 -0.34308049384E+02  0.44320628358E+03  0.44943716217E+03  0.00000000000E+00 0. -1.
        -14    1    5    5    0    0 -0.49701218293E+01 -0.90772735063E+02  0.54943826860E+03  0.55690825326E+03  0.00000000000E+00 0.  1.
          5    1    4    4  501    0 -0.29211757068E+02  0.32924734536E+02 -0.73075223578E+00  0.44219580438E+02  0.41800000000E+01 0.  1.
         -5    1    4    4    0  501  0.94061418073E+02  0.83994964158E+02  0.12112686194E+03  0.17490538430E+03  0.41800000000E+01 0.  1.
</event>
<event>
11    1  0.8299058E-009  0.3010064E+03  0.7561462E-02  0.9997662E-01
         22   -1    0    0    0    0  0.00000000000E+00  0.00000000000E+00  0.41630128515E+03  0.41630128515E+03  0.00000000000E+00 0.  1.
         22   -1    0    0    0    0 -0.00000000000E+00 -0.00000000000E+00 -0.55918541522E+03  0.55918541522E+03  0.00000000000E+00 0.  1.
         24    2    1    2    0    0 -0.93711472536E+02 -0.24930291773E+03 -0.37019813658E+03  0.46339633411E+03  0.82193170451E+02 0.  0.
         25    2    1    2    0    0  0.55012652591E+02  0.31319829896E+03  0.13135709097E+03  0.36609273056E+03  0.12509850360E+03 0.  0.
        -24    2    1    2    0    0  0.38698819945E+02 -0.63895381235E+02  0.95956915537E+02  0.14599763570E+03  0.80792088614E+02 0.  0.
        -13    1    3    3    0    0 -0.78794403566E+02 -0.24146121768E+03 -0.36687895222E+03  0.44621994942E+03  0.00000000000E+00 0.  1.
         14    1    3    3    0    0 -0.14917068970E+02 -0.78417000498E+01 -0.33191843578E+01  0.17176384693E+02  0.00000000000E+00 0. -1.
         13    1    5    5    0    0 -0.54019190280E+01 -0.36425246621E+02  0.85370319605E+02  0.92973495094E+02  0.00000000000E+00 0. -1.
        -14    1    5    5    0    0  0.44100738973E+02 -0.27470134614E+02  0.10586595932E+02  0.53024140607E+02  0.00000000000E+00 0.  1.
          5    1    4    4  501    0  0.44915757455E+02  0.79815112503E+02  0.90659042135E+02  0.12893568851E+03  0.41800000000E+01 0.  1.
         -5    1    4    4    0  501  0.10096895136E+02  0.23338318646E+03  0.40698048831E+02  0.23715704205E+03  0.41800000000E+01 0.  1.
</event>
<event>
11    1  0.8299058E-009  0.1908085E+03  0.7561462E-02  0.1061221E+00
         22   -1    0    0    0    0  0.00000000000E+00  0.00000000000E+00  0.44241001558E+03  0.44241001558E+03  0.00000000000E+00 0. -1.
         22   -1    0    0    0    0 -0.00000000000E+00 -0.00000000000E+00 -0.12701952385E+04  0.12701952385E+04  0.00000000000E+00 0.  1.
        -24    2    1    2    0    0 -0.19983623705E+02 -0.40916086136E+02 -0.97193059381E+03  0.97642732086E+03  0.81778740696E+02 0.  0.
         25    2    1    2    0    0 -0.11823814335E+03 -0.56992865598E+01 -0.25286228231E+03  0.30594010081E+03  0.12508905252E+03 0.  0.
         24    2    1    2    0    0  0.13822176705E+03  0.46615372696E+02  0.39700765321E+03  0.43023783239E+03  0.78811584563E+02 0.  0.
        -11    1    5    5    0    0  0.59265522987E+02  0.57214752211E+02  0.24721473964E+03  0.26057831372E+03  0.00000000000E+00 0.  1.
         12    1    5    5    0    0  0.78956244063E+02 -0.10599379515E+02  0.14979291357E+03  0.16965951868E+03  0.00000000000E+00 0. -1.
         13    1    3    3    0    0  0.27146170536E+02 -0.29082486579E+02 -0.28265264806E+03  0.28543865375E+03  0.00000000000E+00 0. -1.
        -14    1    3    3    0    0 -0.47129794241E+02 -0.11833599557E+02 -0.68927794575E+03  0.69098866711E+03  0.00000000000E+00 0.  1.
          5    1    4    4  501    0  0.17987435725E+02  0.70779725523E+01 -0.16402853959E+01  0.19844608225E+02  0.41800000000E+01 0. -1.
         -5    1    4    4    0  501 -0.13622557907E+03 -0.12777259112E+02 -0.25122199692E+03  0.28609549259E+03  0.41800000000E+01 0. -1.
</event>
<event>
11    1  0.8299058E-009  0.1479396E+03  0.7561462E-02  0.1099003E+00
         22   -1    0    0    0    0  0.00000000000E+00  0.00000000000E+00  0.26519528583E+04  0.26519528583E+04  0.00000000000E+00 0. -1.
         22   -1    0    0    0    0 -0.00000000000E+00 -0.00000000000E+00 -0.72711252306E+02  0.72711252306E+02  0.00000000000E+00 0.  1.
         24    2    1    2    0    0  0.77981374724E+02 -0.18118713685E+02 -0.18997384458E+02  0.11475023785E+03  0.79983335015E+02 0.  0.
         25    2    1    2    0    0 -0.58806324418E+02 -0.53520545069E+01  0.10098177819E+04  0.10192481368E+04  0.12509190038E+03 0.  0.
        -24    2    1    2    0    0 -0.19175050305E+02  0.23470768192E+02  0.15884212086E+04  0.15906657359E+04  0.78847879644E+02 0.  0.
        -11    1    3    3    0    0  0.47509647654E+02 -0.49686093039E+02 -0.60811494200E+01  0.69013439560E+02  0.00000000000E+00 0.  1.
         12    1    3    3    0    0  0.30471727069E+02  0.31567379354E+02 -0.12916235038E+02  0.45736798286E+02  0.00000000000E+00 0. -1.
         13    1    5    5    0    0  0.21703637848E+02  0.30273378578E+02  0.10463313491E+04  0.10469941822E+04  0.00000000000E+00 0. -1.
        -14    1    5    5    0    0 -0.40878688153E+02 -0.68026103862E+01  0.54208985943E+03  0.54367155374E+03  0.00000000000E+00 0.  1.
          5    1    4    4  501    0 -0.89522815544E+02  0.26751920917E+02  0.65934570117E+03  0.66594611330E+03  0.41800000000E+01 0. -1.
         -5    1    4    4    0  501  0.30716491125E+02 -0.32103975424E+02  0.35047208074E+03  0.35330202355E+03  0.41800000000E+01 0. -1.
</event>
<event>
11    1  0.8299058E-009  0.1629586E+03  0.7561462E-02  0.1084327E+00
         22   -1    0    0    0    0  0.00000000000E+00  0.00000000000E+00  0.62829004936E+03  0.62829004936E+03  0.00000000000E+00 0.  1.
         22   -1    0    0    0    0 -0.00000000000E+00 -0.00000000000E+00 -0.20039128220E+03  0.20039128220E+03  0.00000000000E+00 0. -1.
         24    2    1    2    0    0 -0.91388607502E+02 -0.48831434270E+02 -0.12344638392E+03  0.17954546744E+03  0.79127609726E+02 0.  0.
         25    2    1    2    0    0  0.12616082348E+03 -0.89803559962E+01  0.14234708911E+03  0.22783067900E+03  0.12508766664E+03 0.  0.
        -24    2    1    2    0    0 -0.34772215975E+02  0.57811790266E+02  0.40899806198E+03  0.42130518511E+03  0.75281698991E+02 0.  0.
        -11    1    3    3    0    0 -0.86146753866E+02 -0.43319337777E+02 -0.55666234556E+02  0.11133983068E+03  0.00000000000E+00 0.  1.
         12    1    3    3    0    0 -0.52418536360E+01 -0.55120964923E+01 -0.67780149365E+02  0.68205636755E+02  0.00000000000E+00 0. -1.
         11    1    5    5    0    0 -0.29778885540E+01  0.16159663891E+02  0.10775290455E+02  0.19649667725E+02  0.00000000000E+00 0. -1.
        -12    1    5    5    0    0 -0.31794327421E+02  0.41652126375E+02  0.39822277153E+03  0.40165551739E+03  0.00000000000E+00 0.  1.
          5    1    4    4  501    0  0.10689365357E+03 -0.20714408686E+02  0.16359446333E+03  0.19656032339E+03  0.41800000000E+01 0. -1.
         -5    1    4    4    0  501  0.19267169912E+02  0.11734052690E+02 -0.21247374221E+02  0.31270355614E+02  0.41800000000E+01 0. -1.
</event>
<event>
11    1  0.8299058E-009  0.1591094E+03  0.7561462E-02  0.1087918E+00
         22   -1    0    0    0    0  0.00000000000E+00  0.00000000000E+00  0.31855871745E+03  0.31855871745E+03  0.00000000000E+00 0. -1.
         22   -1    0    0    0    0 -0.00000000000E+00 -0.00000000000E+00 -0.10347887300E+04  0.10347887300E+04  0.00000000000E+00 0. -1.
        -24    2    1    2    0    0 -0.54792359841E+02  0.78890815290E+02 -0.88056170862E+03  0.89157446333E+03  0.10144031515E+03 0.  0.
         25    2    1    2    0    0  0.89306443727E+02 -0.84833398361E+02 -0.86179435954E+02  0.19556866677E+03  0.12509141407E+03 0.  0.
         24    2    1    2    0    0 -0.34514083886E+02  0.59425830709E+01  0.25051113200E+03  0.26620431737E+03  0.82960081075E+02 0.  0.
        -11    1    5    5    0    0  0.12153162130E+02  0.60601078245E+01  0.24598180648E+01  0.13801266663E+02  0.00000000000E+00 0.  1.
         12    1    5    5    0    0 -0.46667246016E+02 -0.11752475363E+00  0.24805131393E+03  0.25240305071E+03  0.00000000000E+00 0. -1.
         13    1    3    3    0    0 -0.66044188815E+02  0.32136265781E+02 -0.72596502728E+03  0.72967101853E+03  0.00000000000E+00 0. -1.
        -14    1    3    3    0    0  0.11251828974E+02  0.46754549509E+02 -0.15459668135E+03  0.16190344480E+03  0.00000000000E+00 0.  1.
          5    1    4    4  501    0  0.83035885350E+02 -0.90191544910E+02 -0.14757344664E+02  0.12355049434E+03  0.41800000000E+01 0. -1.
         -5    1    4    4    0  501  0.62705583772E+01  0.53581465492E+01 -0.71422091290E+02  0.72018172436E+02  0.41800000000E+01 0. -1.
</event>
<event>
11    1  0.8299058E-009  0.1343712E+03  0.7561462E-02  0.1114012E+00
         22   -1    0    0    0    0  0.00000000000E+00  0.00000000000E+00  0.31408069275E+03  0.31408069275E+03  0.00000000000E+00 0. -1.
         22   -1    0    0    0    0 -0.00000000000E+00 -0.00000000000E+00 -0.81482055638E+03  0.81482055638E+03  0.00000000000E+00 0.  1.
        -24    2    1    2    0    0  0.92925669532E+01 -0.13174062924E+02 -0.50124146007E+03  0.50786737348E+03  0.80164580846E+02 0.  0.
         25    2    1    2    0    0 -0.21867930087E+02 -0.34512213047E+02 -0.28832525567E+03  0.31693729452E+03  0.12509395022E+03 0.  0.
         24    2    1    2    0    0  0.12575363134E+02  0.47686275972E+02  0.28882685210E+03  0.30409658113E+03  0.81373579770E+02 0.  0.
        -13    1    5    5    0    0 -0.25089405844E+02  0.52012321531E+01  0.31623321443E+02  0.40700928252E+02  0.00000000000E+00 0.  1.
         14    1    5    5    0    0  0.37664768978E+02  0.42485043819E+02  0.25720353066E+03  0.26339565288E+03  0.00000000000E+00 0. -1.
         13    1    3    3    0    0  0.17513973279E+02 -0.16403678067E+02 -0.40744207348E+02  0.47285413676E+02  0.00000000000E+00 0. -1.
        -14    1    3    3    0    0 -0.82214063260E+01  0.32296151422E+01 -0.46049725272E+03  0.46058195980E+03  0.00000000000E+00 0.  1.
          5    1    4    4  501    0 -0.39688986833E+02  0.71354345146E+01 -0.20789092383E+02  0.45560825976E+02  0.41800000000E+01 0. -1.
         -5    1    4    4    0  501  0.17821056746E+02 -0.41647647562E+02 -0.26753616329E+03  0.27137646854E+03  0.41800000000E+01 0. -1.
</event>
<event>
11    1  0.8299058E-009  0.1516169E+03  0.7561462E-02  0.1095238E+00
         22   -1    0    0    0    0  0.00000000000E+00  0.00000000000E+00  0.26369778759E+03  0.26369778759E+03  0.00000000000E+00 0.  1.
         22   -1    0    0    0    0 -0.00000000000E+00 -0.00000000000E+00 -0.12673841758E+04  0.12673841758E+04  0.00000000000E+00 0.  1.
        -24    2    1    2    0    0 -0.74792679556E+02  0.25213118407E+00 -0.11210500016E+04  0.11264304934E+04  0.80613535069E+02 0.  0.
         25    2    1    2    0    0 -0.97603847803E+01 -0.39869486548E+02 -0.93029248932E+02  0.16120500173E+03  0.12509104826E+03 0.  0.
         24    2    1    2    0    0  0.84553064336E+02  0.39617355364E+02  0.21039286230E+03  0.24344646823E+03  0.79260777516E+02 0.  0.
        -11    1    5    5    0    0  0.93805052044E+02  0.50165889715E+02  0.16852875606E+03  0.19929361731E+03  0.00000000000E+00 0.  1.
         12    1    5    5    0    0 -0.92519877083E+01 -0.10548534351E+02  0.41864106235E+02  0.44152850920E+02  0.00000000000E+00 0. -1.
         13    1    3    3    0    0 -0.79955199052E+02 -0.26420258716E+01 -0.59575850062E+03  0.60110565229E+03  0.00000000000E+00 0. -1.
        -14    1    3    3    0    0  0.51625194963E+01  0.28941570557E+01 -0.52529150093E+03  0.52532484112E+03  0.00000000000E+00 0.  1.
          5    1    4    4  501    0 -0.52165765683E+02 -0.37869071662E+02 -0.67406627957E+01  0.64947999452E+02  0.41800000000E+01 0. -1.
         -5    1    4    4    0  501  0.42405380903E+02 -0.20004148866E+01 -0.86288586137E+02  0.96257002274E+02  0.41800000000E+01 0. -1.
</event>
<event>
11    1  0.8299058E-009  0.3530048E+03  0.7561462E-02  0.9799598E-01
         22   -1    0    0    0    0  0.00000000000E+00  0.00000000000E+00  0.47416952693E+03  0.47416952693E+03  0.00000000000E+00 0. -1.
         22   -1    0    0    0    0 -0.00000000000E+00 -0.00000000000E+00 -0.13774618593E+04  0.13774618593E+04  0.00000000000E+00 0.  1.
         24    2    1    2    0    0 -0.48282372079E+02 -0.21821010072E+03 -0.83168642471E+03  0.86497846914E+03  0.80861656605E+02 0.  0.
         25    2    1    2    0    0 -0.19607564979E+02  0.51006711335E+03 -0.29660058536E+03  0.60346628452E+03  0.12508690016E+03 0.  0.
        -24    2    1    2    0    0  0.67889937058E+02 -0.29185701263E+03  0.22499467775E+03  0.38318663254E+03  0.80123847702E+02 0.  0.
        -11    1    3    3    0    0 -0.69469894077E+02 -0.17190620454E+03 -0.61212859597E+03  0.63959301696E+03  0.00000000000E+00 0.  1.
         12    1    3    3    0    0  0.21187521998E+02 -0.46303896183E+02 -0.21955782874E+03  0.22538545217E+03  0.00000000000E+00 0. -1.
         11    1    5    5    0    0  0.29649169217E+02 -0.17610031683E+03  0.17911926028E+03  0.25293102662E+03  0.00000000000E+00 0. -1.
        -12    1    5    5    0    0  0.38240767841E+02 -0.11575669579E+03  0.45875417469E+02  0.13025560592E+03  0.00000000000E+00 0.  1.
          5    1    4    4  501    0 -0.36510521348E+02  0.29544673424E+03 -0.10639597842E+03  0.31616351397E+03  0.41800000000E+01 0.  1.
         -5    1    4    4    0  501  0.16902956369E+02  0.21462037910E+03 -0.19020460694E+03  0.28730277055E+03  0.41800000000E+01 0.  1.
</event>
<event>
11    1  0.8299058E-009  0.1458871E+03  0.7561462E-02  0.1101157E+00
         22   -1    0    0    0    0  0.00000000000E+00  0.00000000000E+00  0.10419844541E+03  0.10419844541E+03  0.00000000000E+00 0.  1.
         22   -1    0    0    0    0 -0.00000000000E+00 -0.00000000000E+00 -0.14365757349E+04  0.14365757349E+04  0.00000000000E+00 0.  1.
        -24    2    1    2    0    0  0.60324973921E+02 -0.40670743833E+02 -0.10950243110E+04  0.11012003722E+04  0.90943972230E+02 0.  0.
         25    2    1    2    0    0 -0.82341905949E+02  0.37124281889E+02 -0.29826911531E+03  0.33580985280E+03  0.12508153464E+03 0.  0.
         24    2    1    2    0    0  0.22016932028E+02  0.35464619440E+01  0.60916136840E+02  0.10376395532E+03  0.80986789098E+02 0.  0.
        -11    1    5    5    0    0  0.40244747107E+02  0.18003303897E+02  0.64761236410E+01  0.44561180396E+02  0.00000000000E+00 0.  1.
         12    1    5    5    0    0 -0.18227815079E+02 -0.14456841953E+02  0.54440013199E+02  0.59202774926E+02  0.00000000000E+00 0. -1.
         11    1    3    3    0    0  0.13386470351E+02 -0.22969617135E+02 -0.68911001389E+02  0.73861539465E+02  0.00000000000E+00 0. -1.
        -12    1    3    3    0    0  0.46938503570E+02 -0.17701126698E+02 -0.10261133096E+04  0.10273388327E+04  0.00000000000E+00 0.  1.
          5    1    4    4  501    0 -0.16209983195E+02  0.75753356644E+02 -0.14905259965E+03  0.16803417647E+03  0.41800000000E+01 0. -1.
         -5    1    4    4    0  501 -0.66131922754E+02 -0.38629074755E+02 -0.14921651565E+03  0.16777567633E+03  0.41800000000E+01 0. -1.
</event>
<event>
11    1  0.8299058E-009  0.1509799E+03  0.7561462E-02  0.1095882E+00
         22   -1    0    0    0    0  0.00000000000E+00  0.00000000000E+00  0.33566648319E+03  0.33566648319E+03  0.00000000000E+00 0. -1.
         22   -1    0    0    0    0 -0.00000000000E+00 -0.00000000000E+00 -0.26998972373E+03  0.26998972373E+03  0.00000000000E+00 0. -1.
         24    2    1    2    0    0  0.96470792518E+02 -0.16442012006E+01 -0.19091284519E+03  0.22869475586E+03  0.80896598757E+02 0.  0.
         25    2    1    2    0    0 -0.24601170186E+02  0.29696803007E+02  0.46421544480E+02  0.13888753287E+03  0.12509064438E+03 0.  0.
        -24    2    1    2    0    0 -0.71869622332E+02 -0.28052601806E+02  0.21016806017E+03  0.23807391819E+03  0.80971513048E+02 0.  0.
        -11    1    3    3    0    0  0.72003537716E+02  0.14634956871E+02 -0.60993117208E+02  0.95492679054E+02  0.00000000000E+00 0.  1.
         12    1    3    3    0    0  0.24467254802E+02 -0.16279158071E+02 -0.12991972799E+03  0.13320207680E+03  0.00000000000E+00 0. -1.
         13    1    5    5    0    0  0.60693760285E+01 -0.99843757902E+01  0.10642308636E+03  0.10706259102E+03  0.00000000000E+00 0. -1.
        -14    1    5    5    0    0 -0.77938998361E+02 -0.18068226016E+02  0.10374497381E+03  0.13101132718E+03  0.00000000000E+00 0.  1.
          5    1    4    4  501    0  0.22254636370E+02 -0.32058688608E+02  0.47026465292E+02  0.61253483110E+02  0.41800000000E+01 0. -1.
         -5    1    4    4    0  501 -0.46855806556E+02  0.61755491615E+02 -0.60492081186E+00  0.77634049758E+02  0.41800000000E+01 0. -1.
</event>
<event>
11    1  0.8299058E-009  0.1575395E+03  0.7561462E-02  0.1089415E+00
         22   -1    0    0    0    0  0.00000000000E+00  0.00000000000E+00  0.88023815381E+03  0.88023815381E+03  0.00000000000E+00 0.  1.
         22   -1    0    0    0    0 -0.00000000000E+00 -0.00000000000E+00 -0.16773899906E+04  0.16773899906E+04  0.00000000000E+00 0. -1.
         24    2    1    2    0    0 -0.43024952175E+02 -0.84298390601E+02 -0.16027215547E+04  0.16076996247E+04  0.83811312535E+02 0.  0.
         25    2    1    2    0    0  0.64489508244E+02  0.16037430566E+03  0.10051078306E+03  0.23585428865E+03  0.12508402525E+03 0.  0.
        -24    2    1    2    0    0 -0.21464556069E+02 -0.76075915062E+02  0.70505893489E+03  0.71407423105E+03  0.80905091108E+02 0.  0.
        -11    1    3    3    0    0 -0.68945835050E+01  0.16570739566E+02 -0.15958283024E+03  0.16058892987E+03  0.00000000000E+00 0.  1.
         12    1    3    3    0    0 -0.36130368670E+02 -0.10086913017E+03 -0.14431387245E+04  0.14471106948E+04  0.00000000000E+00 0. -1.
         11    1    5    5    0    0 -0.39505834021E+02 -0.70211005311E+01  0.19879192301E+03  0.20280097492E+03  0.00000000000E+00 0. -1.
        -12    1    5    5    0    0  0.18041277953E+02 -0.69054814531E+02  0.50626701188E+03  0.51127325613E+03  0.00000000000E+00 0.  1.
          5    1    4    4  501    0 -0.84662304625E+01  0.90847172441E+02 -0.29197290395E+01  0.91383165935E+02  0.41800000000E+01 0. -1.
         -5    1    4    4    0  501  0.72955738706E+02  0.69527133222E+02  0.10343051210E+03  0.14447112271E+03  0.41800000000E+01 0. -1.
</event>
<event>
11    1  0.8299058E-009  0.1647903E+03  0.7561462E-02  0.1082656E+00
         22   -1    0    0    0    0  0.00000000000E+00  0.00000000000E+00  0.14503307192E+04  0.14503307192E+04  0.00000000000E+00 0.  1.
         22   -1    0    0    0    0 -0.00000000000E+00 -0.00000000000E+00 -0.53206698762E+03  0.53206698762E+03  0.00000000000E+00 0. -1.
        -24    2    1    2    0    0  0.45039869541E+02 -0.47060597720E+02 -0.51028389089E+03  0.52084671608E+03  0.81537492249E+02 0.  0.
         25    2    1    2    0    0 -0.28346120847E+02  0.13600669415E+03  0.85824957167E+03  0.87836865434E+03  0.12505135838E+03 0.  0.
         24    2    1    2    0    0 -0.16693748694E+02 -0.88946096432E+02  0.57029805075E+03  0.58318233636E+03  0.81680361421E+02 0.  0.
        -13    1    5    5    0    0 -0.30212876946E+02 -0.90178068160E+02  0.35693932908E+03  0.36939218530E+03  0.00000000000E+00 0.  1.
         14    1    5    5    0    0  0.13519128253E+02  0.12319717275E+01  0.21335872166E+03  0.21379015107E+03  0.00000000000E+00 0. -1.
         11    1    3    3    0    0 -0.19117434404E+02 -0.33321440579E+02 -0.20899998445E+03  0.21250126635E+03  0.00000000000E+00 0. -1.
        -12    1    3    3    0    0  0.64157303945E+02 -0.13739157141E+02 -0.30128390644E+03  0.30834544973E+03  0.00000000000E+00 0.  1.
          5    1    4    4  501    0  0.12577954006E+01  0.65721729797E+02  0.69522881254E+03  0.69834196638E+03  0.41800000000E+01 0.  1.
         -5    1    4    4    0  501 -0.29603916248E+02  0.70284964355E+02  0.16302075913E+03  0.18002668797E+03  0.41800000000E+01 0.  1.
</event>
<event>
11    1  0.8299058E-009  0.1424386E+03  0.7561462E-02  0.1104866E+00
         22   -1    0    0    0    0  0.00000000000E+00  0.00000000000E+00  0.76806390613E+03  0.76806390613E+03  0.00000000000E+00 0.  1.
         22   -1    0    0    0    0 -0.00000000000E+00 -0.00000000000E+00 -0.14100523867E+03  0.14100523867E+03  0.00000000000E+00 0. -1.
        -24    2    1    2    0    0 -0.33009403267E+01  0.40248580052E+01 -0.48055018319E+02  0.94336782928E+02  0.81012641844E+02 0.  0.
         25    2    1    2    0    0  0.65852938734E+02 -0.30331178102E+02  0.13950119126E+02  0.14525098521E+03  0.12508658191E+03 0.  0.
         24    2    1    2    0    0 -0.62551998407E+02  0.26306320097E+02  0.66116356666E+03  0.66948137666E+03  0.80394507541E+02 0.  0.
        -13    1    5    5    0    0 -0.74790565046E+02  0.26089780530E+02  0.38588898106E+03  0.39393478010E+03  0.00000000000E+00 0.  1.
         14    1    5    5    0    0  0.12238566639E+02  0.21653956711E+00  0.27527458559E+03  0.27554659656E+03  0.00000000000E+00 0. -1.
         13    1    3    3    0    0 -0.26657413341E+02  0.14538544109E+02 -0.59099396567E+02  0.66443401670E+02  0.00000000000E+00 0. -1.
        -14    1    3    3    0    0  0.23356473014E+02 -0.10513686104E+02  0.11044378248E+02  0.27893381258E+02  0.00000000000E+00 0.  1.
          5    1    4    4  501    0  0.89879889806E+02  0.37350389213E+01  0.37085345157E+02  0.97391685131E+02  0.41800000000E+01 0.  1.
         -5    1    4    4    0  501 -0.24026951072E+02 -0.34066217024E+02 -0.23135226031E+02  0.47859300075E+02  0.41800000000E+01 0.  1.
</event>
<event>
11    1  0.8299058E-009  0.4457501E+03  0.7561462E-02  0.9523649E-01
         22   -1    0    0    0    0  0.00000000000E+00  0.00000000000E+00  0.56086092060E+03  0.56086092060E+03  0.00000000000E+00 0.  1.
         22   -1    0    0    0    0 -0.00000000000E+00 -0.00000000000E+00 -0.23048102917E+04  0.23048102917E+04  0.00000000000E+00 0.  1.
         24    2    1    2    0    0  0.11391479479E+03 -0.40025867323E+03 -0.18653653236E+04  0.19128796524E+04  0.79606456996E+02 0.  0.
         25    2    1    2    0    0 -0.21161633524E+03  0.47505947571E+03 -0.22259086083E+03  0.57935871743E+03  0.12508738283E+03 0.  0.
        -24    2    1    2    0    0  0.97701540446E+02 -0.74800802476E+02  0.34400681335E+03  0.37343284248E+03  0.77269975774E+02 0.  0.
        -11    1    3    3    0    0  0.11764517966E+03 -0.36914362761E+03 -0.17862345743E+04  0.18277695042E+04  0.00000000000E+00 0.  1.
         12    1    3    3    0    0 -0.37303848691E+01 -0.31115045625E+02 -0.79130749371E+02  0.85110148229E+02  0.00000000000E+00 0. -1.
         13    1    5    5    0    0  0.40581919779E+02 -0.59141379517E+01  0.43066252063E+02  0.59469078582E+02  0.00000000000E+00 0. -1.
        -14    1    5    5    0    0  0.57119620668E+02 -0.68886664525E+02  0.30094056128E+03  0.31396376390E+03  0.00000000000E+00 0.  1.
          5    1    4    4  501    0 -0.14803925981E+03  0.21997215246E+03 -0.15776022167E+03  0.30855976770E+03  0.41800000000E+01 0. -1.
         -5    1    4    4    0  501 -0.63577075426E+02  0.25508732325E+03 -0.64830639160E+02  0.27079894973E+03  0.41800000000E+01 0. -1.
</event>
<event>
11    1  0.8299058E-009  0.1428281E+03  0.7561462E-02  0.1104441E+00
         22   -1    0    0    0    0  0.00000000000E+00  0.00000000000E+00  0.19071880772E+04  0.19071880772E+04  0.00000000000E+00 0.  1.
         22   -1    0    0    0    0 -0.00000000000E+00 -0.00000000000E+00 -0.64707620398E+02  0.64707620398E+02  0.00000000000E+00 0. -1.
        -24    2    1    2    0    0  0.66030542675E+02  0.17264473278E+02  0.50560262518E+01  0.10688280682E+03  0.82099186291E+02 0.  0.
         25    2    1    2    0    0 -0.81663880570E+02  0.22858980397E+02  0.45175546429E+03  0.47636299998E+03  0.12508871195E+03 0.  0.
         24    2    1    2    0    0  0.15633337895E+02 -0.40123453675E+02  0.13856689662E+04  0.13886498908E+04  0.80098329332E+02 0.  0.
        -11    1    5    5    0    0  0.20022222919E+02 -0.62559474710E+02  0.11501008801E+04  0.11519750916E+04  0.00000000000E+00 0.  1.
         12    1    5    5    0    0 -0.43888850237E+01  0.22436021035E+02  0.23556808614E+03  0.23667479916E+03  0.00000000000E+00 0. -1.
         13    1    3    3    0    0 -0.94534983629E+01  0.31727827334E+00 -0.22778830520E+02  0.24664638994E+02  0.00000000000E+00 0. -1.
        -14    1    3    3    0    0  0.75484041038E+02  0.16947195005E+02  0.27834856772E+02  0.82218167831E+02  0.00000000000E+00 0.  1.
          5    1    4    4  501    0  0.18676440158E+02  0.59454376309E+01  0.88643896645E+01  0.21913636159E+02  0.41800000000E+01 0.  1.
         -5    1    4    4    0  501 -0.10034032073E+03  0.16913542766E+02  0.44289107463E+03  0.45444936382E+03  0.41800000000E+01 0.  1.
</event>
<event>
11    1  0.8299058E-009  0.1703413E+03  0.7561462E-02  0.1077735E+00
         22   -1    0    0    0    0  0.00000000000E+00  0.00000000000E+00  0.56138663134E+03  0.56138663134E+03  0.00000000000E+00 0. -1.
         22   -1    0    0    0    0 -0.00000000000E+00 -0.00000000000E+00 -0.32874036624E+04  0.32874036624E+04  0.00000000000E+00 0.  1.
         24    2    1    2    0    0  0.97838281204E+01 -0.11561957500E+03 -0.29647410022E+04  0.29681880085E+04  0.83589679840E+02 0.  0.
         25    2    1    2    0    0  0.37017390849E+02  0.11290025104E+03 -0.29338624497E+03  0.34035295039E+03  0.12509151926E+03 0.  0.
        -24    2    1    2    0    0 -0.46801218970E+02  0.27193239547E+01  0.53211021602E+03  0.54024933489E+03  0.80810352232E+02 0.  0.
        -11    1    3    3    0    0  0.34406093902E+02 -0.10018190613E+03 -0.18212400914E+04  0.18243178627E+04  0.00000000000E+00 0.  1.
         12    1    3    3    0    0 -0.24622265782E+02 -0.15437668870E+02 -0.11435009107E+04  0.11438701458E+04  0.00000000000E+00 0. -1.
         13    1    5    5    0    0  0.13545246198E+01 -0.12215463074E+02  0.37596778838E+03  0.37616861934E+03  0.00000000000E+00 0. -1.
        -14    1    5    5    0    0 -0.48155743589E+02  0.14934787028E+02  0.15614242764E+03  0.16408071554E+03  0.00000000000E+00 0.  1.
          5    1    4    4  501    0 -0.18928581205E+02  0.51778912670E+02 -0.22831334337E+03  0.23491232864E+03  0.41800000000E+01 0. -1.
         -5    1    4    4    0  501  0.55945972054E+02  0.61121338374E+02 -0.65072901603E+02  0.10544062176E+03  0.41800000000E+01 0. -1.
</event>
<event>
11    1  0.8299058E-009  0.1541525E+03  0.7561462E-02  0.1092710E+00
         22   -1    0    0    0    0  0.00000000000E+00  0.00000000000E+00  0.16268673236E+04  0.16268673236E+04  0.00000000000E+00 0. -1.
         22   -1    0    0    0    0 -0.00000000000E+00 -0.00000000000E+00 -0.80387109364E+03  0.80387109364E+03  0.00000000000E+00 0.  1.
        -24    2    1    2    0    0  0.13627470448E+02 -0.60854734881E+01 -0.78786634775E+03  0.79196051713E+03  0.79027449882E+02 0.  0.
         25    2    1    2    0    0 -0.62011460077E+02 -0.69063989055E+02  0.58828780324E+03  0.60855976986E+03  0.12508876162E+03 0.  0.
         24    2    1    2    0    0  0.48383989629E+02  0.75149462543E+02  0.10225747745E+04  0.10302181303E+04  0.87759753523E+02 0.  0.
        -11    1    5    5    0    0 -0.11181313185E+02  0.77955939004E+01  0.23977275650E+02  0.27580841111E+02  0.00000000000E+00 0.  1.
         12    1    5    5    0    0  0.59565302813E+02  0.67353868642E+02  0.99859749883E+03  0.10026372891E+04  0.00000000000E+00 0. -1.
         11    1    3    3    0    0 -0.50353135400E+01  0.27432377670E+02 -0.57423364793E+03  0.57491057752E+03  0.00000000000E+00 0. -1.
        -12    1    3    3    0    0  0.18662783988E+02 -0.33517851158E+02 -0.21363269982E+03  0.21704993961E+03  0.00000000000E+00 0.  1.
          5    1    4    4  501    0  0.36418836724E+01 -0.12301977290E+02  0.41003954977E+03  0.41026151018E+03  0.41800000000E+01 0. -1.
         -5    1    4    4    0  501 -0.65653343749E+02 -0.56762011765E+02  0.17824825347E+03  0.19829825967E+03  0.41800000000E+01 0. -1.
</event>
<event>
11    1  0.1168532E-008  0.2278896E+03  0.7561462E-02  0.1036385E+00
         22   -1    0    0    0    0  0.00000000000E+00  0.00000000000E+00  0.25132222189E+04  0.25132222189E+04  0.00000000000E+00 0. -1.
         22   -1    0    0    0    0 -0.00000000000E+00 -0.00000000000E+00 -0.85611907642E+03  0.85611907642E+03  0.00000000000E+00 0.  1.
         24    2    1    2    0    0  0.15400974680E+03 -0.85474105573E+02 -0.60835699337E+03  0.63807831023E+03  0.77594289509E+02 0.  0.
         25    2    1    2    0    0 -0.28394573407E+03  0.11867729514E+03 -0.11046761052E+03  0.35008509220E+03  0.12508796316E+03 0.  0.
        -24    2    1    2    0    0  0.12993598726E+03 -0.33203189571E+02  0.23759277464E+04  0.23811778929E+04  0.83604360364E+02 0.  0.
        -13    1    3    3    0    0  0.15270679627E+03 -0.57137856994E+02 -0.53973954762E+03  0.56382876798E+03  0.00000000000E+00 0.  1.
         14    1    3    3    0    0  0.13029505376E+01 -0.28336248579E+02 -0.68617445746E+02  0.74249542250E+02  0.00000000000E+00 0. -1.
         11    1    5    5    0    0  0.13755528818E+03 -0.17937454552E+02  0.22173378641E+04  0.22216728861E+04  0.00000000000E+00 0. -1.
        -12    1    5    5    0    0 -0.76193009183E+01 -0.15265735019E+02  0.15858988232E+03  0.15950500678E+03  0.00000000000E+00 0.  1.
          5    1    4    4  501    0 -0.15147967226E+03  0.11244680545E+03 -0.20567741286E+02  0.18981801691E+03  0.41800000000E+01 0. -1.
         -5    1    4    4    0  501 -0.13246606181E+03  0.62304896987E+01 -0.89899869234E+02  0.16026707529E+03  0.41800000000E+01 0. -1.
</event>
<event>
11    1  0.8299058E-009  0.1574095E+03  0.7561462E-02  0.1089539E+00
         22   -1    0    0    0    0  0.00000000000E+00  0.00000000000E+00  0.15262829764E+03  0.15262829764E+03  0.00000000000E+00 0. -1.
         22   -1    0    0    0    0 -0.00000000000E+00 -0.00000000000E+00 -0.10724240249E+04  0.10724240249E+04  0.00000000000E+00 0. -1.
        -24    2    1    2    0    0  0.35761887982E+02 -0.57587605076E+02 -0.90102212343E+03  0.90710657710E+03  0.80038930603E+02 0.  0.
         25    2    1    2    0    0  0.67456342378E+02  0.53467106180E+02 -0.86067516404E+02  0.17454135820E+03  0.12509188133E+03 0.  0.
         24    2    1    2    0    0 -0.10321823036E+03  0.41204988963E+01  0.67293912612E+02  0.14340438721E+03  0.73248658735E+02 0.  0.
        -11    1    5    5    0    0  0.49552059505E+00 -0.88127601576E+00 -0.12444452632E+02  0.12485455113E+02  0.00000000000E+00 0.  1.
         12    1    5    5    0    0 -0.10371375095E+03  0.50017749120E+01  0.79738365244E+02  0.13091893210E+03  0.00000000000E+00 0. -1.
         11    1    3    3    0    0  0.56940023506E+02 -0.52853861228E+02 -0.80092536630E+03  0.80468449675E+03  0.00000000000E+00 0. -1.
        -12    1    3    3    0    0 -0.21178135525E+02 -0.47337438479E+01 -0.10009675713E+03  0.10242208035E+03  0.00000000000E+00 0.  1.
          5    1    4    4  501    0  0.10098385323E+03  0.34112424722E+02 -0.39287982913E+02  0.11367679682E+03  0.41800000000E+01 0.  1.
         -5    1    4    4    0  501 -0.33527510857E+02  0.19354681457E+02 -0.46779533491E+02  0.60864561382E+02  0.41800000000E+01 0.  1.
</event>
<event>
11    1  0.8299058E-009  0.1427100E+03  0.7561462E-02  0.1104569E+00
         22   -1    0    0    0    0  0.00000000000E+00  0.00000000000E+00  0.17524032701E+04  0.17524032701E+04  0.00000000000E+00 0. -1.
         22   -1    0    0    0    0 -0.00000000000E+00 -0.00000000000E+00 -0.43731195094E+03  0.43731195094E+03  0.00000000000E+00 0. -1.
        -24    2    1    2    0    0  0.11749791350E+02 -0.16102310946E+02 -0.42399893372E+03  0.43239921611E+03  0.82441762978E+02 0.  0.
         25    2    1    2    0    0 -0.33100180010E+02 -0.52778830421E+02  0.76288601971E+03  0.77558125669E+03  0.12509987932E+03 0.  0.
         24    2    1    2    0    0  0.21350388660E+02  0.68881141367E+02  0.97620423317E+03  0.98173474825E+03  0.75019732896E+02 0.  0.
        -11    1    5    5    0    0  0.43788716078E+02  0.33738221110E+02  0.37096409825E+03  0.37506010373E+03  0.00000000000E+00 0.  1.
         12    1    5    5    0    0 -0.22438327418E+02  0.35142920257E+02  0.60524013492E+03  0.60667464452E+03  0.00000000000E+00 0. -1.
         13    1    3    3    0    0 -0.10495338131E+02  0.22734379502E+02 -0.29092211786E+03  0.29199774450E+03  0.00000000000E+00 0. -1.
        -14    1    3    3    0    0  0.22245129481E+02 -0.38836690448E+02 -0.13307681586E+03  0.14040147161E+03  0.00000000000E+00 0.  1.
          5    1    4    4  501    0  0.45331712221E+02 -0.26568796206E+02  0.39441418127E+03  0.39792070046E+03  0.41800000000E+01 0.  1.
         -5    1    4    4    0  501 -0.78431892231E+02 -0.26210034216E+02  0.36847183844E+03  0.37766055624E+03  0.41800000000E+01 0.  1.
</event>
<event>
11    1  0.8299058E-009  0.1448014E+03  0.7561462E-02  0.1102312E+00
         22   -1    0    0    0    0  0.00000000000E+00  0.00000000000E+00  0.62736079956E+03  0.62736079956E+03  0.00000000000E+00 0.  1.
         22   -1    0    0    0    0 -0.00000000000E+00 -0.00000000000E+00 -0.73389175141E+02  0.73389175141E+02  0.00000000000E+00 0.  1.
         24    2    1    2    0    0 -0.56333908250E+02  0.38178604357E+02  0.13808126046E+02  0.10681208882E+03  0.81160599582E+02 0.  0.
         25    2    1    2    0    0  0.84051575810E+02 -0.60490301410E+02  0.36030158845E+03  0.39520732442E+03  0.12509136930E+03 0.  0.
        -24    2    1    2    0    0 -0.27717667560E+02  0.22311697053E+02  0.17986190992E+03  0.19873056146E+03  0.76664519152E+02 0.  0.
        -11    1    3    3    0    0 -0.61385473250E+02  0.34440198267E+02 -0.19402528719E+02  0.73012065465E+02  0.00000000000E+00 0.  1.
         12    1    3    3    0    0  0.50515650002E+01  0.37384060898E+01  0.33210654765E+02  0.33800023358E+02  0.00000000000E+00 0. -1.
         11    1    5    5    0    0  0.14126686438E+02  0.37418280299E+02  0.82277068618E+02  0.91483370022E+02  0.00000000000E+00 0. -1.
        -12    1    5    5    0    0 -0.41844353997E+02 -0.15106583246E+02  0.97584841302E+02  0.10724719144E+03  0.00000000000E+00 0.  1.
          5    1    4    4  501    0  0.45127748480E+02 -0.86566134018E+02  0.31536311896E+03  0.33015387085E+03  0.41800000000E+01 0. -1.
         -5    1    4    4    0  501  0.38923827329E+02  0.26075832608E+02  0.44938469495E+02  0.65053453565E+02  0.41800000000E+01 0. -1.
</event>
<event>
11    1  0.8299058E-009  0.1320294E+03  0.7561462E-02  0.1116800E+00
         22   -1    0    0    0    0  0.00000000000E+00  0.00000000000E+00  0.26059462579E+03  0.26059462579E+03  0.00000000000E+00 0. -1.
         22   -1    0    0    0    0 -0.00000000000E+00 -0.00000000000E+00 -0.16901926257E+04  0.16901926257E+04  0.00000000000E+00 0. -1.
         24    2    1    2    0    0  0.25733742783E+02  0.32492823200E+01 -0.50651847688E+03  0.51404704160E+03  0.83729386738E+02 0.  0.
         25    2    1    2    0    0 -0.60261083737E+02  0.19001329606E+01 -0.11684755651E+04  0.11766976295E+04  0.12508859455E+03 0.  0.
        -24    2    1    2    0    0  0.34527340954E+02 -0.51494152806E+01  0.24539604209E+03  0.26004258030E+03  0.78640144620E+02 0.  0.
        -11    1    3    3    0    0 -0.18293015325E+02 -0.26766349719E+02 -0.14195721768E+03  0.14561223691E+03  0.00000000000E+00 0.  1.
         12    1    3    3    0    0  0.44026758108E+02  0.30015632039E+02 -0.36456125920E+03  0.36843480468E+03  0.00000000000E+00 0. -1.
         11    1    5    5    0    0  0.24875795225E+02 -0.26198516412E+02  0.22859781610E+03  0.23143493465E+03  0.00000000000E+00 0. -1.
        -12    1    5    5    0    0  0.96515457291E+01  0.21049101131E+02  0.16798225988E+02  0.28607645652E+02  0.00000000000E+00 0.  1.
          5    1    4    4  501    0 -0.72444674309E+02  0.28227224519E+01 -0.32052217609E+03  0.32864591335E+03  0.41800000000E+01 0.  1.
         -5    1    4    4    0  501  0.12183590572E+02 -0.92258949128E+00 -0.84795338899E+03  0.84805171620E+03  0.41800000000E+01 0.  1.
</event>
<event>
11    1  0.8299058E-009  0.2265525E+03  0.7561462E-02  0.1037189E+00
         22   -1    0    0    0    0  0.00000000000E+00  0.00000000000E+00  0.19153101958E+04  0.19153101958E+04  0.00000000000E+00 0. -1.
         22   -1    0    0    0    0 -0.00000000000E+00 -0.00000000000E+00 -0.16797326327E+03  0.16797326327E+03  0.00000000000E+00 0.  1.
        -24    2    1    2    0    0  0.18231714437E+03  0.11120348726E+02 -0.65168478301E+02  0.20992029681E+03  0.80351709150E+02 0.  0.
         25    2    1    2    0    0 -0.24743516179E+03 -0.16211558589E+02  0.65882529036E+03  0.71497388479E+03  0.12509963543E+03 0.  0.
         24    2    1    2    0    0  0.65118017419E+02  0.50912098628E+01  0.11536801205E+04  0.11583892775E+04  0.81373344550E+02 0.  0.
        -13    1    5    5    0    0 -0.16373818871E+02  0.92022712410E+01  0.36911485146E+03  0.36959242053E+03  0.00000000000E+00 0.  1.
         14    1    5    5    0    0  0.81491836290E+02 -0.41110613782E+01  0.78456526903E+03  0.78879685698E+03  0.00000000000E+00 0. -1.
         13    1    3    3    0    0  0.70146486629E+02  0.18366926831E+02  0.12107702624E+02  0.73515100833E+02  0.00000000000E+00 0. -1.
        -14    1    3    3    0    0  0.11217065774E+03 -0.72465781048E+01 -0.77276180925E+02  0.13640519598E+03  0.00000000000E+00 0.  1.
          5    1    4    4  501    0 -0.55424316409E+01 -0.33918007047E+02  0.97987524066E+02  0.10392390015E+03  0.41800000000E+01 0. -1.
         -5    1    4    4    0  501 -0.24189273015E+03  0.17706448458E+02  0.56083776630E+03  0.61104998463E+03  0.41800000000E+01 0. -1.
</event>
<event>
11    1  0.8299058E-009  0.1579489E+03  0.7561462E-02  0.1089022E+00
         22   -1    0    0    0    0  0.00000000000E+00  0.00000000000E+00  0.14467893783E+04  0.14467893783E+04  0.00000000000E+00 0. -1.
         22   -1    0    0    0    0 -0.00000000000E+00 -0.00000000000E+00 -0.10622406479E+04  0.10622406479E+04  0.00000000000E+00 0.  1.
         24    2    1    2    0    0  0.28721327187E+01  0.48362051872E+02 -0.10232499743E+04  0.10276745435E+04  0.82020243587E+02 0.  0.
         25    2    1    2    0    0  0.50513410805E+02 -0.12474413051E+03  0.21708659045E+03  0.28440337523E+03  0.12508392909E+03 0.  0.
        -24    2    1    2    0    0 -0.53385543524E+02  0.76382078639E+02  0.11907121142E+04  0.11969521075E+04  0.78833815979E+02 0.  0.
        -11    1    3    3    0    0  0.26483580503E+02  0.14209055138E+02 -0.80196678698E+03  0.80252975316E+03  0.00000000000E+00 0.  1.
         12    1    3    3    0    0 -0.23611447785E+02  0.34152996734E+02 -0.22128318730E+03  0.22514479038E+03  0.00000000000E+00 0. -1.
         13    1    5    5    0    0 -0.58647745085E+02  0.18613246907E+02  0.73318286910E+03  0.73576023982E+03  0.00000000000E+00 0. -1.
        -14    1    5    5    0    0  0.52622015619E+01  0.57768831732E+02  0.45752924509E+03  0.46119186766E+03  0.00000000000E+00 0.  1.
          5    1    4    4  501    0  0.69195264814E+02 -0.22929114149E+02  0.52516988777E+02  0.89940177110E+02  0.41800000000E+01 0. -1.
         -5    1    4    4    0  501 -0.18681854009E+02 -0.10181501636E+03  0.16456960168E+03  0.19446319812E+03  0.41800000000E+01 0. -1.
</event>
<event>
11    1  0.8299058E-009  0.1546259E+03  0.7561462E-02  0.1092244E+00
         22   -1    0    0    0    0  0.00000000000E+00  0.00000000000E+00  0.24223709134E+03  0.24223709134E+03  0.00000000000E+00 0. -1.
         22   -1    0    0    0    0 -0.00000000000E+00 -0.00000000000E+00 -0.11872171551E+04  0.11872171551E+04  0.00000000000E+00 0. -1.
         24    2    1    2    0    0  0.31477040166E+02  0.19930796852E+01 -0.10155675755E+04  0.10207578678E+04  0.97848597106E+02 0.  0.
         25    2    1    2    0    0  0.28943478239E+02 -0.72683097704E+02 -0.11432090679E+03  0.18661841112E+03  0.12504640746E+03 0.  0.
        -24    2    1    2    0    0 -0.60420518405E+02  0.70690018019E+02  0.18490841849E+03  0.22207796750E+03  0.80497097658E+02 0.  0.
        -13    1    3    3    0    0 -0.12878208021E+02 -0.11966845952E+02 -0.35761002014E+02  0.39848499456E+02  0.00000000000E+00 0.  1.
         14    1    3    3    0    0  0.44355248187E+02  0.13959925637E+02 -0.97980657345E+03  0.98090936836E+03  0.00000000000E+00 0. -1.
         13    1    5    5    0    0 -0.34650102143E+02  0.70157048123E+02  0.17939757220E+03  0.19571951842E+03  0.00000000000E+00 0. -1.
        -14    1    5    5    0    0 -0.25770416262E+02  0.53296989594E+00  0.55108462869E+01  0.26358449082E+02  0.00000000000E+00 0.  1.
          5    1    4    4  501    0  0.19233184754E+02 -0.76560478917E+02 -0.13876710690E+03  0.15970348990E+03  0.41800000000E+01 0. -1.
         -5    1    4    4    0  501  0.97102934855E+01  0.38773812127E+01  0.24446200114E+02  0.26914921227E+02  0.41800000000E+01 0. -1.
</event>
<event>
11    1  0.8299058E-009  0.2659267E+03  0.7561462E-02  0.1015741E+00
         22   -1    0    0    0    0  0.00000000000E+00  0.00000000000E+00  0.13150436789E+04  0.13150436789E+04  0.00000000000E+00 0.  1.
         22   -1    0    0    0    0 -0.00000000000E+00 -0.00000000000E+00 -0.45014623581E+03  0.45014623581E+03  0.00000000000E+00 0. -1.
         24    2    1    2    0    0  0.52604077190E+02  0.81858715619E+02 -0.35074123094E+03  0.37265629611E+03  0.79907857469E+02 0.  0.
         25    2    1    2    0    0 -0.24110892113E+03  0.58881403592E+02  0.18897940993E+03  0.33609651293E+03  0.12508843707E+03 0.  0.
        -24    2    1    2    0    0  0.18850484394E+03 -0.14074011921E+03  0.10266592641E+04  0.10564371057E+04  0.81781760506E+02 0.  0.
        -11    1    3    3    0    0  0.47780917446E+02  0.12549764597E+02 -0.20958267329E+03  0.21532628638E+03  0.00000000000E+00 0.  1.
         12    1    3    3    0    0  0.48231597436E+01  0.69308951022E+02 -0.14115855765E+03  0.15733000973E+03  0.00000000000E+00 0. -1.
         11    1    5    5    0    0  0.92498325159E+02 -0.10620021206E+03  0.47568747488E+03  0.49609777157E+03  0.00000000000E+00 0. -1.
        -12    1    5    5    0    0  0.96006518776E+02 -0.34539907147E+02  0.55097178922E+03  0.56033933411E+03  0.00000000000E+00 0.  1.
          5    1    4    4  501    0 -0.25831273951E+02  0.56858929270E+02  0.44055913532E+02  0.76541416689E+02  0.41800000000E+01 0. -1.
         -5    1    4    4    0  501 -0.21527764717E+03  0.20224743228E+01  0.14492349640E+03  0.25955509624E+03  0.41800000000E+01 0. -1.
</event>
<event>
11    1  0.8299058E-009  0.1306302E+03  0.7561462E-02  0.1118497E+00
         22   -1    0    0    0    0  0.00000000000E+00  0.00000000000E+00  0.40971378674E+03  0.40971378674E+03  0.00000000000E+00 0. -1.
         22   -1    0    0    0    0 -0.00000000000E+00 -0.00000000000E+00 -0.34806976436E+03  0.34806976436E+03  0.00000000000E+00 0.  1.
         24    2    1    2    0    0  0.10259622936E+02 -0.31530688772E+01 -0.30539113717E+03  0.31596988309E+03  0.80361798475E+02 0.  0.
         25    2    1    2    0    0  0.13955027175E+02  0.32958511572E+02  0.11214223477E+03  0.17176808900E+03  0.12508952519E+03 0.  0.
        -24    2    1    2    0    0 -0.24214650112E+02 -0.29805442695E+02  0.25489292479E+03  0.27004557901E+03  0.80495328685E+02 0.  0.
        -13    1    3    3    0    0  0.39071450984E+02  0.84085265167E+00 -0.25339354642E+03  0.25638949799E+03  0.00000000000E+00 0.  1.
         14    1    3    3    0    0 -0.28811828048E+02 -0.39939215288E+01 -0.51997590753E+02  0.59580385101E+02  0.00000000000E+00 0. -1.
         11    1    5    5    0    0 -0.46584254510E+02 -0.23668990318E+02  0.23064338275E+03  0.23648823200E+03  0.00000000000E+00 0. -1.
        -12    1    5    5    0    0  0.22369604398E+02 -0.61364523770E+01  0.24249542037E+02  0.33557347001E+02  0.00000000000E+00 0.  1.
          5    1    4    4  501    0 -0.55365173112E+02  0.92673398002E+01  0.41718500095E+02  0.70064910125E+02  0.41800000000E+01 0. -1.
         -5    1    4    4    0  501  0.69320200288E+02  0.23691171772E+02  0.70423734673E+02  0.10170317887E+03  0.41800000000E+01 0. -1.
</event>
<event>
11    1  0.8299058E-009  0.1390930E+03  0.7561462E-02  0.1108575E+00
         22   -1    0    0    0    0  0.00000000000E+00  0.00000000000E+00  0.30710584769E+03  0.30710584769E+03  0.00000000000E+00 0. -1.
         22   -1    0    0    0    0 -0.00000000000E+00 -0.00000000000E+00 -0.11534750034E+04  0.11534750034E+04  0.00000000000E+00 0.  1.
        -24    2    1    2    0    0 -0.76497530066E+01  0.28957019394E+02 -0.11020222386E+04  0.11052542686E+04  0.78974402166E+02 0.  0.
         25    2    1    2    0    0 -0.42342761594E+02 -0.57387883394E+02  0.12245190812E+03  0.18901912106E+03  0.12508988650E+03 0.  0.
         24    2    1    2    0    0  0.49992514600E+02  0.28430864000E+02  0.13320117476E+03  0.16630746145E+03  0.81289933141E+02 0.  0.
        -11    1    5    5    0    0 -0.11244175458E+02  0.34924397877E+02  0.37167954509E+02  0.52226448196E+02  0.00000000000E+00 0.  1.
         12    1    5    5    0    0  0.61236690058E+02 -0.64935338764E+01  0.96033220255E+02  0.11408101325E+03  0.00000000000E+00 0. -1.
         13    1    3    3    0    0 -0.17759952323E+02  0.29036059663E+02 -0.18076490461E+03  0.18394145646E+03  0.00000000000E+00 0. -1.
        -14    1    3    3    0    0  0.10110199317E+02 -0.79040268815E-01 -0.92125733397E+03  0.92131281211E+03  0.00000000000E+00 0.  1.
          5    1    4    4  501    0 -0.47004767372E+02 -0.74236411578E+02  0.13905981558E+03  0.16454664284E+03  0.41800000000E+01 0. -1.
         -5    1    4    4    0  501  0.46620057785E+01  0.16848528184E+02 -0.16607907465E+02  0.24472478219E+02  0.41800000000E+01 0. -1.
</event>
<event>
11    1  0.8299058E-009  0.1405580E+03  0.7561462E-02  0.1106937E+00
         22   -1    0    0    0    0  0.00000000000E+00  0.00000000000E+00  0.19473709377E+03  0.19473709377E+03  0.00000000000E+00 0. -1.
         22   -1    0    0    0    0 -0.00000000000E+00 -0.00000000000E+00 -0.56074423256E+03  0.56074423256E+03  0.00000000000E+00 0. -1.
         24    2    1    2    0    0 -0.59943680592E+02  0.31092548305E+02 -0.34522980438E+03  0.36166078023E+03  0.83993515948E+02 0.  0.
         25    2    1    2    0    0  0.64874414798E+02  0.18118425195E+02 -0.16727930473E+03  0.21946945602E+03  0.12509000484E+03 0.  0.
        -24    2    1    2    0    0 -0.49307342053E+01 -0.49210973500E+02  0.14650197032E+03  0.17435109008E+03  0.80557080723E+02 0.  0.
        -11    1    3    3    0    0 -0.20511133554E+02  0.46133857765E+02 -0.92044342033E+02  0.10498190478E+03  0.00000000000E+00 0.  1.
         12    1    3    3    0    0 -0.39432547038E+02 -0.15041309459E+02 -0.25318546234E+03  0.25667887544E+03  0.00000000000E+00 0. -1.
         13    1    5    5    0    0  0.11081890802E+02 -0.48338424838E+02  0.14995879806E+03  0.15794636031E+03  0.00000000000E+00 0. -1.
        -14    1    5    5    0    0 -0.16012625007E+02 -0.87254866198E+00 -0.34568277479E+01  0.16404729771E+02  0.00000000000E+00 0.  1.
          5    1    4    4  501    0  0.92922363184E+02  0.57595582072E+01 -0.16364714694E+03  0.18832312443E+03  0.41800000000E+01 0.  1.
         -5    1    4    4    0  501 -0.28047948387E+02  0.12358866988E+02 -0.36321577817E+01  0.31146331599E+02  0.41800000000E+01 0.  1.
</event>
<event>
11    1  0.8299058E-009  0.2323895E+03  0.7561462E-02  0.1033723E+00
         22   -1    0    0    0    0  0.00000000000E+00  0.00000000000E+00  0.25026753663E+04  0.25026753663E+04  0.00000000000E+00 0.  1.
         22   -1    0    0    0    0 -0.00000000000E+00 -0.00000000000E+00 -0.66823685606E+03  0.66823685606E+03  0.00000000000E+00 0.  1.
        -24    2    1    2    0    0 -0.13314328700E+03  0.14140368570E+03 -0.61842430577E+03  0.65364209791E+03  0.84126291961E+02 0.  0.
         25    2    1    2    0    0  0.17445372014E+03 -0.30799351461E+03  0.15764284968E+04  0.16205144076E+04  0.12508410765E+03 0.  0.
         24    2    1    2    0    0 -0.41310433142E+02  0.16658982891E+03  0.87643431915E+03  0.89675571685E+03  0.81086231556E+02 0.  0.
        -11    1    5    5    0    0  0.10240460707E+02  0.11692213731E+03  0.50179170326E+03  0.51533539243E+03  0.00000000000E+00 0.  1.
         12    1    5    5    0    0 -0.51550893849E+02  0.49667691593E+02  0.37464261589E+03  0.38142032443E+03  0.00000000000E+00 0. -1.
         13    1    3    3    0    0 -0.10516683847E+03  0.80856005118E+02 -0.29563306790E+03  0.32403189398E+03  0.00000000000E+00 0. -1.
        -14    1    3    3    0    0 -0.27976448526E+02  0.60547680586E+02 -0.32279123786E+03  0.32961020393E+03  0.00000000000E+00 0.  1.
          5    1    4    4  501    0  0.62567909493E+01 -0.14391411219E+01  0.22807755217E+01  0.79933032679E+01  0.41800000000E+01 0.  1.
         -5    1    4    4    0  501  0.16819692919E+03 -0.30655437349E+03  0.15741477213E+04  0.16125211043E+04  0.41800000000E+01 0.  1.
</event>
<event>
11    1  0.8299058E-009  0.1589405E+03  0.7561462E-02  0.1088078E+00
         22   -1    0    0    0    0  0.00000000000E+00  0.00000000000E+00  0.33211260668E+03  0.33211260668E+03  0.00000000000E+00 0. -1.
         22   -1    0    0    0    0 -0.00000000000E+00 -0.00000000000E+00 -0.66389353243E+03  0.66389353243E+03  0.00000000000E+00 0. -1.
        -24    2    1    2    0    0  0.84016155798E+02  0.51267075302E+02 -0.60924611860E+03  0.62234393424E+03  0.80275226655E+02 0.  0.
         25    2    1    2    0    0 -0.64813318374E+02 -0.64805650151E+02  0.11988399338E+03  0.19601046150E+03  0.12508953041E+03 0.  0.
         24    2    1    2    0    0 -0.19202837425E+02  0.13538574849E+02  0.15758119946E+03  0.17765174337E+03  0.78589220161E+02 0.  0.
        -13    1    5    5    0    0 -0.30949719309E+02 -0.25728222862E+02  0.65766754076E+02  0.77104426064E+02  0.00000000000E+00 0.  1.
         14    1    5    5    0    0  0.11746881885E+02  0.39266797711E+02  0.91814445381E+02  0.10054731730E+03  0.00000000000E+00 0. -1.
         13    1    3    3    0    0  0.76918179718E+02  0.16192676107E+02 -0.52442308753E+03  0.53028123092E+03  0.00000000000E+00 0. -1.
        -14    1    3    3    0    0  0.70979760803E+01  0.35074399196E+02 -0.84823031070E+02  0.92062703324E+02  0.00000000000E+00 0.  1.
          5    1    4    4  501    0 -0.65714181185E+01 -0.94916941405E+01  0.11476106317E+03  0.11541598595E+03  0.41800000000E+01 0.  1.
         -5    1    4    4    0  501 -0.58241900255E+02 -0.55313956011E+02  0.51229302163E+01  0.80594475548E+02  0.41800000000E+01 0.  1.
</event>
<event>
11    1  0.8299058E-009  0.3520648E+03  0.7561462E-02  0.9802847E-01
         22   -1    0    0    0    0  0.00000000000E+00  0.00000000000E+00  0.13609454160E+03  0.13609454160E+03  0.00000000000E+00 0.  1.
         22   -1    0    0    0    0 -0.00000000000E+00 -0.00000000000E+00 -0.11327757405E+04  0.11327757405E+04  0.00000000000E+00 0.  1.
         24    2    1    2    0    0 -0.13370720053E+03 -0.55370169440E+02 -0.39559221817E+03  0.42872475777E+03  0.79801276399E+02 0.  0.
         25    2    1    2    0    0 -0.13639665964E+03  0.20025199399E+02 -0.50813889645E+03  0.54116159665E+03  0.12508268560E+03 0.  0.
        -24    2    1    2    0    0  0.27010386017E+03  0.35344970041E+02 -0.92950084289E+02  0.29898392767E+03  0.80909261834E+02 0.  0.
        -11    1    3    3    0    0 -0.86094458518E+02  0.77584789074E+00 -0.15731208185E+03  0.17933195148E+03  0.00000000000E+00 0.  1.
         12    1    3    3    0    0 -0.47612742008E+02 -0.56146017331E+02 -0.23828013632E+03  0.24939280629E+03  0.00000000000E+00 0. -1.
         11    1    5    5    0    0  0.20863088893E+03 -0.81869357739E+01 -0.65791992482E+02  0.21891199147E+03  0.00000000000E+00 0. -1.
        -12    1    5    5    0    0  0.61472971237E+02  0.43531905814E+02 -0.27158091807E+02  0.80071936202E+02  0.00000000000E+00 0.  1.
          5    1    4    4  501    0 -0.10719367230E+03 -0.43625221865E+02 -0.30458847327E+03  0.32586078901E+03  0.41800000000E+01 0. -1.
         -5    1    4    4    0  501 -0.29202987341E+02  0.63650421264E+02 -0.20355042318E+03  0.21530080765E+03  0.41800000000E+01 0. -1.
</event>
<event>
11    1  0.8299058E-009  0.1440498E+03  0.7561462E-02  0.1103119E+00
         22   -1    0    0    0    0  0.00000000000E+00  0.00000000000E+00  0.20849452512E+03  0.20849452512E+03  0.00000000000E+00 0. -1.
         22   -1    0    0    0    0 -0.00000000000E+00 -0.00000000000E+00 -0.13681538107E+04  0.13681538107E+04  0.00000000000E+00 0. -1.
         24    2    1    2    0    0 -0.70533998392E+01 -0.73535429278E+02 -0.11949759987E+04  0.12001831175E+04  0.83753616193E+02 0.  0.
         25    2    1    2    0    0  0.36242070625E+02  0.40101650009E+02 -0.12925734487E+03  0.18782164497E+03  0.12509148292E+03 0.  0.
        -24    2    1    2    0    0 -0.29188670786E+02  0.33433779269E+02  0.16457405794E+03  0.18864357341E+03  0.80820672757E+02 0.  0.
        -11    1    3    3    0    0  0.33392406885E+02 -0.57958712542E+02 -0.62775282954E+03  0.63130648673E+03  0.00000000000E+00 0.  1.
         12    1    3    3    0    0 -0.40445806724E+02 -0.15576716735E+02 -0.56722316915E+03  0.56887663074E+03  0.00000000000E+00 0. -1.
         13    1    5    5    0    0  0.17403310094E+02  0.39581296855E+02  0.98387164965E+02  0.10746901178E+03  0.00000000000E+00 0. -1.
        -14    1    5    5    0    0 -0.46591980880E+02 -0.61475175858E+01  0.66186892975E+02  0.81174561634E+02  0.00000000000E+00 0.  1.
          5    1    4    4  501    0  0.58524650441E+02  0.23967681441E+02 -0.85569522212E+01  0.63955283552E+02  0.41800000000E+01 0. -1.
         -5    1    4    4    0  501 -0.22282579816E+02  0.16133968568E+02 -0.12070039265E+03  0.12386636142E+03  0.41800000000E+01 0. -1.
</event>
<event>
11    1  0.8299058E-009  0.1428259E+03  0.7561462E-02  0.1104443E+00
         22   -1    0    0    0    0  0.00000000000E+00  0.00000000000E+00  0.10354194648E+03  0.10354194648E+03  0.00000000000E+00 0.  1.
         22   -1    0    0    0    0 -0.00000000000E+00 -0.00000000000E+00 -0.20140785917E+04  0.20140785917E+04  0.00000000000E+00 0. -1.
        -24    2    1    2    0    0  0.38320558659E+02 -0.53184125971E+02 -0.16884755585E+04  0.16916543391E+04  0.80297414325E+02 0.  0.
         25    2    1    2    0    0 -0.67265225571E+02  0.10883781509E+03 -0.26253996415E+03  0.31771807528E+03  0.12508901639E+03 0.  0.
         24    2    1    2    0    0  0.28944666912E+02 -0.55653689116E+02  0.40478877472E+02  0.10824812380E+03  0.78383607529E+02 0.  0.
        -13    1    5    5    0    0  0.42714972616E+02 -0.42007359157E+02  0.57062303984E+02  0.82736289770E+02  0.00000000000E+00 0.  1.
         14    1    5    5    0    0 -0.13770305704E+02 -0.13646329958E+02 -0.16583426512E+02  0.25511834026E+02  0.00000000000E+00 0. -1.
         11    1    3    3    0    0  0.53398274963E+02 -0.27699171208E+02 -0.65548897216E+03  0.65824342950E+03  0.00000000000E+00 0. -1.
        -12    1    3    3    0    0 -0.15077716304E+02 -0.25484954763E+02 -0.10329865864E+04  0.10334109096E+04  0.00000000000E+00 0.  1.
          5    1    4    4  501    0  0.99163333728E+01 -0.22080800169E+02 -0.21015588890E+02  0.32326812093E+02  0.41800000000E+01 0. -1.
         -5    1    4    4    0  501 -0.77181558943E+02  0.13091861526E+03 -0.24152437526E+03  0.28539126319E+03  0.41800000000E+01 0. -1.
</event>
<event>
11    1  0.8299058E-009  0.1434334E+03  0.7561462E-02  0.1103784E+00
         22   -1    0    0    0    0  0.00000000000E+00  0.00000000000E+00  0.30883148290E+03  0.30883148290E+03  0.00000000000E+00 0. -1.
         22   -1    0    0    0    0 -0.00000000000E+00 -0.00000000000E+00 -0.65345036903E+03  0.65345036903E+03  0.00000000000E+00 0.  1.
         24    2    1    2    0    0 -0.36517660331E+02 -0.51355873174E+02 -0.51190485624E+03  0.52265103100E+03  0.84537288444E+02 0.  0.
         25    2    1    2    0    0 -0.35887252084E+02  0.57712755888E+02 -0.84317902430E+02  0.16545484687E+03  0.12508853117E+03 0.  0.
        -24    2    1    2    0    0  0.72404912415E+02 -0.63568827144E+01  0.25160387254E+03  0.27417597406E+03  0.81148473654E+02 0.  0.
        -13    1    3    3    0    0 -0.53968222434E+02 -0.43508767042E+02 -0.23308023103E+03  0.24317067244E+03  0.00000000000E+00 0.  1.
         14    1    3    3    0    0  0.17450562102E+02 -0.78471061323E+01 -0.27882462521E+03  0.27948035855E+03  0.00000000000E+00 0. -1.
         11    1    5    5    0    0  0.67532529729E+01 -0.34411304253E+02  0.11221436857E+03  0.11756618902E+03  0.00000000000E+00 0. -1.
        -12    1    5    5    0    0  0.65651659442E+02  0.28054421538E+02  0.13938950397E+03  0.15660978504E+03  0.00000000000E+00 0.  1.
          5    1    4    4  501    0  0.37814281661E+01 -0.70155331832E+00 -0.93902704712E+02  0.94074341498E+02  0.41800000000E+01 0.  1.
         -5    1    4    4    0  501 -0.39668680250E+02  0.58414309207E+02  0.95848022814E+01  0.71380505375E+02  0.41800000000E+01 0.  1.
</event>
<event>
11    1  0.8299058E-009  0.1341490E+03  0.7561462E-02  0.1114274E+00
         22   -1    0    0    0    0  0.00000000000E+00  0.00000000000E+00  0.76133211775E+03  0.76133211775E+03  0.00000000000E+00 0.  1.
         22   -1    0    0    0    0 -0.00000000000E+00 -0.00000000000E+00 -0.23835429651E+03  0.23835429651E+03  0.00000000000E+00 0. -1.
         24    2    1    2    0    0 -0.32947470085E+01  0.35240696282E+02 -0.20431402343E+03  0.22462748530E+03  0.86374330397E+02 0.  0.
         25    2    1    2    0    0 -0.33871077021E+02  0.29482763978E+01  0.19529148756E+03  0.23439755019E+03  0.12508998453E+03 0.  0.
        -24    2    1    2    0    0  0.37165824030E+02 -0.38188972680E+02  0.53200035711E+03  0.54066137876E+03  0.80315941194E+02 0.  0.
        -11    1    3    3    0    0  0.36841003999E+02  0.13394570883E+02 -0.49113510338E+02  0.62839565582E+02  0.00000000000E+00 0.  1.
         12    1    3    3    0    0 -0.40135751008E+02  0.21846125399E+02 -0.15520051309E+03  0.16178791972E+03  0.00000000000E+00 0. -1.
         13    1    5    5    0    0  0.35800465914E+02  0.17082189766E+02  0.17772914308E+03  0.18210195734E+03  0.00000000000E+00 0. -1.
        -14    1    5    5    0    0  0.13653581157E+01 -0.55271162446E+02  0.35427121403E+03  0.35855942143E+03  0.00000000000E+00 0.  1.
          5    1    4    4  501    0 -0.43763996287E+02  0.45578453116E+02  0.17475558812E+03  0.18587541726E+03  0.41800000000E+01 0.  1.
         -5    1    4    4    0  501  0.98929192659E+01 -0.42630176718E+02  0.20535899432E+02  0.48522132931E+02  0.41800000000E+01 0.  1.
</event>
<event>
11    1  0.8299058E-009  0.1961286E+03  0.7561462E-02  0.1057296E+00
         22   -1    0    0    0    0  0.00000000000E+00  0.00000000000E+00  0.92728228763E+02  0.92728228763E+02  0.00000000000E+00 0.  1.
         22   -1    0    0    0    0 -0.00000000000E+00 -0.00000000000E+00 -0.15105569992E+04  0.15105569992E+04  0.00000000000E+00 0. -1.
        -24    2    1    2    0    0 -0.65707222408E+02 -0.12323709068E+03 -0.92516362672E+03  0.94051315398E+03  0.95563785007E+02 0.  0.
         25    2    1    2    0    0  0.53675793855E+02  0.18196658444E+03 -0.51216154878E+03  0.56030037386E+03  0.12503650748E+03 0.  0.
         24    2    1    2    0    0  0.12031428552E+02 -0.58729493758E+02  0.19496405027E+02  0.10247170016E+03  0.80786328142E+02 0.  0.
        -11    1    5    5    0    0 -0.86938787173E+01 -0.71821756504E+02  0.26386274696E+02  0.77007686154E+02  0.00000000000E+00 0.  1.
         12    1    5    5    0    0  0.20725307270E+02  0.13092262746E+02 -0.68898696691E+01  0.25464014006E+02  0.00000000000E+00 0. -1.
         13    1    3    3    0    0 -0.84122902287E+02 -0.89834931904E+02 -0.80740963716E+03  0.81673575890E+03  0.00000000000E+00 0. -1.
        -14    1    3    3    0    0  0.18415679879E+02 -0.33402158776E+02 -0.11775398956E+03  0.12377739509E+03  0.00000000000E+00 0.  1.
          5    1    4    4  501    0  0.60443473877E+02  0.31928365327E+02 -0.96623075737E+02  0.11843278774E+03  0.41800000000E+01 0.  1.
         -5    1    4    4    0  501 -0.67676800215E+01  0.15003821911E+03 -0.41553847304E+03  0.44186758612E+03  0.41800000000E+01 0.  1.
</event>
<event>
11    1  0.8299058E-009  0.1509967E+03  0.7561462E-02  0.1095865E+00
         22   -1    0    0    0    0  0.00000000000E+00  0.00000000000E+00  0.55923016235E+02  0.55923016235E+02  0.00000000000E+00 0. -1.
         22   -1    0    0    0    0 -0.00000000000E+00 -0.00000000000E+00 -0.27932457322E+04  0.27932457322E+04  0.00000000000E+00 0.  1.
        -24    2    1    2    0    0 -0.47748730496E+02  0.44799937401E+02 -0.17747560076E+04  0.17777928735E+04  0.80632741111E+02 0.  0.
         25    2    1    2    0    0 -0.36967801812E+02 -0.64868953051E+02 -0.93868452795E+03  0.94992173772E+03  0.12509222733E+03 0.  0.
         24    2    1    2    0    0  0.84716532308E+02  0.20069015650E+02 -0.23882180339E+02  0.12145413713E+03  0.81247108578E+02 0.  0.
        -11    1    5    5    0    0  0.55850940632E+02  0.16822127521E+02 -0.54088002266E+02  0.79547618022E+02  0.00000000000E+00 0.  1.
         12    1    5    5    0    0  0.28865591676E+02  0.32468881289E+01  0.30205821927E+02  0.41906519106E+02  0.00000000000E+00 0. -1.
         13    1    3    3    0    0 -0.52308153370E+02  0.60748583449E+02 -0.11376560210E+04  0.11404769859E+04  0.00000000000E+00 0. -1.
        -14    1    3    3    0    0  0.45594228742E+01 -0.15948646048E+02 -0.63709998662E+03  0.63731588761E+03  0.00000000000E+00 0.  1.
          5    1    4    4  501    0 -0.40381584711E+02 -0.16297968163E+02 -0.82524054661E+03  0.82639925479E+03  0.41800000000E+01 0.  1.
         -5    1    4    4    0  501  0.34137828993E+01 -0.48570984888E+02 -0.11344398134E+03  0.12352248293E+03  0.41800000000E+01 0.  1.
</event>
<event>
11    1  0.8299058E-009  0.2046259E+03  0.7561462E-02  0.1051300E+00
         22   -1    0    0    0    0  0.00000000000E+00  0.00000000000E+00  0.27767115263E+03  0.27767115263E+03  0.00000000000E+00 0.  1.
         22   -1    0    0    0    0 -0.00000000000E+00 -0.00000000000E+00 -0.21122280177E+04  0.21122280177E+04  0.00000000000E+00 0. -1.
         24    2    1    2    0    0  0.50436584838E+02  0.15003085319E+03 -0.18355659082E+04  0.18437606812E+04  0.71401261884E+02 0.  0.
         25    2    1    2    0    0 -0.49732253058E+02 -0.21063956207E+03 -0.20009726098E+03  0.32019966944E+03  0.12508633962E+03 0.  0.
        -24    2    1    2    0    0 -0.70433178035E+00  0.60608708879E+02  0.20110630407E+03  0.22593881973E+03  0.83250784080E+02 0.  0.
        -11    1    3    3    0    0 -0.12524370367E+02  0.21833922760E+01 -0.11171141199E+03  0.11243249808E+03  0.00000000000E+00 0.  1.
         12    1    3    3    0    0  0.62960955205E+02  0.14784746091E+03 -0.17238544962E+04  0.17313281831E+04  0.00000000000E+00 0. -1.
         11    1    5    5    0    0 -0.95080870057E+01  0.23140536585E+02  0.42757520877E+01  0.25380508424E+02  0.00000000000E+00 0. -1.
        -12    1    5    5    0    0  0.88037552253E+01  0.37468172294E+02  0.19683055198E+03  0.20055831131E+03  0.00000000000E+00 0.  1.
          5    1    4    4  501    0 -0.72924716881E+02 -0.20032998541E+03 -0.20288109326E+03  0.29432690632E+03  0.41800000000E+01 0. -1.
         -5    1    4    4    0  501  0.23192463824E+02 -0.10309576660E+02  0.27838322827E+01  0.25872763117E+02  0.41800000000E+01 0. -1.
</event>
<event>
11    1  0.8299058E-009  0.1509838E+03  0.7561462E-02  0.1095878E+00
         22   -1    0    0    0    0  0.00000000000E+00  0.00000000000E+00  0.26361822196E+03  0.26361822196E+03  0.00000000000E+00 0.  1.
         22   -1    0    0    0    0 -0.00000000000E+00 -0.00000000000E+00 -0.65763063168E+03  0.65763063168E+03  0.00000000000E+00 0. -1.
         24    2    1    2    0    0  0.51678385923E+02  0.59745589829E+02 -0.45678941520E+03  0.47021823836E+03  0.78793596027E+02 0.  0.
         25    2    1    2    0    0 -0.11500137175E+03 -0.58665110126E+02 -0.13672257233E+03  0.22584732694E+03  0.12508813952E+03 0.  0.
        -24    2    1    2    0    0  0.63322985832E+02 -0.10804797031E+01  0.19949957782E+03  0.22518328834E+03  0.83044950649E+02 0.  0.
        -13    1    3    3    0    0  0.84592494861E+01  0.15650997514E+02 -0.12703696235E+02  0.21860844519E+02  0.00000000000E+00 0.  1.
         14    1    3    3    0    0  0.43219136437E+02  0.44094592315E+02 -0.44408571896E+03  0.44835739384E+03  0.00000000000E+00 0. -1.
         11    1    5    5    0    0 -0.14832862145E+02  0.10081723617E+02  0.79813749035E+02  0.81803969864E+02  0.00000000000E+00 0. -1.
        -12    1    5    5    0    0  0.78155847977E+02 -0.11162203320E+02  0.11968582878E+03  0.14337931848E+03  0.00000000000E+00 0.  1.
          5    1    4    4  501    0 -0.65642503671E+02  0.30016652057E+01  0.23152334169E+01  0.65884603573E+02  0.41800000000E+01 0.  1.
         -5    1    4    4    0  501 -0.49358868084E+02 -0.61666775332E+02 -0.13903780575E+03  0.15996272337E+03  0.41800000000E+01 0.  1.
</event>
<event>
11    1  0.8299058E-009  0.1840674E+03  0.7561462E-02  0.1066399E+00
         22   -1    0    0    0    0  0.00000000000E+00  0.00000000000E+00  0.27148404461E+03  0.27148404461E+03  0.00000000000E+00 0.  1.
         22   -1    0    0    0    0 -0.00000000000E+00 -0.00000000000E+00 -0.29309301908E+03  0.29309301908E+03  0.00000000000E+00 0. -1.
         24    2    1    2    0    0  0.52465055071E+02  0.11722699505E+03 -0.10511660816E+03  0.18449003835E+03  0.80574950007E+02 0.  0.
         25    2    1    2    0    0 -0.60484171359E+02 -0.13311250207E+03 -0.70732722615E+02  0.20500346317E+03  0.12508408640E+03 0.  0.
        -24    2    1    2    0    0  0.80191162878E+01  0.15885507028E+02  0.15424035632E+03  0.17508356216E+03  0.80916689652E+02 0.  0.
        -13    1    3    3    0    0 -0.55427725091E+01  0.82261352780E+02 -0.45006119989E+02  0.93931907916E+02  0.00000000000E+00 0.  1.
         14    1    3    3    0    0  0.58007827580E+02  0.34965642265E+02 -0.60110488175E+02  0.90558130437E+02  0.00000000000E+00 0. -1.
         13    1    5    5    0    0  0.35203898729E+01 -0.11986940743E+02  0.14476457524E+03  0.14530265702E+03  0.00000000000E+00 0. -1.
        -14    1    5    5    0    0  0.44987264149E+01  0.27872447771E+02  0.94757810756E+01  0.29780905143E+02  0.00000000000E+00 0.  1.
          5    1    4    4  501    0  0.38185315279E+02 -0.49187580598E+02 -0.16829366105E+02  0.64639278705E+02  0.41800000000E+01 0.  1.
         -5    1    4    4    0  501 -0.98669486638E+02 -0.83924921475E+02 -0.53903356510E+02  0.14036418447E+03  0.41800000000E+01 0.  1.
</event>
<event>
11    1  0.8299058E-009  0.1409311E+03  0.7561462E-02  0.1106523E+00
         22   -1    0    0    0    0  0.00000000000E+00  0.00000000000E+00  0.52638574697E+03  0.52638574697E+03  0.00000000000E+00 0. -1.
         22   -1    0    0    0    0 -0.00000000000E+00 -0.00000000000E+00 -0.13334416664E+04  0.13334416664E+04  0.00000000000E+00 0.  1.
         24    2    1    2    0    0  0.12350125595E+02  0.17125024230E+02 -0.97034296596E+03  0.97393541081E+03  0.80863593783E+02 0.  0.
         25    2    1    2    0    0  0.21948273200E+02 -0.72084135447E+02 -0.34057674924E+03  0.37056515668E+03  0.12509262145E+03 0.  0.
        -24    2    1    2    0    0 -0.34298398795E+02  0.54959111217E+02  0.50386379578E+03  0.51532684587E+03  0.86522536453E+02 0.  0.
        -13    1    3    3    0    0 -0.26326558898E+01 -0.14226810504E+02 -0.79765312731E+03  0.79778433460E+03  0.00000000000E+00 0.  1.
         14    1    3    3    0    0  0.14982781485E+02  0.31351834734E+02 -0.17268983864E+03  0.17615107622E+03  0.00000000000E+00 0. -1.
         13    1    5    5    0    0 -0.41815707910E+02  0.57473958128E+02  0.50222868877E+03  0.50723314670E+03  0.00000000000E+00 0. -1.
        -14    1    5    5    0    0  0.75173091150E+01 -0.25148469103E+01  0.16351070091E+01  0.80936991693E+01  0.00000000000E+00 0.  1.
          5    1    4    4  501    0 -0.88078806899E+01 -0.94870501406E+02 -0.16290055540E+03  0.18876454686E+03  0.41800000000E+01 0.  1.
         -5    1    4    4    0  501  0.30756153890E+02  0.22786365958E+02 -0.17767619384E+03  0.18180060982E+03  0.41800000000E+01 0.  1.
</event>
<event>
11    1  0.8299058E-009  0.1548709E+03  0.7561462E-02  0.1092003E+00
         22   -1    0    0    0    0  0.00000000000E+00  0.00000000000E+00  0.64040870877E+03  0.64040870877E+03  0.00000000000E+00 0.  1.
         22   -1    0    0    0    0 -0.00000000000E+00 -0.00000000000E+00 -0.10550350528E+04  0.10550350528E+04  0.00000000000E+00 0. -1.
         24    2    1    2    0    0  0.42691486508E+01  0.53380780761E+02 -0.10220241957E+04  0.10270837929E+04  0.86602123504E+02 0.  0.
         25    2    1    2    0    0 -0.93525413431E+02 -0.38941548036E+02  0.34206389713E+03  0.37804610247E+03  0.12509076206E+03 0.  0.
        -24    2    1    2    0    0  0.89256264781E+02 -0.14439232725E+02  0.26533395451E+03  0.29031386616E+03  0.75530531745E+02 0.  0.
        -13    1    3    3    0    0  0.14838026210E+02  0.73907525472E+00 -0.28769711911E+02  0.32379153440E+02  0.00000000000E+00 0.  1.
         14    1    3    3    0    0 -0.10568877559E+02  0.52641705506E+02 -0.99325448375E+03  0.99470463949E+03  0.00000000000E+00 0. -1.
         13    1    5    5    0    0  0.15603473040E+02  0.16081289385E+02  0.13992829748E+03  0.14171098996E+03  0.00000000000E+00 0. -1.
        -14    1    5    5    0    0  0.73652791741E+02 -0.30520522109E+02  0.12540565703E+03  0.14860287621E+03  0.00000000000E+00 0.  1.
          5    1    4    4  501    0 -0.59038987561E+02 -0.83376084564E+02  0.24968858630E+03  0.26981296496E+03  0.41800000000E+01 0.  1.
         -5    1    4    4    0  501 -0.34486425871E+02  0.44434536528E+02  0.92375310830E+02  0.10823313752E+03  0.41800000000E+01 0.  1.
</event>
<event>
11    1  0.8299058E-009  0.1664348E+03  0.7561462E-02  0.1081177E+00
         22   -1    0    0    0    0  0.00000000000E+00  0.00000000000E+00  0.66328165731E+03  0.66328165731E+03  0.00000000000E+00 0.  1.
         22   -1    0    0    0    0 -0.00000000000E+00 -0.00000000000E+00 -0.95893549355E+02  0.95893549355E+02  0.00000000000E+00 0.  1.
         24    2    1    2    0    0 -0.27511369049E+01 -0.10542162196E+03 -0.16386303860E+00  0.12957695568E+03  0.75291921609E+02 0.  0.
         25    2    1    2    0    0  0.18919768149E+02  0.13628102602E+03  0.38358373257E+03  0.42627977075E+03  0.12508991717E+03 0.  0.
        -24    2    1    2    0    0 -0.16168631244E+02 -0.30859404055E+02  0.18396823842E+03  0.20331848023E+03  0.79248748903E+02 0.  0.
        -13    1    3    3    0    0 -0.14096179217E+02 -0.11301818773E+03  0.70934295096E+01  0.11411454670E+03  0.00000000000E+00 0.  1.
         14    1    3    3    0    0  0.11345042312E+02  0.75965657606E+01 -0.72572925482E+01  0.15462408982E+02  0.00000000000E+00 0. -1.
         13    1    5    5    0    0  0.11600514929E+02 -0.42365496280E+01 -0.27718068512E+01  0.12657140774E+02  0.00000000000E+00 0. -1.
        -14    1    5    5    0    0 -0.27769146173E+02 -0.26622854427E+02  0.18674004527E+03  0.19066133946E+03  0.00000000000E+00 0.  1.
          5    1    4    4  501    0 -0.35743314595E+02 -0.19458209171E+01  0.95663075536E+02  0.10222654831E+03  0.41800000000E+01 0. -1.
         -5    1    4    4    0  501  0.54663082744E+02  0.13822684694E+03  0.28792065704E+03  0.32405322245E+03  0.41800000000E+01 0. -1.
</event>
<event>
11    1  0.8299058E-009  0.1744594E+03  0.7561462E-02  0.1074215E+00
         22   -1    0    0    0    0  0.00000000000E+00  0.00000000000E+00  0.96977536549E+02  0.96977536549E+02  0.00000000000E+00 0.  1.
         22   -1    0    0    0    0 -0.00000000000E+00 -0.00000000000E+00 -0.12559438505E+04  0.12559438505E+04  0.00000000000E+00 0. -1.
         24    2    1    2    0    0 -0.10287582343E+03 -0.66875371219E+02 -0.87993602948E+03  0.89246179077E+03  0.84527401976E+02 0.  0.
         25    2    1    2    0    0  0.37152280419E+02  0.14333030054E+03 -0.26887361179E+03  0.33145786935E+03  0.12508969999E+03 0.  0.
        -24    2    1    2    0    0  0.65723543014E+02 -0.76454929319E+02 -0.10156672680E+02  0.12900172693E+03  0.79833246379E+02 0.  0.
        -13    1    3    3    0    0 -0.95602849704E+01  0.13006469254E+02 -0.25839614502E+03  0.25889985526E+03  0.00000000000E+00 0.  1.
         14    1    3    3    0    0 -0.93315538462E+02 -0.79881840472E+02 -0.62153988446E+03  0.63356193551E+03  0.00000000000E+00 0. -1.
         13    1    5    5    0    0  0.21383230670E+02  0.13413046846E+02  0.93343004512E+01  0.26912479345E+02  0.00000000000E+00 0. -1.
        -14    1    5    5    0    0  0.44340312344E+02 -0.89867976165E+02 -0.19490973131E+02  0.10208924758E+03  0.00000000000E+00 0.  1.
          5    1    4    4  501    0  0.45187279458E+02  0.14490041025E+03 -0.27908606032E+03  0.31771767433E+03  0.41800000000E+01 0.  1.
         -5    1    4    4    0  501 -0.80349990392E+01 -0.15701097125E+01  0.10212448533E+02  0.13740195017E+02  0.41800000000E+01 0.  1.
</event>
<event>
11    1  0.8299058E-009  0.1259273E+03  0.7561462E-02  0.1124377E+00
         22   -1    0    0    0    0  0.00000000000E+00  0.00000000000E+00  0.13701655087E+04  0.13701655087E+04  0.00000000000E+00 0.  1.
         22   -1    0    0    0    0 -0.00000000000E+00 -0.00000000000E+00 -0.52994633272E+02  0.52994633272E+02  0.00000000000E+00 0.  1.
         24    2    1    2    0    0 -0.16199559852E+02  0.15842113492E+02  0.10117863867E+03  0.14140965660E+03  0.96157036965E+02 0.  0.
         25    2    1    2    0    0 -0.85849708234E+00 -0.84141228099E+01  0.94076291229E+02  0.15674793946E+03  0.12509209997E+03 0.  0.
        -24    2    1    2    0    0  0.17058056935E+02 -0.74279906824E+01  0.11219159455E+04  0.11250025459E+04  0.81173808028E+02 0.  0.
        -11    1    3    3    0    0 -0.81935744812E+01  0.36351062059E+02 -0.60921488912E+00  0.37268022733E+02  0.00000000000E+00 0.  1.
         12    1    3    3    0    0 -0.80059853712E+01 -0.20508948567E+02  0.10178785356E+03  0.10414163387E+03  0.00000000000E+00 0. -1.
         13    1    5    5    0    0 -0.15169822448E+02  0.95944428086E+01  0.64286229997E+02  0.66745008900E+02  0.00000000000E+00 0. -1.
        -14    1    5    5    0    0  0.32227879383E+02 -0.17022433491E+02  0.10576297155E+04  0.10582575370E+04  0.00000000000E+00 0.  1.
          5    1    4    4  501    0 -0.56275817095E+02 -0.29986658260E+02  0.35182977437E+02  0.72948485691E+02  0.41800000000E+01 0.  1.
         -5    1    4    4    0  501  0.55417320013E+02  0.21572535450E+02  0.58893313793E+02  0.83799453773E+02  0.41800000000E+01 0.  1.
</event>
<event>
11    1  0.8299058E-009  0.1680616E+03  0.7561462E-02  0.1079731E+00
         22   -1    0    0    0    0  0.00000000000E+00  0.00000000000E+00  0.56766808170E+03  0.56766808170E+03  0.00000000000E+00 0. -1.
         22   -1    0    0    0    0 -0.00000000000E+00 -0.00000000000E+00 -0.10916587951E+03  0.10916587951E+03  0.00000000000E+00 0.  1.
         24    2    1    2    0    0  0.11909965768E+03  0.88018022454E+02  0.75064177120E+02  0.18367691740E+03  0.78553666769E+02 0.  0.
         25    2    1    2    0    0 -0.15533900328E+02 -0.86861000293E+02  0.10502704818E+03  0.18564529015E+03  0.12508939793E+03 0.  0.
        -24    2    1    2    0    0 -0.10356575735E+03 -0.11570221613E+01  0.27841097689E+03  0.30751175365E+03  0.79521077628E+02 0.  0.
        -13    1    3    3    0    0  0.69309186739E+02  0.64392461863E+02  0.85581584150E+02  0.12757100006E+03  0.00000000000E+00 0.  1.
         14    1    3    3    0    0  0.49790470939E+02  0.23625560591E+02 -0.10517407031E+02  0.56105917337E+02  0.00000000000E+00 0. -1.
         11    1    5    5    0    0  0.90736407370E+01 -0.30488670852E+01  0.69551533317E+02  0.70207138764E+02  0.00000000000E+00 0. -1.
        -12    1    5    5    0    0 -0.11263939809E+03  0.18918449239E+01  0.20885944357E+03  0.23730461489E+03  0.00000000000E+00 0.  1.
          5    1    4    4  501    0  0.10231236316E+01 -0.11677413675E+03  0.92356879077E+02  0.14894465854E+03  0.41800000000E+01 0.  1.
         -5    1    4    4    0  501 -0.16557023960E+02  0.29913136458E+02  0.12670169103E+02  0.36700631606E+02  0.41800000000E+01 0.  1.
</event>
<event>
11    1  0.8299058E-009  0.1662033E+03  0.7561462E-02  0.1081384E+00
         22   -1    0    0    0    0  0.00000000000E+00  0.00000000000E+00  0.31127772425E+04  0.31127772425E+04  0.00000000000E+00 0.  1.
         22   -1    0    0    0    0 -0.00000000000E+00 -0.00000000000E+00 -0.10891651156E+04  0.10891651156E+04  0.00000000000E+00 0. -1.
        -24    2    1    2    0    0 -0.57095757025E+02 -0.92989856890E+02 -0.10520538379E+04  0.10602713554E+04  0.73831091814E+02 0.  0.
         25    2    1    2    0    0  0.26366178222E+02  0.13770095450E+03  0.24230074940E+03  0.30661270807E+03  0.12507985996E+03 0.  0.
         24    2    1    2    0    0  0.30729578803E+02 -0.44711097613E+02  0.28333652155E+04  0.28350582947E+04  0.81570219866E+02 0.  0.
        -13    1    5    5    0    0  0.28317666094E+02 -0.26302993251E+02  0.27125169587E+04  0.27127922863E+04  0.00000000000E+00 0.  1.
         14    1    5    5    0    0  0.24119127090E+01 -0.18408104362E+02  0.12084825679E+03  0.12226600836E+03  0.00000000000E+00 0. -1.
         11    1    3    3    0    0 -0.47268300597E+02 -0.50089703894E+02 -0.87952681310E+03  0.88221918232E+03  0.00000000000E+00 0. -1.
        -12    1    3    3    0    0 -0.98274564289E+01 -0.42900152996E+02 -0.17252702483E+03  0.17805217304E+03  0.00000000000E+00 0.  1.
          5    1    4    4  501    0  0.36495986679E+02  0.15687573908E+03  0.23144430498E+03  0.28200335683E+03  0.41800000000E+01 0.  1.
         -5    1    4    4    0  501 -0.10129808456E+02 -0.19174784580E+02  0.10856444412E+02  0.24609351237E+02  0.41800000000E+01 0.  1.
</event>
<event>
11    1  0.8299058E-009  0.1291409E+03  0.7561462E-02  0.1120329E+00
         22   -1    0    0    0    0  0.00000000000E+00  0.00000000000E+00  0.36573711147E+03  0.36573711147E+03  0.00000000000E+00 0. -1.
         22   -1    0    0    0    0 -0.00000000000E+00 -0.00000000000E+00 -0.27841708147E+03  0.27841708147E+03  0.00000000000E+00 0. -1.
         24    2    1    2    0    0 -0.30506524402E+01 -0.35930855174E+02 -0.17400143769E+03  0.19493415064E+03  0.80140438836E+02 0.  0.
         25    2    1    2    0    0 -0.15369755389E+02  0.15642883716E+02 -0.42752700214E+02  0.13398756657E+03  0.12507575875E+03 0.  0.
        -24    2    1    2    0    0  0.18420407829E+02  0.20287971458E+02  0.30407416790E+03  0.31523247572E+03  0.78482488235E+02 0.  0.
        -13    1    3    3    0    0  0.20703537578E+02 -0.16779733971E+02 -0.10554415832E+02  0.28663419788E+02  0.00000000000E+00 0.  1.
         14    1    3    3    0    0 -0.23754190018E+02 -0.19151121203E+02 -0.16344702185E+03  0.16627073086E+03  0.00000000000E+00 0. -1.
         13    1    5    5    0    0  0.21751134172E+02  0.39435695889E+02  0.28301353063E+03  0.28657450073E+03  0.00000000000E+00 0. -1.
        -14    1    5    5    0    0 -0.33307263426E+01 -0.19147724431E+02  0.21060637265E+02  0.28657974996E+02  0.00000000000E+00 0.  1.
          5    1    4    4  501    0 -0.25376641043E+02 -0.39583968141E+02 -0.58855809905E+02  0.75447618942E+02  0.41800000000E+01 0.  1.
         -5    1    4    4    0  501  0.10006885653E+02  0.55226851857E+02  0.16103109692E+02  0.58539947628E+02  0.41800000000E+01 0.  1.
</event>
<event>
11    1  0.8299058E-009  0.2104474E+03  0.7561462E-02  0.1047372E+00
         22   -1    0    0    0    0  0.00000000000E+00  0.00000000000E+00  0.17889526365E+03  0.17889526365E+03  0.00000000000E+00 0.  1.
         22   -1    0    0    0    0 -0.00000000000E+00 -0.00000000000E+00 -0.75450157137E+03  0.75450157137E+03  0.00000000000E+00 0. -1.
         24    2    1    2    0    0  0.38978868628E+01  0.19715647833E+02 -0.25118666534E+03  0.26498347857E+03  0.81960983258E+02 0.  0.
         25    2    1    2    0    0 -0.16819105141E+03  0.21305856384E+02 -0.41094681566E+03  0.46180880129E+03  0.12509162388E+03 0.  0.
        -24    2    1    2    0    0  0.16429316454E+03 -0.41021504216E+02  0.86527173282E+02  0.20660455516E+03  0.80768080159E+02 0.  0.
        -13    1    3    3    0    0 -0.37343777144E+02  0.21456680181E+02 -0.12410296031E+03  0.13136396604E+03  0.00000000000E+00 0.  1.
         14    1    3    3    0    0  0.41241664007E+02 -0.17410323486E+01 -0.12708370503E+03  0.13361951253E+03  0.00000000000E+00 0. -1.
         13    1    5    5    0    0  0.13695449905E+03  0.13622512326E+01  0.67584271491E+02  0.15272859684E+03  0.00000000000E+00 0. -1.
        -14    1    5    5    0    0  0.27338665490E+02 -0.42383755449E+02  0.18942901791E+02  0.53875958321E+02  0.00000000000E+00 0.  1.
          5    1    4    4  501    0 -0.56812695249E+02 -0.17292883111E+02 -0.27702656464E+03  0.28335122386E+03  0.41800000000E+01 0. -1.
         -5    1    4    4    0  501 -0.11137835616E+03  0.38598739495E+02 -0.13392025102E+03  0.17845757743E+03  0.41800000000E+01 0. -1.
</event>
<event>
11    1  0.8299058E-009  0.1441176E+03  0.7561462E-02  0.1103046E+00
         22   -1    0    0    0    0  0.00000000000E+00  0.00000000000E+00  0.19458962346E+04  0.19458962346E+04  0.00000000000E+00 0.  1.
         22   -1    0    0    0    0 -0.00000000000E+00 -0.00000000000E+00 -0.14031310768E+03  0.14031310768E+03  0.00000000000E+00 0. -1.
         24    2    1    2    0    0  0.16144299530E+02  0.67475188186E+01 -0.14833818217E+02  0.84844592482E+02  0.81684731088E+02 0.  0.
         25    2    1    2    0    0 -0.86275568835E+02 -0.19459015559E+02 -0.22915467251E+02  0.15490299990E+03  0.12509074176E+03 0.  0.
        -24    2    1    2    0    0  0.70131269305E+02  0.12711496740E+02  0.18433324124E+04  0.18464617499E+04  0.80415385595E+02 0.  0.
        -13    1    3    3    0    0 -0.32005858158E+02  0.85919286593E+01  0.34253561102E+01  0.33315600835E+02  0.00000000000E+00 0.  1.
         14    1    3    3    0    0  0.48150157688E+02 -0.18444098407E+01 -0.18259174327E+02  0.51528991647E+02  0.00000000000E+00 0. -1.
         13    1    5    5    0    0  0.53920300171E+02  0.10380042684E+02  0.49606735036E+03  0.49909714500E+03  0.00000000000E+00 0. -1.
        -14    1    5    5    0    0  0.16210969133E+02  0.23314540560E+01  0.13472650620E+04  0.13473646049E+04  0.00000000000E+00 0.  1.
          5    1    4    4  501    0  0.28684211459E+02  0.12011706820E+02  0.65509685215E+01  0.32053902670E+02  0.41800000000E+01 0.  1.
         -5    1    4    4    0  501 -0.11495978029E+03 -0.31470722379E+02 -0.29466435772E+02  0.12284909723E+03  0.41800000000E+01 0.  1.
</event>
<event>
11    1  0.8299058E-009  0.1296653E+03  0.7561462E-02  0.1119681E+00
         22   -1    0    0    0    0  0.00000000000E+00  0.00000000000E+00  0.76787355750E+03  0.76787355750E+03  0.00000000000E+00 0. -1.
         22   -1    0    0    0    0 -0.00000000000E+00 -0.00000000000E+00 -0.98245355482E+03  0.98245355482E+03  0.00000000000E+00 0. -1.
         24    2    1    2    0    0 -0.18886013059E+01 -0.33777393901E+02 -0.93185110900E+03  0.93588731491E+03  0.79963102221E+02 0.  0.
         25    2    1    2    0    0  0.12257627004E+02  0.48507191970E+02  0.52509389355E+02  0.14459655428E+03  0.12509088874E+03 0.  0.
        -24    2    1    2    0    0 -0.10369025698E+02 -0.14729798069E+02  0.66476172232E+03  0.66984324313E+03  0.80357571235E+02 0.  0.
        -13    1    3    3    0    0  0.73271328438E+00  0.20838055314E+01  0.94206426733E+00  0.24013744676E+01  0.00000000000E+00 0.  1.
         14    1    3    3    0    0 -0.26213145903E+01 -0.35861199432E+02 -0.93279317326E+03  0.93348594044E+03  0.00000000000E+00 0. -1.
         13    1    5    5    0    0 -0.45924353819E+01 -0.40471563900E+02  0.18845469201E+03  0.19280614329E+03  0.00000000000E+00 0. -1.
        -14    1    5    5    0    0 -0.57765903160E+01  0.25741765831E+02  0.47630703031E+03  0.47703709984E+03  0.00000000000E+00 0.  1.
          5    1    4    4  501    0  0.15306485806E+02 -0.28887021348E+02 -0.19887344278E+02  0.38493212032E+02  0.41800000000E+01 0.  1.
         -5    1    4    4    0  501 -0.30488588018E+01  0.77394213318E+02  0.72396733633E+02  0.10610334225E+03  0.41800000000E+01 0.  1.
</event>
<event>
11    1  0.8299058E-009  0.2147670E+03  0.7561462E-02  0.1044546E+00
         22   -1    0    0    0    0  0.00000000000E+00  0.00000000000E+00  0.21787237526E+03  0.21787237526E+03  0.00000000000E+00 0.  1.
         22   -1    0    0    0    0 -0.00000000000E+00 -0.00000000000E+00 -0.30723369132E+04  0.30723369132E+04  0.00000000000E+00 0. -1.
         24    2    1    2    0    0 -0.48246784024E+02  0.27181589362E+02 -0.26553384981E+04  0.26571219900E+04  0.80050852376E+02 0.  0.
         25    2    1    2    0    0  0.21563876524E+03 -0.22019102028E+01 -0.32331432803E+03  0.40826969418E+03  0.12508822083E+03 0.  0.
        -24    2    1    2    0    0 -0.16739198122E+03 -0.24979679159E+02  0.12418828827E+03  0.22481760427E+03  0.80474620211E+02 0.  0.
        -13    1    3    3    0    0  0.11811225973E+02  0.28167611408E+02 -0.49031914499E+03  0.49126956280E+03  0.00000000000E+00 0.  1.
         14    1    3    3    0    0 -0.60058009997E+02 -0.98602204673E+00 -0.21650193532E+04  0.21658524272E+04  0.00000000000E+00 0. -1.
         13    1    5    5    0    0 -0.15845523232E+02 -0.68270625411E+01 -0.11384398293E+02  0.20671088843E+02  0.00000000000E+00 0. -1.
        -14    1    5    5    0    0 -0.15154645799E+03 -0.18152616618E+02  0.13557268656E+03  0.20414651543E+03  0.00000000000E+00 0.  1.
          5    1    4    4  501    0  0.29035423228E+00  0.30123096522E+02 -0.28108952833E+02  0.41413414240E+02  0.41800000000E+01 0.  1.
         -5    1    4    4    0  501  0.21534841101E+03 -0.32325006725E+02 -0.29520537520E+03  0.36685627994E+03  0.41800000000E+01 0.  1.
</event>
<event>
11    1  0.8299058E-009  0.1687047E+03  0.7561462E-02  0.1079164E+00
         22   -1    0    0    0    0  0.00000000000E+00  0.00000000000E+00  0.59494287217E+03  0.59494287217E+03  0.00000000000E+00 0.  1.
         22   -1    0    0    0    0 -0.00000000000E+00 -0.00000000000E+00 -0.96596498606E+03  0.96596498606E+03  0.00000000000E+00 0.  1.
        -24    2    1    2    0    0  0.10375562624E+03 -0.44209730638E+02 -0.92226820169E+03  0.93243685379E+03  0.78358919018E+02 0.  0.
         25    2    1    2    0    0 -0.14426857864E+03  0.98412855646E+01  0.25720545864E+03  0.32048832268E+03  0.12509133997E+03 0.  0.
         24    2    1    2    0    0  0.40512952397E+02  0.34368445073E+02  0.29404062916E+03  0.30798268175E+03  0.74638805813E+02 0.  0.
        -11    1    5    5    0    0  0.26766852594E+02 -0.42747611942E+01  0.23220005648E+03  0.23377682565E+03  0.00000000000E+00 0.  1.
         12    1    5    5    0    0  0.13746099803E+02  0.38643206268E+02  0.61840572677E+02  0.74205856100E+02  0.00000000000E+00 0. -1.
         13    1    3    3    0    0 -0.89563492994E+00  0.38464721609E+01 -0.27343728465E+03  0.27346580435E+03  0.00000000000E+00 0. -1.
        -14    1    3    3    0    0  0.10465126117E+03 -0.48056202799E+02 -0.64883091704E+03  0.65897104944E+03  0.00000000000E+00 0.  1.
          5    1    4    4  501    0 -0.67091146887E+02  0.43473591203E+02  0.20802976260E+03  0.22290138997E+03  0.41800000000E+01 0. -1.
         -5    1    4    4    0  501 -0.77177431755E+02 -0.33632305639E+02  0.49175696037E+02  0.97586932710E+02  0.41800000000E+01 0. -1.
</event>
<event>
11    1  0.8299058E-009  0.1843934E+03  0.7561462E-02  0.1066143E+00
         22   -1    0    0    0    0  0.00000000000E+00  0.00000000000E+00  0.33353981651E+03  0.33353981651E+03  0.00000000000E+00 0.  1.
         22   -1    0    0    0    0 -0.00000000000E+00 -0.00000000000E+00 -0.10141386758E+04  0.10141386758E+04  0.00000000000E+00 0. -1.
        -24    2    1    2    0    0 -0.49061504121E+02 -0.90972734329E+02 -0.85631765541E+03  0.86631890405E+03  0.80903936661E+02 0.  0.
         25    2    1    2    0    0  0.16052281092E+03  0.12246038351E+02 -0.46342435839E+02  0.20907580134E+03  0.12509009179E+03 0.  0.
         24    2    1    2    0    0 -0.11146130680E+03  0.78726695978E+02  0.22206123196E+03  0.27228378692E+03  0.78776610143E+02 0.  0.
        -13    1    5    5    0    0 -0.12272403537E+02  0.52899556790E+02  0.64471548594E+02  0.84294457560E+02  0.00000000000E+00 0.  1.
         14    1    5    5    0    0 -0.99188903264E+02  0.25827139188E+02  0.15758968336E+03  0.18798932936E+03  0.00000000000E+00 0. -1.
         11    1    3    3    0    0 -0.13533852597E+01 -0.42988542845E+02 -0.58907482217E+03  0.59064286382E+03  0.00000000000E+00 0. -1.
        -12    1    3    3    0    0 -0.47708118861E+02 -0.47984191485E+02 -0.26724283324E+03  0.27567604023E+03  0.00000000000E+00 0.  1.
          5    1    4    4  501    0 -0.27210669636E+01 -0.27825958295E+02 -0.28246222009E+02  0.39962602746E+02  0.41800000000E+01 0. -1.
         -5    1    4    4    0  501  0.16324387789E+03  0.40071996646E+02 -0.18096213831E+02  0.16911319859E+03  0.41800000000E+01 0. -1.
</event>
<event>
11    1  0.8299058E-009  0.1529171E+03  0.7561462E-02  0.1093935E+00
         22   -1    0    0    0    0  0.00000000000E+00  0.00000000000E+00  0.17795619418E+04  0.17795619418E+04  0.00000000000E+00 0.  1.
         22   -1    0    0    0    0 -0.00000000000E+00 -0.00000000000E+00 -0.10078034171E+03  0.10078034171E+03  0.00000000000E+00 0. -1.
         24    2    1    2    0    0 -0.70969557367E+02 -0.50365903012E+02 -0.49679561865E+02  0.12825724468E+03  0.80052855584E+02 0.  0.
         25    2    1    2    0    0  0.75932539927E+02  0.73492582530E+02  0.69522408864E+03  0.71424919841E+03  0.12509385957E+03 0.  0.
        -24    2    1    2    0    0 -0.49629825607E+01 -0.23126679518E+02  0.10332370734E+04  0.10378358405E+04  0.94683195391E+02 0.  0.
        -13    1    3    3    0    0  0.13486962104E+02  0.51307598682E+01  0.23040468580E+01  0.14612716227E+02  0.00000000000E+00 0.  1.
         14    1    3    3    0    0 -0.84456519470E+02 -0.55496662880E+02 -0.51983608723E+02  0.11364452845E+03  0.00000000000E+00 0. -1.
         11    1    5    5    0    0  0.43495106088E+02 -0.64400837793E+00  0.40392893691E+03  0.40626447675E+03  0.00000000000E+00 0. -1.
        -12    1    5    5    0    0 -0.48458088649E+02 -0.22482671140E+02  0.62930813645E+03  0.63157136371E+03  0.00000000000E+00 0.  1.
          5    1    4    4  501    0  0.74974513995E+02  0.28485266145E+02  0.18071297215E+03  0.19775550267E+03  0.41800000000E+01 0. -1.
         -5    1    4    4    0  501  0.95802593276E+00  0.45007316385E+02  0.51451111649E+03  0.51649369574E+03  0.41800000000E+01 0. -1.
</event>
<event>
11    1  0.8299058E-009  0.1439020E+03  0.7561462E-02  0.1103278E+00
         22   -1    0    0    0    0  0.00000000000E+00  0.00000000000E+00  0.14504423981E+04  0.14504423981E+04  0.00000000000E+00 0. -1.
         22   -1    0    0    0    0 -0.00000000000E+00 -0.00000000000E+00 -0.43457676216E+03  0.43457676216E+03  0.00000000000E+00 0. -1.
         24    2    1    2    0    0  0.10207574561E+02 -0.98560912751E+01 -0.39676025130E+03  0.40716253949E+03  0.90339910566E+02 0.  0.
         25    2    1    2    0    0 -0.69419719620E+02 -0.29142901332E+02  0.14563962413E+03  0.20622250027E+03  0.12509361828E+03 0.  0.
        -24    2    1    2    0    0  0.59212145059E+02  0.38998992607E+02  0.12669862631E+04  0.12716341205E+04  0.82293049220E+02 0.  0.
        -11    1    3    3    0    0 -0.28659459073E+02 -0.33049832489E+02 -0.24189288689E+03  0.24581664864E+03  0.00000000000E+00 0.  1.
         12    1    3    3    0    0  0.38867033634E+02  0.23193741214E+02 -0.15486736441E+03  0.16134589085E+03  0.00000000000E+00 0. -1.
         11    1    5    5    0    0  0.62190205219E+02  0.52247780150E+02  0.73497722558E+03  0.73945180659E+03  0.00000000000E+00 0. -1.
        -12    1    5    5    0    0 -0.29780601607E+01 -0.13248787543E+02  0.53200903752E+03  0.53218231389E+03  0.00000000000E+00 0.  1.
          5    1    4    4  501    0 -0.47313720712E+02 -0.73918031937E+02  0.58036408801E+02  0.10530033599E+03  0.41800000000E+01 0.  1.
         -5    1    4    4    0  501 -0.22105998907E+02  0.44775130605E+02  0.87603215327E+02  0.10092216428E+03  0.41800000000E+01 0.  1.
</event>
<event>
11    1  0.8299058E-009  0.1630868E+03  0.7561462E-02  0.1084209E+00
         22   -1    0    0    0    0  0.00000000000E+00  0.00000000000E+00  0.14242095886E+03  0.14242095886E+03  0.00000000000E+00 0. -1.
         22   -1    0    0    0    0 -0.00000000000E+00 -0.00000000000E+00 -0.19682601564E+04  0.19682601564E+04  0.00000000000E+00 0. -1.
        -24    2    1    2    0    0  0.63874209471E+02  0.38894745357E+02 -0.17575743535E+04  0.17609470931E+04  0.79210735905E+02 0.  0.
         25    2    1    2    0    0 -0.21947680158E+02 -0.13110147567E+03 -0.11060043720E+03  0.21341973511E+03  0.12508488734E+03 0.  0.
         24    2    1    2    0    0 -0.41926529312E+02  0.92206730309E+02  0.42335593123E+02  0.13631428711E+03  0.80804501418E+02 0.  0.
        -11    1    5    5    0    0 -0.77288512558E+01  0.86921118812E+01 -0.22408174350E+02  0.25247063757E+02  0.00000000000E+00 0.  1.
         12    1    5    5    0    0 -0.34197678057E+02  0.83514618428E+02  0.64743767473E+02  0.11106722335E+03  0.00000000000E+00 0. -1.
         13    1    3    3    0    0  0.41136621276E+02  0.39341746889E+02 -0.16506420186E+04  0.16516231616E+04  0.00000000000E+00 0. -1.
        -14    1    3    3    0    0  0.22737588195E+02 -0.44700153168E+00 -0.10693233496E+03  0.10932393145E+03  0.00000000000E+00 0.  1.
          5    1    4    4  501    0 -0.38988568450E+02  0.24024585984E+01 -0.55346698271E+02  0.67872009596E+02  0.41800000000E+01 0. -1.
         -5    1    4    4    0  501  0.17040888291E+02 -0.13350393426E+03 -0.55253738926E+02  0.14554772552E+03  0.41800000000E+01 0. -1.
</event>
<event>
11    1  0.8299058E-009  0.1701930E+03  0.7561462E-02  0.1077864E+00
         22   -1    0    0    0    0  0.00000000000E+00  0.00000000000E+00  0.31304949618E+02  0.31304949618E+02  0.00000000000E+00 0.  1.
         22   -1    0    0    0    0 -0.00000000000E+00 -0.00000000000E+00 -0.18167314319E+04  0.18167314319E+04  0.00000000000E+00 0.  1.
        -24    2    1    2    0    0 -0.11201435241E+03 -0.20494401866E+02 -0.10534034888E+04  0.10641919347E+04  0.99389777355E+02 0.  0.
         25    2    1    2    0    0  0.11422842086E+03  0.33911917944E+02 -0.63085960862E+03  0.65408720515E+03  0.12509226930E+03 0.  0.
         24    2    1    2    0    0 -0.22140684507E+01 -0.13417516079E+02 -0.10116338479E+03  0.12975724168E+03  0.80112293117E+02 0.  0.
        -13    1    5    5    0    0  0.28469866168E+02 -0.33610923014E+02 -0.48112062809E+02  0.65230345800E+02  0.00000000000E+00 0.  1.
         14    1    5    5    0    0 -0.30683934619E+02  0.20193406936E+02 -0.53051321981E+02  0.64526895875E+02  0.00000000000E+00 0. -1.
         13    1    3    3    0    0 -0.78102486274E+02  0.34671145822E+02 -0.53968580780E+03  0.54640905726E+03  0.00000000000E+00 0. -1.
        -14    1    3    3    0    0 -0.33911866138E+02 -0.55165547687E+02 -0.51371768104E+03  0.51778287740E+03  0.00000000000E+00 0.  1.
          5    1    4    4  501    0 -0.80665707469E+01 -0.27832492176E+02 -0.56915876898E+02  0.64004739101E+02  0.41800000000E+01 0. -1.
         -5    1    4    4    0  501  0.12229499161E+03  0.61744410120E+02 -0.57394373172E+03  0.59008246605E+03  0.41800000000E+01 0. -1.
</event>
<event>
11    1  0.8299058E-009  0.2010111E+03  0.7561462E-02  0.1053811E+00
         22   -1    0    0    0    0  0.00000000000E+00  0.00000000000E+00  0.20285294351E+04  0.20285294351E+04  0.00000000000E+00 0.  1.
         22   -1    0    0    0    0 -0.00000000000E+00 -0.00000000000E+00 -0.83835933619E+03  0.83835933619E+03  0.00000000000E+00 0. -1.
        -24    2    1    2    0    0 -0.15487542317E+03 -0.19946192339E+02 -0.77347734593E+03  0.79379434372E+03  0.86359760130E+02 0.  0.
         25    2    1    2    0    0  0.20642622048E+03 -0.88903800899E+02  0.26726732089E+03  0.37093961929E+03  0.12509480418E+03 0.  0.
         24    2    1    2    0    0 -0.51550797309E+02  0.10884999324E+03  0.16963801239E+04  0.17021548082E+04  0.71551804037E+02 0.  0.
        -11    1    5    5    0    0 -0.29901897415E+02  0.11358122789E+03  0.14747468076E+04  0.14794164273E+04  0.00000000000E+00 0.  1.
         12    1    5    5    0    0 -0.21648899894E+02 -0.47312346524E+01  0.22163331629E+03  0.22273838093E+03  0.00000000000E+00 0. -1.
         11    1    3    3    0    0 -0.65344272686E+02 -0.25753524714E+02 -0.52376727033E+03  0.52845555299E+03  0.00000000000E+00 0. -1.
        -12    1    3    3    0    0 -0.89531150482E+02  0.58073323749E+01 -0.24971007559E+03  0.26533879073E+03  0.00000000000E+00 0.  1.
          5    1    4    4  501    0  0.27382752888E+02  0.29822128174E+02  0.59166588223E+02  0.71814567091E+02  0.41800000000E+01 0. -1.
         -5    1    4    4    0  501  0.17904346759E+03 -0.11872592907E+03  0.20810073266E+03  0.29912505220E+03  0.41800000000E+01 0. -1.
</event>
<event>
11    1  0.8299058E-009  0.1459641E+03  0.7561462E-02  0.1101076E+00
         22   -1    0    0    0    0  0.00000000000E+00  0.00000000000E+00  0.25264375655E+03  0.25264375655E+03  0.00000000000E+00 0.  1.
         22   -1    0    0    0    0 -0.00000000000E+00 -0.00000000000E+00 -0.34966366163E+03  0.34966366163E+03  0.00000000000E+00 0.  1.
        -24    2    1    2    0    0  0.28237418122E+02  0.67213711573E+02 -0.22458567956E+03  0.24872019042E+03  0.78153508259E+02 0.  0.
         25    2    1    2    0    0 -0.83430954638E+02 -0.56631150789E+02 -0.34525732050E+02  0.16433820373E+03  0.12508879886E+03 0.  0.
         24    2    1    2    0    0  0.55193536517E+02 -0.10582560784E+02  0.16209150654E+03  0.18924902403E+03  0.79895053284E+02 0.  0.
        -13    1    5    5    0    0  0.18405221843E+02 -0.17715819737E+02  0.14641789264E+03  0.14862974718E+03  0.00000000000E+00 0.  1.
         14    1    5    5    0    0  0.36788314673E+02  0.71332589526E+01  0.15673613899E+02  0.40619276858E+02  0.00000000000E+00 0. -1.
         13    1    3    3    0    0 -0.20330951432E+02  0.42400924170E+02 -0.14342394742E+03  0.15093579645E+03  0.00000000000E+00 0. -1.
        -14    1    3    3    0    0  0.48568369554E+02  0.24812787404E+02 -0.81161732137E+02  0.97784393966E+02  0.00000000000E+00 0.  1.
          5    1    4    4  501    0 -0.10603214959E+03 -0.75966245355E+01 -0.25999197721E+02  0.10951692167E+03  0.41800000000E+01 0.  1.
         -5    1    4    4    0  501  0.22601194952E+02 -0.49034526253E+02 -0.85265343285E+01  0.54821282052E+02  0.41800000000E+01 0.  1.
</event>
<event>
11    1  0.8299058E-009  0.1280954E+03  0.7561462E-02  0.1121631E+00
         22   -1    0    0    0    0  0.00000000000E+00  0.00000000000E+00  0.75177346888E+03  0.75177346888E+03  0.00000000000E+00 0.  1.
         22   -1    0    0    0    0 -0.00000000000E+00 -0.00000000000E+00 -0.29931172952E+04  0.29931172952E+04  0.00000000000E+00 0.  1.
         24    2    1    2    0    0  0.26690482687E+02  0.70922332899E+01 -0.29696225755E+04  0.29708947728E+04  0.82430750412E+02 0.  0.
         25    2    1    2    0    0 -0.21374223904E+02  0.12459716058E+02  0.18695319597E+03  0.22629865153E+03  0.12508988860E+03 0.  0.
        -24    2    1    2    0    0 -0.53162587829E+01 -0.19551949347E+02  0.54132555326E+03  0.54769733969E+03  0.80799009621E+02 0.  0.
        -11    1    3    3    0    0  0.14071572849E+02  0.44111013887E+02 -0.18813057297E+04  0.18818754048E+04  0.00000000000E+00 0.  1.
         12    1    3    3    0    0  0.12618909838E+02 -0.37018780597E+02 -0.10883168458E+04  0.10890193680E+04  0.00000000000E+00 0. -1.
         11    1    5    5    0    0  0.36109662680E+02  0.83590937102E+00  0.19618718766E+03  0.19948438306E+03  0.00000000000E+00 0. -1.
        -12    1    5    5    0    0 -0.41425921462E+02 -0.20387858719E+02  0.34513836560E+03  0.34821295662E+03  0.00000000000E+00 0.  1.
          5    1    4    4  501    0 -0.37664828730E+02  0.54521160236E+02  0.53197061279E+02  0.85079938678E+02  0.41800000000E+01 0. -1.
         -5    1    4    4    0  501  0.16290604826E+02 -0.42061444178E+02  0.13375613469E+03  0.14121871285E+03  0.41800000000E+01 0. -1.
</event>
<event>
11    1  0.9893473E-009  0.1824800E+03  0.7561462E-02  0.1067654E+00
         22   -1    0    0    0    0  0.00000000000E+00  0.00000000000E+00  0.30370111741E+04  0.30370111741E+04  0.00000000000E+00 0.  1.
         22   -1    0    0    0    0 -0.00000000000E+00 -0.00000000000E+00 -0.18328396971E+03  0.18328396971E+03  0.00000000000E+00 0.  1.
         24    2    1    2    0    0  0.71527504280E+02  0.38019926334E+02 -0.55611589161E+02  0.12832743484E+03  0.82544430568E+02 0.  0.
         25    2    1    2    0    0 -0.18962067487E+03  0.20448127114E+02  0.56509216569E+02  0.23497855834E+03  0.12508998794E+03 0.  0.
        -24    2    1    2    0    0  0.11809317059E+03 -0.58468053447E+02  0.28528295770E+04  0.28569891506E+04  0.79911834306E+02 0.  0.
        -11    1    3    3    0    0  0.79080386150E+02  0.17535733039E+02 -0.65681671868E+02  0.10428466535E+03  0.00000000000E+00 0.  1.
         12    1    3    3    0    0 -0.75528818695E+01  0.20484193295E+02  0.10070082707E+02  0.24042769499E+02  0.00000000000E+00 0. -1.
         11    1    5    5    0    0  0.70352796897E+02  0.43247833730E+01  0.99985636552E+03  0.10023377532E+04  0.00000000000E+00 0. -1.
        -12    1    5    5    0    0  0.47740373691E+02 -0.62792836820E+02  0.18529732114E+04  0.18546513974E+04  0.00000000000E+00 0.  1.
          5    1    4    4  501    0 -0.68999116736E+02  0.27949178972E+02  0.82593154270E+02  0.11127055427E+03  0.41800000000E+01 0.  1.
         -5    1    4    4    0  501 -0.12062155813E+03 -0.75010518579E+01 -0.26083937700E+02  0.12370800407E+03  0.41800000000E+01 0.  1.
</event>
<event>
11    1  0.8299058E-009  0.1522804E+03  0.7561462E-02  0.1094571E+00
         22   -1    0    0    0    0  0.00000000000E+00  0.00000000000E+00  0.32469380631E+03  0.32469380631E+03  0.00000000000E+00 0. -1.
         22   -1    0    0    0    0 -0.00000000000E+00 -0.00000000000E+00 -0.40127187047E+03  0.40127187047E+03  0.00000000000E+00 0.  1.
        -24    2    1    2    0    0  0.68380208029E+02 -0.68964720106E+02 -0.27000950873E+03  0.29770714920E+03  0.79324815864E+02 0.  0.
         25    2    1    2    0    0 -0.40537732283E+02  0.37550744679E+02 -0.67013645093E+02  0.15228752392E+03  0.12508914881E+03 0.  0.
         24    2    1    2    0    0 -0.27842475746E+02  0.31413975427E+02  0.26044508966E+03  0.27597100365E+03  0.81032763868E+02 0.  0.
        -13    1    5    5    0    0  0.28650079714E+01 -0.19988626671E+02  0.20921492387E+02  0.29076834604E+02  0.00000000000E+00 0.  1.
         14    1    5    5    0    0 -0.30707483717E+02  0.51402602098E+02  0.23952359728E+03  0.24689416905E+03  0.00000000000E+00 0. -1.
         11    1    3    3    0    0 -0.12304259829E+02 -0.22670027015E+02 -0.26253337192E+02  0.36804383550E+02  0.00000000000E+00 0. -1.
        -12    1    3    3    0    0  0.80684467858E+02 -0.46294693092E+02 -0.24375617153E+03  0.26090276565E+03  0.00000000000E+00 0.  1.
          5    1    4    4  501    0 -0.60075515972E+02  0.57468149240E+02 -0.41048943070E+01  0.83342536280E+02  0.41800000000E+01 0.  1.
         -5    1    4    4    0  501  0.19537783689E+02 -0.19917404560E+02 -0.62908750786E+02  0.68944987645E+02  0.41800000000E+01 0.  1.
</event>
<event>
11    1  0.8299058E-009  0.1287898E+03  0.7561462E-02  0.1120765E+00
         22   -1    0    0    0    0  0.00000000000E+00  0.00000000000E+00  0.27563667418E+03  0.27563667418E+03  0.00000000000E+00 0. -1.
         22   -1    0    0    0    0 -0.00000000000E+00 -0.00000000000E+00 -0.28678067406E+03  0.28678067406E+03  0.00000000000E+00 0.  1.
        -24    2    1    2    0    0 -0.19751985549E+02 -0.17345134465E+02 -0.17728619920E+03  0.19677743700E+03  0.81240191169E+02 0.  0.
         25    2    1    2    0    0  0.97042436422E-01 -0.88554811212E+01 -0.48604228674E+02  0.13449422695E+03  0.12509155477E+03 0.  0.
         24    2    1    2    0    0  0.19654943113E+02  0.26200615586E+02  0.21474642800E+03  0.23114568429E+03  0.78990568951E+02 0.  0.
        -11    1    5    5    0    0  0.62610151327E+01  0.28755134535E+02  0.19230677436E+02  0.35155042701E+02  0.00000000000E+00 0.  1.
         12    1    5    5    0    0  0.13393927980E+02 -0.25545189489E+01  0.19551575056E+03  0.19599064159E+03  0.00000000000E+00 0. -1.
         13    1    3    3    0    0 -0.18038336062E+02 -0.23099125705E+02 -0.12467597059E+02  0.31849523586E+02  0.00000000000E+00 0. -1.
        -14    1    3    3    0    0 -0.17136494868E+01  0.57539912402E+01 -0.16481860215E+03  0.16492791341E+03  0.00000000000E+00 0.  1.
          5    1    4    4  501    0 -0.48476031340E+02 -0.17948497319E+02  0.14863024789E+02  0.53948642952E+02  0.41800000000E+01 0. -1.
         -5    1    4    4    0  501  0.48573073776E+02  0.90930161983E+01 -0.63467253463E+02  0.80545583999E+02  0.41800000000E+01 0. -1.
</event>
<event>
11    1  0.8299058E-009  0.1361683E+03  0.7561462E-02  0.1111914E+00
         22   -1    0    0    0    0  0.00000000000E+00  0.00000000000E+00  0.81043205319E+03  0.81043205319E+03  0.00000000000E+00 0. -1.
         22   -1    0    0    0    0 -0.00000000000E+00 -0.00000000000E+00 -0.66395034117E+03  0.66395034117E+03  0.00000000000E+00 0. -1.
         24    2    1    2    0    0  0.39957105885E+02 -0.36071881087E+02 -0.63580891703E+03  0.64332261015E+03  0.81934430090E+02 0.  0.
         25    2    1    2    0    0 -0.12834438701E+02  0.62183434624E+02  0.21450737765E+03  0.25630660922E+03  0.12509260773E+03 0.  0.
        -24    2    1    2    0    0 -0.27122667184E+02 -0.26111553537E+02  0.56778325141E+03  0.57475317500E+03  0.80906979231E+02 0.  0.
        -11    1    3    3    0    0 -0.15340030954E+02 -0.25435065560E+02 -0.93658593849E+02  0.98255744420E+02  0.00000000000E+00 0.  1.
         12    1    3    3    0    0  0.55297136839E+02 -0.10636815527E+02 -0.54215032318E+03  0.54506686573E+03  0.00000000000E+00 0. -1.
         11    1    5    5    0    0 -0.24538855341E+02  0.14983218249E+02  0.42971459076E+03  0.43067537863E+03  0.00000000000E+00 0. -1.
        -12    1    5    5    0    0 -0.25838118430E+01 -0.41094771786E+02  0.13806866065E+03  0.14407779636E+03  0.00000000000E+00 0.  1.
          5    1    4    4  501    0  0.80085480989E+01  0.89433769764E+02  0.19913089947E+03  0.21847911466E+03  0.41800000000E+01 0.  1.
         -5    1    4    4    0  501 -0.20842986799E+02 -0.27250335140E+02  0.15376478171E+02  0.37827494563E+02  0.41800000000E+01 0.  1.
</event>
<event>
11    1  0.1311289E-008  0.1699892E+03  0.7561462E-02  0.1078041E+00
         22   -1    0    0    0    0  0.00000000000E+00  0.00000000000E+00  0.57164872371E+03  0.57164872371E+03  0.00000000000E+00 0.  1.
         22   -1    0    0    0    0 -0.00000000000E+00 -0.00000000000E+00 -0.93898642048E+03  0.93898642048E+03  0.00000000000E+00 0. -1.
        -24    2    1    2    0    0  0.15070641506E+01 -0.73083416631E+00 -0.61168982954E+03  0.61717492860E+03  0.82083125928E+02 0.  0.
         25    2    1    2    0    0 -0.65480820312E+01 -0.11427611937E+03 -0.29260881852E+03  0.33818700715E+03  0.12509445350E+03 0.  0.
         24    2    1    2    0    0  0.50410178806E+01  0.11500695354E+03  0.53696095128E+03  0.55527320844E+03  0.82153889627E+02 0.  0.
        -13    1    5    5    0    0 -0.10183529000E+02  0.90226877960E+02  0.50032157785E+03  0.50849412487E+03  0.00000000000E+00 0.  1.
         14    1    5    5    0    0  0.15224546881E+02  0.24780075580E+02  0.36639373438E+02  0.46779083567E+02  0.00000000000E+00 0. -1.
         13    1    3    3    0    0 -0.83920339705E+01  0.31534775762E+02 -0.48404199770E+03  0.48514072582E+03  0.00000000000E+00 0. -1.
        -14    1    3    3    0    0  0.98990981211E+01 -0.32265609928E+02 -0.12764783185E+03  0.13203420278E+03  0.00000000000E+00 0.  1.
          5    1    4    4  501    0  0.18757854404E+02 -0.42681905659E+02 -0.13230458989E+02  0.48642775595E+02  0.41800000000E+01 0. -1.
         -5    1    4    4    0  501 -0.25305936435E+02 -0.71594213714E+02 -0.27937835953E+03  0.28954423156E+03  0.41800000000E+01 0. -1.
</event>
<event>
11    1  0.8299058E-009  0.2632593E+03  0.7561462E-02  0.1017064E+00
         22   -1    0    0    0    0  0.00000000000E+00  0.00000000000E+00  0.21839766784E+04  0.21839766784E+04  0.00000000000E+00 0. -1.
         22   -1    0    0    0    0 -0.00000000000E+00 -0.00000000000E+00 -0.19250566016E+03  0.19250566016E+03  0.00000000000E+00 0.  1.
        -24    2    1    2    0    0  0.20986336809E+03  0.70354960237E+02 -0.10330774600E+02  0.24012847885E+03  0.92533819520E+02 0.  0.
         25    2    1    2    0    0 -0.26933529369E+03 -0.10850144901E+02  0.27255241120E+03  0.40322656533E+03  0.12509044753E+03 0.  0.
         24    2    1    2    0    0  0.59471925599E+02 -0.59504815336E+02  0.17292493816E+04  0.17331272944E+04  0.79680999104E+02 0.  0.
        -11    1    5    5    0    0  0.46934660989E+02 -0.81810757985E+01  0.39982009681E+03  0.40264860886E+03  0.00000000000E+00 0.  1.
         12    1    5    5    0    0  0.12537264610E+02 -0.51323739537E+02  0.13294292848E+04  0.13304786855E+04  0.00000000000E+00 0. -1.
         11    1    3    3    0    0  0.38533995190E+02  0.25942548203E+02  0.34123084238E+02  0.57639131416E+02  0.00000000000E+00 0. -1.
        -12    1    3    3    0    0  0.17132937290E+03  0.44412412034E+02 -0.44453858838E+02  0.18248934743E+03  0.00000000000E+00 0.  1.
          5    1    4    4  501    0 -0.27364092518E+03 -0.29481632213E+02  0.26546099526E+03  0.38240755089E+03  0.41800000000E+01 0. -1.
         -5    1    4    4    0  501  0.43056314941E+01  0.18631487312E+02  0.70914159392E+01  0.20819014435E+02  0.41800000000E+01 0. -1.
</event>
<event>
11    1  0.8299058E-009  0.1317514E+03  0.7561462E-02  0.1117136E+00
         22   -1    0    0    0    0  0.00000000000E+00  0.00000000000E+00  0.12480783870E+03  0.12480783870E+03  0.00000000000E+00 0.  1.
         22   -1    0    0    0    0 -0.00000000000E+00 -0.00000000000E+00 -0.15786996807E+04  0.15786996807E+04  0.00000000000E+00 0. -1.
        -24    2    1    2    0    0 -0.37637476092E+02 -0.45795535071E+01 -0.12328178257E+04  0.12361789614E+04  0.82831644311E+02 0.  0.
         25    2    1    2    0    0  0.74331329546E+02  0.80956356370E+01 -0.30871491951E+03  0.34138539048E+03  0.12509355473E+03 0.  0.
         24    2    1    2    0    0 -0.36693853454E+02 -0.35160821298E+01  0.87640903195E+02  0.12594316754E+03  0.82595107745E+02 0.  0.
        -13    1    5    5    0    0 -0.44335427089E+02 -0.63274254382E+01  0.10089501695E+03  0.11038782022E+03  0.00000000000E+00 0.  1.
         14    1    5    5    0    0  0.76415736354E+01  0.28113433084E+01 -0.13254113757E+02  0.15555347322E+02  0.00000000000E+00 0. -1.
         11    1    3    3    0    0 -0.34208729491E+02  0.34473582077E+02 -0.51279955793E+03  0.51509421628E+03  0.00000000000E+00 0. -1.
        -12    1    3    3    0    0 -0.34287466014E+01 -0.39053135584E+02 -0.72001826774E+03  0.72108474508E+03  0.00000000000E+00 0.  1.
          5    1    4    4  501    0 -0.86258607725E+01  0.50028541765E+02 -0.13554815045E+03  0.14480343213E+03  0.41800000000E+01 0. -1.
         -5    1    4    4    0  501  0.82957190319E+02 -0.41932906129E+02 -0.17316676905E+03  0.19658195834E+03  0.41800000000E+01 0. -1.
</event>
<event>
11    1  0.8299058E-009  0.1468653E+03  0.7561462E-02  0.1100125E+00
         22   -1    0    0    0    0  0.00000000000E+00  0.00000000000E+00  0.11848579002E+02  0.11848579002E+02  0.00000000000E+00 0.  1.
         22   -1    0    0    0    0 -0.00000000000E+00 -0.00000000000E+00 -0.26532449786E+04  0.26532449786E+04  0.00000000000E+00 0. -1.
        -24    2    1    2    0    0  0.15746968943E+02  0.75054518035E+02 -0.95317537514E+03  0.95944670997E+03  0.78189166715E+02 0.  0.
         25    2    1    2    0    0 -0.51146723615E+02 -0.64724674647E+02 -0.11690688527E+04  0.11786326020E+04  0.12509019712E+03 0.  0.
         24    2    1    2    0    0  0.35399754672E+02 -0.10329843388E+02 -0.51915217176E+03  0.52701424558E+03  0.82856437957E+02 0.  0.
        -11    1    5    5    0    0  0.35289444189E+02 -0.16996623616E+02 -0.94320391025E+02  0.10213014368E+03  0.00000000000E+00 0.  1.
         12    1    5    5    0    0  0.11031048361E+00  0.66667802277E+01 -0.42483178073E+03  0.42488410190E+03  0.00000000000E+00 0. -1.
         13    1    3    3    0    0 -0.35467412081E+01 -0.16020227285E+02 -0.13703324702E+03  0.13801209311E+03  0.00000000000E+00 0. -1.
        -14    1    3    3    0    0  0.19293710151E+02  0.91074745320E+02 -0.81614212812E+03  0.82143461686E+03  0.00000000000E+00 0.  1.
          5    1    4    4  501    0  0.20519051924E+02 -0.36418469177E+02 -0.82270360082E+03  0.82377546916E+03  0.41800000000E+01 0. -1.
         -5    1    4    4    0  501 -0.71665775539E+02 -0.28306205470E+02 -0.34636525188E+03  0.35485713289E+03  0.41800000000E+01 0. -1.
</event>
<event>
11    1  0.8299058E-009  0.1390447E+03  0.7561462E-02  0.1108630E+00
         22   -1    0    0    0    0  0.00000000000E+00  0.00000000000E+00  0.92074793597E+03  0.92074793597E+03  0.00000000000E+00 0. -1.
         22   -1    0    0    0    0 -0.00000000000E+00 -0.00000000000E+00 -0.15670065360E+03  0.15670065360E+03  0.00000000000E+00 0.  1.
        -24    2    1    2    0    0  0.18753364967E+02  0.42563055736E+02 -0.10704251344E+03  0.14199024605E+03  0.80869202287E+02 0.  0.
         25    2    1    2    0    0  0.42320711045E+02 -0.22262727561E+02  0.13003505046E+03  0.18665359763E+03  0.12507509559E+03 0.  0.
         24    2    1    2    0    0 -0.61074076013E+02 -0.20300328175E+02  0.74105474535E+03  0.74880474589E+03  0.86048043466E+02 0.  0.
        -13    1    5    5    0    0 -0.42963882642E+02  0.66015061817E+01  0.13378022882E+03  0.14066493777E+03  0.00000000000E+00 0.  1.
         14    1    5    5    0    0 -0.18110193370E+02 -0.26901834357E+02  0.60727451653E+03  0.60813980812E+03  0.00000000000E+00 0. -1.
         13    1    3    3    0    0 -0.28990231011E+02  0.19450598098E+02 -0.20498054021E+02  0.40483693990E+02  0.00000000000E+00 0. -1.
        -14    1    3    3    0    0  0.47743595978E+02  0.23112457638E+02 -0.86544459418E+02  0.10150655206E+03  0.00000000000E+00 0.  1.
          5    1    4    4  501    0  0.75264293400E+02 -0.85390759651E+01  0.13023748115E+03  0.15072127778E+03  0.41800000000E+01 0.  1.
         -5    1    4    4    0  501 -0.32943582354E+02 -0.13723651596E+02 -0.20243069060E+00  0.35932319848E+02  0.41800000000E+01 0.  1.
</event>
<event>
11    1  0.8299058E-009  0.2201970E+03  0.7561462E-02  0.1041094E+00
         22   -1    0    0    0    0  0.00000000000E+00  0.00000000000E+00  0.12813641587E+04  0.12813641587E+04  0.00000000000E+00 0.  1.
         22   -1    0    0    0    0 -0.00000000000E+00 -0.00000000000E+00 -0.13684284061E+03  0.13684284061E+03  0.00000000000E+00 0. -1.
        -24    2    1    2    0    0 -0.47781997716E+01 -0.90836450818E+02 -0.62098771681E+02  0.13583632634E+03  0.79505711228E+02 0.  0.
         25    2    1    2    0    0 -0.12338778506E+03  0.18493668619E+03  0.68690196359E+03  0.73274055884E+03  0.12509314764E+03 0.  0.
         24    2    1    2    0    0  0.12816598483E+03 -0.94100235371E+02  0.51971812622E+03  0.54963011416E+03  0.81883806174E+02 0.  0.
        -11    1    5    5    0    0  0.12789355277E+03 -0.95894609528E+02  0.41239961972E+03  0.44229626193E+03  0.00000000000E+00 0.  1.
         12    1    5    5    0    0  0.27243206394E+00  0.17943741571E+01  0.10731850650E+03  0.10733385223E+03  0.00000000000E+00 0. -1.
         11    1    3    3    0    0  0.30880428840E+02 -0.68115666264E+02 -0.22994873663E+02  0.78243907690E+02  0.00000000000E+00 0. -1.
        -12    1    3    3    0    0 -0.35658628612E+02 -0.22720784554E+02 -0.39103898018E+02  0.57592418645E+02  0.00000000000E+00 0.  1.
          5    1    4    4  501    0  0.15894791545E+02  0.22099900245E+02  0.25693524042E+02  0.37665362958E+02  0.41800000000E+01 0.  1.
         -5    1    4    4    0  501 -0.13928257660E+03  0.16283678594E+03  0.66120843955E+03  0.69507519588E+03  0.41800000000E+01 0.  1.
</event>
<event>
11    1  0.8299058E-009  0.1994397E+03  0.7561462E-02  0.1054921E+00
         22   -1    0    0    0    0  0.00000000000E+00  0.00000000000E+00  0.62124580291E+03  0.62124580291E+03  0.00000000000E+00 0. -1.
         22   -1    0    0    0    0 -0.00000000000E+00 -0.00000000000E+00 -0.25321270868E+04  0.25321270868E+04  0.00000000000E+00 0. -1.
         24    2    1    2    0    0 -0.12726275849E+03 -0.88641624016E+02 -0.24819895195E+04  0.24881628639E+04  0.81420605747E+02 0.  0.
         25    2    1    2    0    0  0.11541158726E+03  0.15731294915E+03  0.34623414599E+03  0.41664674287E+03  0.12509686667E+03 0.  0.
        -24    2    1    2    0    0  0.11851171236E+02 -0.68671325136E+02  0.22487408961E+03  0.24856328297E+03  0.79744268176E+02 0.  0.
        -11    1    3    3    0    0 -0.28007138321E+01  0.12336406581E+02 -0.31528280645E+03  0.31553649388E+03  0.00000000000E+00 0.  1.
         12    1    3    3    0    0 -0.12446204466E+03 -0.10097803060E+03 -0.21667067131E+04  0.21726263700E+04  0.00000000000E+00 0. -1.
         13    1    5    5    0    0  0.44274157509E+02 -0.54746951801E+02  0.15698126536E+03  0.17204809626E+03  0.00000000000E+00 0. -1.
        -14    1    5    5    0    0 -0.32422986273E+02 -0.13924373336E+02  0.67892824257E+02  0.76515186710E+02  0.00000000000E+00 0.  1.
          5    1    4    4  501    0  0.89734312776E+02  0.44711629877E+02  0.86955785956E+02  0.13277860463E+03  0.41800000000E+01 0.  1.
         -5    1    4    4    0  501  0.25677274482E+02  0.11260131928E+03  0.25927836004E+03  0.28386813825E+03  0.41800000000E+01 0.  1.
</event>
<event>
11    1  0.8892804E-009  0.1825379E+03  0.7561462E-02  0.1067608E+00
         22   -1    0    0    0    0  0.00000000000E+00  0.00000000000E+00  0.28590909909E+03  0.28590909909E+03  0.00000000000E+00 0. -1.
         22   -1    0    0    0    0 -0.00000000000E+00 -0.00000000000E+00 -0.11528243993E+04  0.11528243993E+04  0.00000000000E+00 0. -1.
        -24    2    1    2    0    0 -0.51870032967E+02 -0.73190092946E+01 -0.76075582052E+03  0.76619613834E+03  0.74585760925E+02 0.  0.
         25    2    1    2    0    0 -0.84185247248E+02  0.73338795262E+01 -0.35038743585E+03  0.38152258321E+03  0.12508870715E+03 0.  0.
         24    2    1    2    0    0  0.13605528022E+03 -0.14870231566E-01  0.24422795617E+03  0.29101477683E+03  0.80816249997E+02 0.  0.
        -13    1    5    5    0    0  0.24136540366E+02  0.23762599589E+02  0.10760469372E+03  0.11280959104E+03  0.00000000000E+00 0.  1.
         14    1    5    5    0    0  0.11191873985E+03 -0.23777469820E+02  0.13662326245E+03  0.17820518579E+03  0.00000000000E+00 0. -1.
         11    1    3    3    0    0 -0.16440259593E+02 -0.27541437333E+02 -0.58033705342E+03  0.58122277009E+03  0.00000000000E+00 0. -1.
        -12    1    3    3    0    0 -0.35429773374E+02  0.20222428038E+02 -0.18041876710E+03  0.18497336824E+03  0.00000000000E+00 0.  1.
          5    1    4    4  501    0 -0.11403559023E+03  0.25437426279E+01 -0.22279920584E+03  0.25033486571E+03  0.41800000000E+01 0. -1.
         -5    1    4    4    0  501  0.29850342979E+02  0.47901368983E+01 -0.12758823001E+03  0.13118771751E+03  0.41800000000E+01 0. -1.
</event>
<event>
11    1  0.8299058E-009  0.2280885E+03  0.7561462E-02  0.1036266E+00
         22   -1    0    0    0    0  0.00000000000E+00  0.00000000000E+00  0.15037359155E+03  0.15037359155E+03  0.00000000000E+00 0. -1.
         22   -1    0    0    0    0 -0.00000000000E+00 -0.00000000000E+00 -0.53026775241E+03  0.53026775241E+03  0.00000000000E+00 0. -1.
         24    2    1    2    0    0  0.17952938778E+02  0.22536732633E+02 -0.13074906015E+03  0.15625819874E+03  0.80567335911E+02 0.  0.
         25    2    1    2    0    0  0.14935958672E+03  0.86292093129E+02 -0.21753513458E+03  0.30450537334E+03  0.12508947251E+03 0.  0.
        -24    2    1    2    0    0 -0.16731252549E+03 -0.10882882576E+03 -0.31609966135E+02  0.21987777188E+03  0.86659391321E+02 0.  0.
        -13    1    3    3    0    0  0.31511819198E+02  0.45137574546E+02 -0.63560982549E+02  0.84085634252E+02  0.00000000000E+00 0.  1.
         14    1    3    3    0    0 -0.13558880420E+02 -0.22600841913E+02 -0.67188077601E+02  0.72172564490E+02  0.00000000000E+00 0. -1.
         11    1    5    5    0    0 -0.34481348050E+02 -0.61947633918E+02 -0.34804768327E+02  0.78980026651E+02  0.00000000000E+00 0. -1.
        -12    1    5    5    0    0 -0.13283117744E+03 -0.46881191843E+02  0.31948021927E+01  0.14089774523E+03  0.00000000000E+00 0.  1.
          5    1    4    4  501    0  0.17165603883E+02 -0.29075960354E+02 -0.58438020972E+02  0.67620589485E+02  0.41800000000E+01 0. -1.
         -5    1    4    4    0  501  0.13219398283E+03  0.11536805348E+03 -0.15909711361E+03  0.23688478385E+03  0.41800000000E+01 0. -1.
</event>
<event>
11    1  0.8299058E-009  0.1665530E+03  0.7561462E-02  0.1081071E+00
         22   -1    0    0    0    0  0.00000000000E+00  0.00000000000E+00  0.10044994911E+04  0.10044994911E+04  0.00000000000E+00 0. -1.
         22   -1    0    0    0    0 -0.00000000000E+00 -0.00000000000E+00 -0.77774404652E+03  0.77774404652E+03  0.00000000000E+00 0. -1.
         24    2    1    2    0    0 -0.97248513368E+02 -0.49464153981E+02 -0.70365847822E+03  0.71655403690E+03  0.80065335482E+02 0.  0.
         25    2    1    2    0    0  0.88413026068E+02  0.10673520330E+03  0.69401979094E+02  0.19918320648E+03  0.12509215898E+03 0.  0.
        -24    2    1    2    0    0  0.88354872998E+01 -0.57271049324E+02  0.86101194370E+03  0.86650629424E+03  0.78316995848E+02 0.  0.
        -13    1    3    3    0    0 -0.47757503489E+02 -0.61947498942E+02 -0.31537848314E+03  0.32493362306E+03  0.00000000000E+00 0.  1.
         14    1    3    3    0    0 -0.49491009879E+02  0.12483344961E+02 -0.38827999508E+03  0.39162041385E+03  0.00000000000E+00 0. -1.
         11    1    5    5    0    0  0.38636298063E+02 -0.48818818963E+02  0.68183535424E+03  0.68467181255E+03  0.00000000000E+00 0. -1.
        -12    1    5    5    0    0 -0.29800810763E+02 -0.84522303610E+01  0.17917658946E+03  0.18183448169E+03  0.00000000000E+00 0.  1.
          5    1    4    4  501    0  0.85536881567E+02  0.50901115384E+02 -0.11998290994E+02  0.10034397362E+03  0.41800000000E+01 0. -1.
         -5    1    4    4    0  501  0.28761445013E+01  0.55834087920E+02  0.81400270087E+02  0.98839232855E+02  0.41800000000E+01 0. -1.
</event>
<event>
11    1  0.8299058E-009  0.1356004E+03  0.7561462E-02  0.1112573E+00
         22   -1    0    0    0    0  0.00000000000E+00  0.00000000000E+00  0.15704130518E+04  0.15704130518E+04  0.00000000000E+00 0. -1.
         22   -1    0    0    0    0 -0.00000000000E+00 -0.00000000000E+00 -0.16227520825E+03  0.16227520825E+03  0.00000000000E+00 0. -1.
         24    2    1    2    0    0  0.15429975622E+02 -0.14957047548E+02 -0.13978477975E+03  0.16319372124E+03  0.81428548958E+02 0.  0.
         25    2    1    2    0    0 -0.61050245898E+02  0.30261979709E+02  0.58847143663E+03  0.60547301904E+03  0.12512403896E+03 0.  0.
        -24    2    1    2    0    0  0.45620270277E+02 -0.15304932161E+02  0.95945118671E+03  0.96402151981E+03  0.80470248930E+02 0.  0.
        -13    1    3    3    0    0  0.25642127380E+02  0.13491696399E+02 -0.11134980427E+02  0.31040817602E+02  0.00000000000E+00 0.  1.
         14    1    3    3    0    0 -0.10212151758E+02 -0.28448743947E+02 -0.12864979932E+03  0.13215290364E+03  0.00000000000E+00 0. -1.
         13    1    5    5    0    0  0.62926703204E+02 -0.29428091330E+02  0.80047343492E+03  0.80348211091E+03  0.00000000000E+00 0. -1.
        -14    1    5    5    0    0 -0.17306432928E+02  0.14123159169E+02  0.15897775179E+03  0.16053940890E+03  0.00000000000E+00 0.  1.
          5    1    4    4  501    0  0.20103289501E+00  0.63966987900E+02  0.38462800665E+03  0.38993331719E+03  0.41800000000E+01 0. -1.
         -5    1    4    4    0  501 -0.61251278793E+02 -0.33705008191E+02  0.20384342998E+03  0.21553970186E+03  0.41800000000E+01 0. -1.
</event>
<event>
11    1  0.8299058E-009  0.1331619E+03  0.7561462E-02  0.1115444E+00
         22   -1    0    0    0    0  0.00000000000E+00  0.00000000000E+00  0.29594944356E+04  0.29594944356E+04  0.00000000000E+00 0.  1.
         22   -1    0    0    0    0 -0.00000000000E+00 -0.00000000000E+00 -0.13103701021E+03  0.13103701021E+03  0.00000000000E+00 0. -1.
        -24    2    1    2    0    0 -0.35412080830E+02  0.26832748052E+02 -0.69316110689E+02  0.13469780391E+03  0.10660564404E+03 0.  0.
         25    2    1    2    0    0  0.99511768019E+01 -0.67407301022E+02  0.15413769142E+03  0.20987878415E+03  0.12509159033E+03 0.  0.
         24    2    1    2    0    0  0.25460904029E+02  0.40574552970E+02  0.27436358446E+04  0.27459548577E+04  0.10215615846E+03 0.  0.
        -13    1    5    5    0    0  0.43376444893E+01  0.60215050986E+02  0.24819684428E+04  0.24827025634E+04  0.00000000000E+00 0.  1.
         14    1    5    5    0    0  0.21123259539E+02 -0.19640498016E+02  0.26166740190E+03  0.26325229433E+03  0.00000000000E+00 0. -1.
         13    1    3    3    0    0  0.16284816177E+02 -0.26231491059E+02 -0.48935992986E+02  0.57862058126E+02  0.00000000000E+00 0. -1.
        -14    1    3    3    0    0 -0.51696897007E+02  0.53064239111E+02 -0.20380117703E+02  0.76835745784E+02  0.00000000000E+00 0.  1.
          5    1    4    4  501    0  0.47073889272E+02  0.14398294305E+02  0.76526706594E+02  0.91088260233E+02  0.41800000000E+01 0.  1.
         -5    1    4    4    0  501 -0.37122712471E+02 -0.81805595327E+02  0.77610984821E+02  0.11879052392E+03  0.41800000000E+01 0.  1.
</event>
<event>
11    1  0.8299058E-009  0.1887791E+03  0.7561462E-02  0.1062755E+00
         22   -1    0    0    0    0  0.00000000000E+00  0.00000000000E+00  0.17895450498E+03  0.17895450498E+03  0.00000000000E+00 0. -1.
         22   -1    0    0    0    0 -0.00000000000E+00 -0.00000000000E+00 -0.21699225415E+04  0.21699225415E+04  0.00000000000E+00 0.  1.
         24    2    1    2    0    0  0.93064517943E+01 -0.34892356252E+02 -0.18407562532E+04  0.18428681745E+04  0.80470107962E+02 0.  0.
         25    2    1    2    0    0 -0.10007164299E+03  0.13725499489E+03 -0.24228204952E+03  0.32124966719E+03  0.12508992683E+03 0.  0.
        -24    2    1    2    0    0  0.90765191195E+02 -0.10236263864E+03  0.92070266241E+02  0.18475920477E+03  0.83322266518E+02 0.  0.
        -11    1    3    3    0    0  0.41638290654E+02 -0.44336213339E+01 -0.70382049560E+03  0.70506502840E+03  0.00000000000E+00 0.  1.
         12    1    3    3    0    0 -0.32331838860E+02 -0.30458734918E+02 -0.11369357576E+04  0.11378031461E+04  0.00000000000E+00 0. -1.
         11    1    5    5    0    0  0.99473210751E+02 -0.63416582613E+02  0.54501001411E+02  0.12994976630E+03  0.00000000000E+00 0. -1.
        -12    1    5    5    0    0 -0.87080195554E+01 -0.38946056029E+02  0.37569264830E+02  0.54809438463E+02  0.00000000000E+00 0.  1.
          5    1    4    4  501    0 -0.70665500909E+02  0.57694047029E+02 -0.35984378934E+02  0.98155814951E+02  0.41800000000E+01 0. -1.
         -5    1    4    4    0  501 -0.29406142081E+02  0.79560947864E+02 -0.20629767058E+03  0.22309385224E+03  0.41800000000E+01 0. -1.
</event>
<event>
11    1  0.8299058E-009  0.2018354E+03  0.7561462E-02  0.1053233E+00
         22   -1    0    0    0    0  0.00000000000E+00  0.00000000000E+00  0.12529913370E+04  0.12529913370E+04  0.00000000000E+00 0. -1.
         22   -1    0    0    0    0 -0.00000000000E+00 -0.00000000000E+00 -0.19752053452E+03  0.19752053452E+03  0.00000000000E+00 0. -1.
        -24    2    1    2    0    0  0.14515639316E+03  0.76795892737E+01 -0.73056973491E+02  0.18147779804E+03  0.80420863205E+02 0.  0.
         25    2    1    2    0    0 -0.21177362259E+03 -0.38130871173E+02  0.16354771448E+03  0.29781666058E+03  0.12507948609E+03 0.  0.
         24    2    1    2    0    0  0.66617229435E+02  0.30451281900E+02  0.96498006146E+03  0.97121741287E+03  0.81924405560E+02 0.  0.
        -13    1    5    5    0    0 -0.10534198832E+02  0.30796980218E+02  0.31331202301E+03  0.31499816999E+03  0.00000000000E+00 0.  1.
         14    1    5    5    0    0  0.77151428267E+02 -0.34569831828E+00  0.65166803845E+03  0.65621924288E+03  0.00000000000E+00 0. -1.
         13    1    3    3    0    0  0.15409272954E+03  0.14576562071E+02 -0.66903777529E+02  0.16862135365E+03  0.00000000000E+00 0. -1.
        -14    1    3    3    0    0 -0.89363363831E+01 -0.68969727971E+01 -0.61531959618E+01  0.12856444386E+02  0.00000000000E+00 0.  1.
          5    1    4    4  501    0 -0.19554892370E+03 -0.49656245271E+02  0.89014134441E+02  0.22055863798E+03  0.41800000000E+01 0. -1.
         -5    1    4    4    0  501 -0.16224698889E+02  0.11525374097E+02  0.74533580039E+02  0.77258022597E+02  0.41800000000E+01 0. -1.
</event>
<event>
11    1  0.8299058E-009  0.1413775E+03  0.7561462E-02  0.1106030E+00
         22   -1    0    0    0    0  0.00000000000E+00  0.00000000000E+00  0.18101694339E+04  0.18101694339E+04  0.00000000000E+00 0.  1.
         22   -1    0    0    0    0 -0.00000000000E+00 -0.00000000000E+00 -0.14347338180E+03  0.14347338180E+03  0.00000000000E+00 0.  1.
        -24    2    1    2    0    0  0.11785506426E+02  0.46158043137E+02 -0.85099568249E+02  0.12575434038E+03  0.79389889154E+02 0.  0.
         25    2    1    2    0    0  0.37641385214E+02 -0.88180732825E+02  0.13459989394E+03  0.20727264045E+03  0.12510835506E+03 0.  0.
         24    2    1    2    0    0 -0.49426891640E+02  0.42022689689E+02  0.16171957264E+04  0.16206158349E+04  0.82853742815E+02 0.  0.
        -13    1    5    5    0    0 -0.48358080872E+02  0.25631816817E+02  0.45160932887E+03  0.45491370604E+03  0.00000000000E+00 0.  1.
         14    1    5    5    0    0 -0.10688107681E+01  0.16390872872E+02  0.11655863975E+04  0.11657021289E+04  0.00000000000E+00 0. -1.
         13    1    3    3    0    0  0.38456274410E+02  0.42935693742E+02 -0.31227607597E+02  0.65555490348E+02  0.00000000000E+00 0. -1.
        -14    1    3    3    0    0 -0.26670767984E+02  0.32223493945E+01 -0.53871960652E+02  0.60198850030E+02  0.00000000000E+00 0.  1.
          5    1    4    4  501    0  0.71612598740E+02 -0.47580035610E+02  0.32167647516E+02  0.91893710523E+02  0.41800000000E+01 0. -1.
         -5    1    4    4    0  501 -0.33971213525E+02 -0.40600697215E+02  0.10243224643E+03  0.11537892993E+03  0.41800000000E+01 0. -1.
</event>
<event>
11    1  0.8299058E-009  0.1545270E+03  0.7561462E-02  0.1092341E+00
         22   -1    0    0    0    0  0.00000000000E+00  0.00000000000E+00  0.51829122596E+03  0.51829122596E+03  0.00000000000E+00 0.  1.
         22   -1    0    0    0    0 -0.00000000000E+00 -0.00000000000E+00 -0.24269536830E+04  0.24269536830E+04  0.00000000000E+00 0.  1.
        -24    2    1    2    0    0  0.89587655579E+01 -0.84050876824E+02 -0.23444181392E+04  0.23471877659E+04  0.76479981269E+02 0.  0.
         25    2    1    2    0    0  0.75755509373E+02  0.10993486106E+03  0.43449778401E+02  0.18801494396E+03  0.12504865066E+03 0.  0.
         24    2    1    2    0    0 -0.84714274930E+02 -0.25883984237E+02  0.39230590374E+03  0.41004219913E+03  0.79901151068E+02 0.  0.
        -13    1    5    5    0    0 -0.87847815582E+02 -0.45370542796E+02  0.30913382323E+03  0.32456038810E+03  0.00000000000E+00 0.  1.
         14    1    5    5    0    0  0.31335406518E+01  0.19486558559E+02  0.83172080513E+02  0.85481811038E+02  0.00000000000E+00 0. -1.
         11    1    3    3    0    0  0.25659818004E+02  0.25571084738E+01 -0.52683319958E+03  0.52746391843E+03  0.00000000000E+00 0. -1.
        -12    1    3    3    0    0 -0.16701052446E+02 -0.86607985297E+02 -0.18175849396E+04  0.18197238474E+04  0.00000000000E+00 0.  1.
          5    1    4    4  501    0  0.64075268462E+02  0.12689504026E+02 -0.23230456525E+02  0.69453510000E+02  0.41800000000E+01 0.  1.
         -5    1    4    4    0  501  0.11680240910E+02  0.97245357035E+02  0.66680234926E+02  0.11856143396E+03  0.41800000000E+01 0.  1.
</event>
<event>
11    1  0.8299058E-009  0.1454207E+03  0.7561462E-02  0.1101652E+00
         22   -1    0    0    0    0  0.00000000000E+00  0.00000000000E+00  0.26851896881E+03  0.26851896881E+03  0.00000000000E+00 0. -1.
         22   -1    0    0    0    0 -0.00000000000E+00 -0.00000000000E+00 -0.11457614236E+04  0.11457614236E+04  0.00000000000E+00 0. -1.
        -24    2    1    2    0    0 -0.31250455897E+02 -0.45953514211E+01 -0.10672840915E+04  0.10707744202E+04  0.80404096782E+02 0.  0.
         25    2    1    2    0    0 -0.49111793653E+02 -0.59025958457E+01  0.15405133731E+02  0.13539624344E+03  0.12509202884E+03 0.  0.
         24    2    1    2    0    0  0.80362249550E+02  0.10497947267E+02  0.17463650300E+03  0.20810972872E+03  0.79015523540E+02 0.  0.
        -11    1    5    5    0    0  0.41869246649E+02 -0.13282590904E+02  0.22431251469E+02  0.49321618775E+02  0.00000000000E+00 0.  1.
         12    1    5    5    0    0  0.38493002900E+02  0.23780538170E+02  0.15220525153E+03  0.15878810995E+03  0.00000000000E+00 0. -1.
         11    1    3    3    0    0 -0.31186176549E+02 -0.34191558381E+02 -0.87529230367E+03  0.87651483566E+03  0.00000000000E+00 0. -1.
        -12    1    3    3    0    0 -0.64279347684E-01  0.29596206960E+02 -0.19199178784E+03  0.19425958457E+03  0.00000000000E+00 0.  1.
          5    1    4    4  501    0 -0.40860726008E+02 -0.55104013754E+02 -0.22810054702E+02  0.72414240707E+02  0.41800000000E+01 0. -1.
         -5    1    4    4    0  501 -0.82510676449E+01  0.49201417909E+02  0.38215188433E+02  0.62982002735E+02  0.41800000000E+01 0. -1.
</event>
<event>
11    1  0.8299058E-009  0.1335202E+03  0.7561462E-02  0.1115018E+00
         22   -1    0    0    0    0  0.00000000000E+00  0.00000000000E+00  0.17494993504E+03  0.17494993504E+03  0.00000000000E+00 0.  1.
         22   -1    0    0    0    0 -0.00000000000E+00 -0.00000000000E+00 -0.15900699114E+03  0.15900699114E+03  0.00000000000E+00 0.  1.
        -24    2    1    2    0    0  0.56757199096E+01 -0.61084043343E+02 -0.32423681695E+02  0.10840909287E+03  0.83293229823E+02 0.  0.
         25    2    1    2    0    0 -0.22305594685E+01  0.15327635958E+02  0.31778367138E+02  0.12999199103E+03  0.12509253093E+03 0.  0.
         24    2    1    2    0    0 -0.34451604412E+01  0.45756407385E+02  0.16588258457E+02  0.95555842278E+02  0.82159787777E+02 0.  0.
        -11    1    5    5    0    0  0.32133066538E+01  0.66212787762E+02 -0.31423736208E+01  0.66365149851E+02  0.00000000000E+00 0.  1.
         12    1    5    5    0    0 -0.66584670950E+01 -0.20456380377E+02  0.19730632078E+02  0.29190692427E+02  0.00000000000E+00 0. -1.
         11    1    3    3    0    0  0.27838851765E+02  0.90191903188E+01 -0.14845773774E+02  0.32813784612E+02  0.00000000000E+00 0. -1.
        -12    1    3    3    0    0 -0.22163131856E+02 -0.70103233662E+02 -0.17577907921E+02  0.75595308257E+02  0.00000000000E+00 0.  1.
          5    1    4    4  501    0  0.39216543842E+02 -0.33768804626E+02  0.39368346004E+02  0.65158334416E+02  0.41800000000E+01 0. -1.
         -5    1    4    4    0  501 -0.41447103310E+02  0.49096440585E+02 -0.75899788658E+01  0.64833656615E+02  0.41800000000E+01 0. -1.
</event>
<event>
11    1  0.8299058E-009  0.3305034E+03  0.7561462E-02  0.9880487E-01
         22   -1    0    0    0    0  0.00000000000E+00  0.00000000000E+00  0.34292754128E+03  0.34292754128E+03  0.00000000000E+00 0.  1.
         22   -1    0    0    0    0 -0.00000000000E+00 -0.00000000000E+00 -0.58953944668E+03  0.58953944668E+03  0.00000000000E+00 0.  1.
        -24    2    1    2    0    0 -0.82306817697E+02  0.29088982695E+03 -0.29583626242E+03  0.43055739167E+03  0.80431770469E+02 0.  0.
         25    2    1    2    0    0  0.32855240775E+02 -0.31468593988E+03 -0.71451647234E+02  0.34764857086E+03  0.12508990098E+03 0.  0.
         24    2    1    2    0    0  0.49451576922E+02  0.23796112928E+02  0.12067600425E+03  0.15426102543E+03  0.78879988044E+02 0.  0.
        -11    1    5    5    0    0  0.75111090599E+01  0.60914701717E+01 -0.11171284837E+02  0.14775668278E+02  0.00000000000E+00 0.  1.
         12    1    5    5    0    0  0.41940467862E+02  0.17704642756E+02  0.13184728909E+03  0.13948535715E+03  0.00000000000E+00 0. -1.
         13    1    3    3    0    0 -0.90883312738E+01  0.17810133380E+03 -0.17127743034E+03  0.24726229193E+03  0.00000000000E+00 0. -1.
        -14    1    3    3    0    0 -0.73218486423E+02  0.11278849315E+03 -0.12455883208E+03  0.18329509974E+03  0.00000000000E+00 0.  1.
          5    1    4    4  501    0  0.56808017644E+02 -0.26610564211E+03 -0.20069257105E+02  0.27287288453E+03  0.41800000000E+01 0. -1.
         -5    1    4    4    0  501 -0.23952776869E+02 -0.48580297763E+02 -0.51382390129E+02  0.74775686328E+02  0.41800000000E+01 0. -1.
</event>
<event>
11    1  0.8299058E-009  0.1303190E+03  0.7561462E-02  0.1118878E+00
         22   -1    0    0    0    0  0.00000000000E+00  0.00000000000E+00  0.25652700907E+03  0.25652700907E+03  0.00000000000E+00 0. -1.
         22   -1    0    0    0    0 -0.00000000000E+00 -0.00000000000E+00 -0.11800038763E+04  0.11800038763E+04  0.00000000000E+00 0. -1.
         24    2    1    2    0    0 -0.31382620709E+02 -0.19246719180E+02 -0.11327357192E+04  0.11362791827E+04  0.81761033589E+02 0.  0.
         25    2    1    2    0    0  0.17114007730E+02  0.71739707313E+01  0.86648498871E+02  0.15329639740E+03  0.12508983965E+03 0.  0.
        -24    2    1    2    0    0  0.14268612979E+02  0.12072748449E+02  0.12261035306E+03  0.14695530520E+03  0.78823971461E+02 0.  0.
        -11    1    3    3    0    0  0.68885078701E+01  0.20788768955E+02 -0.11683638892E+03  0.11887121700E+03  0.00000000000E+00 0.  1.
         12    1    3    3    0    0 -0.38271128579E+02 -0.40035488135E+02 -0.10158993302E+04  0.10174079657E+04  0.00000000000E+00 0. -1.
         13    1    5    5    0    0 -0.28561034660E+02  0.22605676905E+02  0.63471667168E+02  0.73180611246E+02  0.00000000000E+00 0. -1.
        -14    1    5    5    0    0  0.42829647639E+02 -0.10532928456E+02  0.59138685895E+02  0.73774693955E+02  0.00000000000E+00 0.  1.
          5    1    4    4  501    0 -0.26542526131E+02 -0.47812628446E+02  0.48864100316E+02  0.73455604497E+02  0.41800000000E+01 0.  1.
         -5    1    4    4    0  501  0.43656533861E+02  0.54986599177E+02  0.37784398555E+02  0.79840792907E+02  0.41800000000E+01 0.  1.
</event>
<event>
11    1  0.8299058E-009  0.1450829E+03  0.7561462E-02  0.1102012E+00
         22   -1    0    0    0    0  0.00000000000E+00  0.00000000000E+00  0.62255143290E+03  0.62255143290E+03  0.00000000000E+00 0. -1.
         22   -1    0    0    0    0 -0.00000000000E+00 -0.00000000000E+00 -0.13898906067E+04  0.13898906067E+04  0.00000000000E+00 0. -1.
         24    2    1    2    0    0  0.56922555851E+02 -0.50399660106E+02 -0.12248908667E+04  0.12297813780E+04  0.78894228386E+02 0.  0.
         25    2    1    2    0    0 -0.30498730359E+02  0.33194637846E+02 -0.13208409132E+03  0.18741814322E+03  0.12508915498E+03 0.  0.
        -24    2    1    2    0    0 -0.26423825492E+02  0.17205022261E+02  0.58963578422E+03  0.59524251836E+03  0.75160270614E+02 0.  0.
        -11    1    3    3    0    0 -0.38746676615E+01  0.17313886065E+02 -0.26187561606E+03  0.26247594554E+03  0.00000000000E+00 0.  1.
         12    1    3    3    0    0  0.60797223513E+02 -0.67713546172E+02 -0.96301525066E+03  0.96730543249E+03  0.00000000000E+00 0. -1.
         11    1    5    5    0    0 -0.43376090974E+02  0.26854782915E+02  0.53104684630E+03  0.53349172215E+03  0.00000000000E+00 0. -1.
        -12    1    5    5    0    0  0.16952265481E+02 -0.96497606547E+01  0.58588937919E+02  0.61750796206E+02  0.00000000000E+00 0.  1.
          5    1    4    4  501    0  0.36464945562E+02  0.49962708418E+02 -0.47143253867E+02  0.77884037340E+02  0.41800000000E+01 0.  1.
         -5    1    4    4    0  501 -0.66963675920E+02 -0.16768070572E+02 -0.84940837452E+02  0.10953410588E+03  0.41800000000E+01 0.  1.
</event>
<event>
11    1  0.8299058E-009  0.1570289E+03  0.7561462E-02  0.1089906E+00
         22   -1    0    0    0    0  0.00000000000E+00  0.00000000000E+00  0.16630434514E+04  0.16630434514E+04  0.00000000000E+00 0. -1.
         22   -1    0    0    0    0 -0.00000000000E+00 -0.00000000000E+00 -0.82513844610E+02  0.82513844610E+02  0.00000000000E+00 0. -1.
         24    2    1    2    0    0  0.44921748359E+02 -0.35207721968E+02  0.63474684127E+01  0.10159029327E+03  0.83801850638E+02 0.  0.
         25    2    1    2    0    0 -0.53026915662E+02  0.12662762124E+03  0.23620194345E+03  0.30047710177E+03  0.12509485343E+03 0.  0.
        -24    2    1    2    0    0  0.81051673034E+01 -0.91419899267E+02  0.13379801949E+04  0.13434899010E+04  0.79692033893E+02 0.  0.
        -11    1    3    3    0    0 -0.59026766479E+01 -0.47815947138E+01  0.34981527774E+02  0.35796822834E+02  0.00000000000E+00 0.  1.
         12    1    3    3    0    0  0.50824425007E+02 -0.30426127254E+02 -0.28634059361E+02  0.65793470439E+02  0.00000000000E+00 0. -1.
         13    1    5    5    0    0  0.11604764064E+02 -0.30917567346E+02  0.96926312293E+03  0.96982553482E+03  0.00000000000E+00 0. -1.
        -14    1    5    5    0    0 -0.34995967606E+01 -0.60502331921E+02  0.36871707200E+03  0.37366436615E+03  0.00000000000E+00 0.  1.
          5    1    4    4  501    0 -0.16823377674E+02  0.21501412296E+02 -0.10734394122E+02  0.29631678728E+02  0.41800000000E+01 0.  1.
         -5    1    4    4    0  501 -0.36203537989E+02  0.10512620894E+03  0.24693633757E+03  0.27084542304E+03  0.41800000000E+01 0.  1.
</event>
<event>
11    1  0.8299058E-009  0.1290898E+03  0.7561462E-02  0.1120392E+00
         22   -1    0    0    0    0  0.00000000000E+00  0.00000000000E+00  0.44794056039E+03  0.44794056039E+03  0.00000000000E+00 0. -1.
         22   -1    0    0    0    0 -0.00000000000E+00 -0.00000000000E+00 -0.13725289890E+04  0.13725289890E+04  0.00000000000E+00 0. -1.
        -24    2    1    2    0    0  0.90276470669E+01 -0.67346479966E+01 -0.12648055651E+04  0.12676034560E+04  0.83417925674E+02 0.  0.
         25    2    1    2    0    0  0.53413385577E+01 -0.22176350915E+02 -0.62210269987E+02  0.14155977320E+03  0.12509488902E+03 0.  0.
         24    2    1    2    0    0 -0.14368985625E+02  0.28910998912E+02  0.40242740649E+03  0.41130632014E+03  0.78630515012E+02 0.  0.
        -11    1    5    5    0    0  0.17312182945E+02 -0.57883177284E+01  0.24943958825E+02  0.30909826630E+02  0.00000000000E+00 0.  1.
         12    1    5    5    0    0 -0.31681168570E+02  0.34699316640E+02  0.37748344766E+03  0.38039649351E+03  0.00000000000E+00 0. -1.
         13    1    3    3    0    0  0.89649137503E+01  0.31275308487E+02 -0.94297015903E+03  0.94353125832E+03  0.00000000000E+00 0. -1.
        -14    1    3    3    0    0  0.62733316613E-01 -0.38009956484E+02 -0.32183540607E+03  0.32407219771E+03  0.00000000000E+00 0.  1.
          5    1    4    4  501    0  0.53619818689E+01  0.50272504739E+02 -0.42970809600E+02  0.66483369800E+02  0.41800000000E+01 0.  1.
         -5    1    4    4    0  501 -0.20643311294E-01 -0.72448855654E+02 -0.19239460387E+02  0.75076403401E+02  0.41800000000E+01 0.  1.
</event>
<event>
11    1  0.8299058E-009  0.1528073E+03  0.7561462E-02  0.1094044E+00
         22   -1    0    0    0    0  0.00000000000E+00  0.00000000000E+00  0.10451281933E+04  0.10451281933E+04  0.00000000000E+00 0.  1.
         22   -1    0    0    0    0 -0.00000000000E+00 -0.00000000000E+00 -0.24000720171E+03  0.24000720171E+03  0.00000000000E+00 0. -1.
         24    2    1    2    0    0  0.54970447186E+02 -0.16425996494E+02 -0.15257472636E+03  0.18076532491E+03  0.78137648675E+02 0.  0.
         25    2    1    2    0    0  0.31598020250E+02  0.42278512839E+02 -0.31102457066E+01  0.13577308945E+03  0.12505499054E+03 0.  0.
        -24    2    1    2    0    0 -0.86568467437E+02 -0.25852516346E+02  0.96080596370E+03  0.96859698070E+03  0.82882802620E+02 0.  0.
        -13    1    3    3    0    0 -0.14644159040E+02  0.48551846362E+01 -0.50080925000E+01  0.16220517943E+02  0.00000000000E+00 0.  1.
         14    1    3    3    0    0  0.69614606227E+02 -0.21281181130E+02 -0.14756663386E+03  0.16454480696E+03  0.00000000000E+00 0. -1.
         11    1    5    5    0    0 -0.38021836803E+02 -0.39454951925E+01  0.11646431435E+03  0.12257717375E+03  0.00000000000E+00 0. -1.
        -12    1    5    5    0    0 -0.48546630633E+02 -0.21907021153E+02  0.84434164935E+03  0.84601980695E+03  0.00000000000E+00 0.  1.
          5    1    4    4  501    0  0.16813215284E+02  0.34163387289E+02 -0.62824966415E+02  0.73581723576E+02  0.41800000000E+01 0. -1.
         -5    1    4    4    0  501  0.14784804966E+02  0.81151255501E+01  0.59714720709E+02  0.62191365879E+02  0.41800000000E+01 0. -1.
</event>
<event>
11    1  0.8299058E-009  0.1362202E+03  0.7561462E-02  0.1111854E+00
         22   -1    0    0    0    0  0.00000000000E+00  0.00000000000E+00  0.18369779350E+03  0.18369779350E+03  0.00000000000E+00 0.  1.
         22   -1    0    0    0    0 -0.00000000000E+00 -0.00000000000E+00 -0.39072013056E+03  0.39072013056E+03  0.00000000000E+00 0. -1.
        -24    2    1    2    0    0 -0.27877635843E+02  0.31333964898E+02 -0.30055167106E+03  0.31412465090E+03  0.81141908971E+02 0.  0.
         25    2    1    2    0    0  0.51517816000E+02 -0.63596996219E+02  0.44780164437E+02  0.15605805079E+03  0.12510071461E+03 0.  0.
         24    2    1    2    0    0 -0.23640180157E+02  0.32263031321E+02  0.48749169561E+02  0.10423522237E+03  0.82998426140E+02 0.  0.
        -13    1    5    5    0    0 -0.73483988752E+01  0.59677171538E+02  0.29353720616E+02  0.66910422827E+02  0.00000000000E+00 0.  1.
         14    1    5    5    0    0 -0.16291781282E+02 -0.27414140217E+02  0.19395448945E+02  0.37324799543E+02  0.00000000000E+00 0. -1.
         13    1    3    3    0    0 -0.51243198307E+02  0.26597142336E+02 -0.26568996471E+03  0.27189047556E+03  0.00000000000E+00 0. -1.
        -14    1    3    3    0    0  0.23365562464E+02  0.47368225620E+01 -0.34861706354E+02  0.42234175346E+02  0.00000000000E+00 0.  1.
          5    1    4    4  501    0  0.25901295693E+02  0.30156613590E+02  0.43073389333E+02  0.58762979251E+02  0.41800000000E+01 0. -1.
         -5    1    4    4    0  501  0.25616520307E+02 -0.93753609809E+02  0.17067751040E+01  0.97295071541E+02  0.41800000000E+01 0. -1.
</event>
<event>
11    1  0.8299058E-009  0.4132396E+03  0.7561462E-02  0.9611482E-01
         22   -1    0    0    0    0  0.00000000000E+00  0.00000000000E+00  0.44529346554E+03  0.44529346554E+03  0.00000000000E+00 0. -1.
         22   -1    0    0    0    0 -0.00000000000E+00 -0.00000000000E+00 -0.62407119416E+03  0.62407119416E+03  0.00000000000E+00 0.  1.
         24    2    1    2    0    0  0.32391854073E+03 -0.13558268899E+03 -0.13198501186E+03  0.38421678512E+03  0.83045818853E+02 0.  0.
         25    2    1    2    0    0 -0.38114546370E+03  0.24939581812E+03 -0.15647283767E+03  0.49759759270E+03  0.12509786864E+03 0.  0.
        -24    2    1    2    0    0  0.57226922968E+02 -0.11381312913E+03  0.10968012092E+03  0.18755028188E+03  0.83168685399E+02 0.  0.
        -11    1    3    3    0    0  0.31449575902E+03 -0.14535012708E+03 -0.12179035175E+03  0.36724260600E+03  0.00000000000E+00 0.  1.
         12    1    3    3    0    0  0.94227817131E+01  0.97674380876E+01 -0.10194660115E+02  0.16974179122E+02  0.00000000000E+00 0. -1.
         11    1    5    5    0    0  0.64393798048E+02 -0.12355184150E+03  0.10547904068E+03  0.17474966892E+03  0.00000000000E+00 0. -1.
        -12    1    5    5    0    0 -0.71668750798E+01  0.97387123641E+01  0.42010802461E+01  0.12800612960E+02  0.00000000000E+00 0.  1.
          5    1    4    4  501    0 -0.22364729348E+02 -0.96948229608E+01  0.71569733758E+01  0.25746172122E+02  0.41800000000E+01 0.  1.
         -5    1    4    4    0  501 -0.35878073435E+03  0.25909064108E+03 -0.16362981105E+03  0.47185142058E+03  0.41800000000E+01 0.  1.
</event>
<event>
11    1  0.8299058E-009  0.1547003E+03  0.7561462E-02  0.1092171E+00
         22   -1    0    0    0    0  0.00000000000E+00  0.00000000000E+00  0.14671793369E+03  0.14671793369E+03  0.00000000000E+00 0.  1.
         22   -1    0    0    0    0 -0.00000000000E+00 -0.00000000000E+00 -0.24984881461E+04  0.24984881461E+04  0.00000000000E+00 0.  1.
         24    2    1    2    0    0  0.41437334134E+02 -0.76241520986E+02 -0.14873761882E+04  0.14919257013E+04  0.77617980752E+02 0.  0.
         25    2    1    2    0    0 -0.49474290883E+02  0.90729522762E+02 -0.99031637868E+03  0.10035206105E+04  0.12509010392E+03 0.  0.
        -24    2    1    2    0    0  0.80369567490E+01 -0.14488001777E+02  0.12592235442E+03  0.14975976797E+03  0.79353978409E+02 0.  0.
        -13    1    3    3    0    0 -0.17840332952E+02 -0.46605990224E+02 -0.68737329474E+03  0.68918244473E+03  0.00000000000E+00 0.  1.
         14    1    3    3    0    0  0.59277667085E+02 -0.29635530761E+02 -0.80000289341E+03  0.80274325657E+03  0.00000000000E+00 0. -1.
         13    1    5    5    0    0  0.42847796747E+01 -0.30162114411E+02  0.90491062996E+01  0.31780478402E+02  0.00000000000E+00 0. -1.
        -14    1    5    5    0    0  0.37521770743E+01  0.15674112635E+02  0.11687324813E+03  0.11797928957E+03  0.00000000000E+00 0.  1.
          5    1    4    4  501    0 -0.65927535291E+02  0.87475294296E+02 -0.45842343954E+03  0.47134688854E+03  0.41800000000E+01 0. -1.
         -5    1    4    4    0  501  0.16453244408E+02  0.32542284661E+01 -0.53189293914E+03  0.53217372198E+03  0.41800000000E+01 0. -1.
</event>
<event>
11    1  0.8299058E-009  0.1378805E+03  0.7561462E-02  0.1109949E+00
         22   -1    0    0    0    0  0.00000000000E+00  0.00000000000E+00  0.13564986758E+04  0.13564986758E+04  0.00000000000E+00 0. -1.
         22   -1    0    0    0    0 -0.00000000000E+00 -0.00000000000E+00 -0.10220256632E+04  0.10220256632E+04  0.00000000000E+00 0. -1.
         24    2    1    2    0    0  0.18077621454E+01  0.57828416981E+02 -0.10027753876E+04  0.10076753172E+04  0.80645354731E+02 0.  0.
         25    2    1    2    0    0 -0.57840669305E+02 -0.70491023193E+02  0.40839744545E+03  0.43675726816E+03  0.12511558839E+03 0.  0.
        -24    2    1    2    0    0  0.56032907160E+02  0.12662606212E+02  0.92885095465E+03  0.93409175367E+03  0.80394527383E+02 0.  0.
        -11    1    3    3    0    0 -0.20289336461E+02  0.16382843106E+02 -0.90252867090E+02  0.93944849461E+02  0.00000000000E+00 0.  1.
         12    1    3    3    0    0  0.22097098607E+02  0.41445573875E+02 -0.91252252046E+03  0.91373046776E+03  0.00000000000E+00 0. -1.
         11    1    5    5    0    0 -0.18953191735E+01  0.29229209059E+02  0.52010143985E+03  0.52092556726E+03  0.00000000000E+00 0. -1.
        -12    1    5    5    0    0  0.57928226333E+02 -0.16566602847E+02  0.40874951480E+03  0.41316618641E+03  0.00000000000E+00 0.  1.
          5    1    4    4  501    0 -0.52371486615E+02  0.25392637822E+02  0.14056793616E+03  0.15219847484E+03  0.41800000000E+01 0.  1.
         -5    1    4    4    0  501 -0.54691826906E+01 -0.95883661016E+02  0.26782950929E+03  0.28455879332E+03  0.41800000000E+01 0.  1.
</event>
<event>
11    1  0.8299058E-009  0.1254095E+03  0.7561462E-02  0.1125041E+00
         22   -1    0    0    0    0  0.00000000000E+00  0.00000000000E+00  0.84344474237E+03  0.84344474237E+03  0.00000000000E+00 0.  1.
         22   -1    0    0    0    0 -0.00000000000E+00 -0.00000000000E+00 -0.23678910608E+03  0.23678910608E+03  0.00000000000E+00 0.  1.
         24    2    1    2    0    0  0.56146710505E+01  0.21005348300E+02 -0.19388855436E+03  0.21082388550E+03  0.79882350986E+02 0.  0.
         25    2    1    2    0    0  0.65768378516E+00 -0.12462727711E+02  0.92885290879E+02  0.15629992792E+03  0.12508492346E+03 0.  0.
        -24    2    1    2    0    0 -0.62723548356E+01 -0.85426205886E+01  0.70765889978E+03  0.71311003503E+03  0.87364093440E+02 0.  0.
        -11    1    3    3    0    0 -0.13218904865E+01  0.40196106989E+02 -0.18363357068E+03  0.18798607048E+03  0.00000000000E+00 0.  1.
         12    1    3    3    0    0  0.69365615370E+01 -0.19190758689E+02 -0.10254983677E+02  0.22837815027E+02  0.00000000000E+00 0. -1.
         13    1    5    5    0    0  0.45999353861E+01  0.33684075299E+02  0.48693774808E+03  0.48812308575E+03  0.00000000000E+00 0. -1.
        -14    1    5    5    0    0 -0.10872290222E+02 -0.42226695887E+02  0.22072115170E+03  0.22498694928E+03  0.00000000000E+00 0.  1.
          5    1    4    4  501    0 -0.59217674523E+01  0.31525568319E+02 -0.17812187699E+02  0.36927973384E+02  0.41800000000E+01 0. -1.
         -5    1    4    4    0  501  0.65794512374E+01 -0.43988296031E+02  0.11069747858E+03  0.11937195454E+03  0.41800000000E+01 0. -1.
</event>
<event>
11    1  0.8299058E-009  0.3965258E+03  0.7561462E-02  0.9660065E-01
         22   -1    0    0    0    0  0.00000000000E+00  0.00000000000E+00  0.22262275939E+04  0.22262275939E+04  0.00000000000E+00 0.  1.
         22   -1    0    0    0    0 -0.00000000000E+00 -0.00000000000E+00 -0.16063446881E+03  0.16063446881E+03  0.00000000000E+00 0.  1.
        -24    2    1    2    0    0  0.77052015022E+02  0.10636033456E+02 -0.56229312086E+02  0.12541293046E+03  0.80725023148E+02 0.  0.
         25    2    1    2    0    0 -0.27641848496E+03 -0.30028818281E+03  0.11545107029E+04  0.12309006850E+04  0.12506542919E+03 0.  0.
         24    2    1    2    0    0  0.19936646993E+03  0.28965214935E+03  0.96731173427E+03  0.10305484473E+04  0.51891752353E+02 0.  0.
        -13    1    5    5    0    0  0.18840499799E+03  0.26082650125E+03  0.91372809020E+03  0.96872386666E+03  0.00000000000E+00 0.  1.
         14    1    5    5    0    0  0.10961471942E+02  0.28825648106E+02  0.53583644069E+02  0.61824580609E+02  0.00000000000E+00 0. -1.
         13    1    3    3    0    0  0.34688335352E+02 -0.19677190866E+02 -0.61239663842E+02  0.73080564293E+02  0.00000000000E+00 0. -1.
        -14    1    3    3    0    0  0.42363679670E+02  0.30313224322E+02  0.50103517555E+01  0.52332366167E+02  0.00000000000E+00 0.  1.
          5    1    4    4  501    0 -0.19512717525E+03 -0.23939461467E+03  0.69926224126E+03  0.76444067822E+03  0.41800000000E+01 0. -1.
         -5    1    4    4    0  501 -0.81291309702E+02 -0.60893568144E+02  0.45524846166E+03  0.46646000677E+03  0.41800000000E+01 0. -1.
</event>
<event>
11    1  0.8299058E-009  0.1379270E+03  0.7561462E-02  0.1109896E+00
         22   -1    0    0    0    0  0.00000000000E+00  0.00000000000E+00  0.61345507878E+03  0.61345507878E+03  0.00000000000E+00 0. -1.
         22   -1    0    0    0    0 -0.00000000000E+00 -0.00000000000E+00 -0.67456304215E+02  0.67456304215E+02  0.00000000000E+00 0. -1.
        -24    2    1    2    0    0 -0.15675695564E+02 -0.58273219709E+02  0.54288825712E+02  0.11516262546E+03  0.81692460718E+02 0.  0.
         25    2    1    2    0    0  0.47510104274E+02  0.39133843230E+02  0.11968874125E+03  0.18374145809E+03  0.12508741321E+03 0.  0.
         24    2    1    2    0    0 -0.31834408710E+02  0.19139376478E+02  0.37202120760E+03  0.38200729945E+03  0.78422271189E+02 0.  0.
        -11    1    5    5    0    0 -0.57554800839E+02  0.75168979692E+01  0.23020904696E+03  0.23741369834E+03  0.00000000000E+00 0.  1.
         12    1    5    5    0    0  0.25720392129E+02  0.11622478509E+02  0.14181216064E+03  0.14459360111E+03  0.00000000000E+00 0. -1.
         11    1    3    3    0    0 -0.41449965271E+02 -0.25794186158E+02  0.25878622969E+01  0.48889024246E+02  0.00000000000E+00 0. -1.
        -12    1    3    3    0    0  0.25774269707E+02 -0.32479033550E+02  0.51700963415E+02  0.66273601210E+02  0.00000000000E+00 0.  1.
          5    1    4    4  501    0  0.55584311445E+02  0.66487537244E+02  0.33746600917E+02  0.93094112387E+02  0.41800000000E+01 0.  1.
         -5    1    4    4    0  501 -0.80742071704E+01 -0.27353694014E+02  0.85942140333E+02  0.90647345701E+02  0.41800000000E+01 0.  1.
</event>
<event>
11    1  0.8299058E-009  0.1618840E+03  0.7561462E-02  0.1085319E+00
         22   -1    0    0    0    0  0.00000000000E+00  0.00000000000E+00  0.26057661849E+04  0.26057661849E+04  0.00000000000E+00 0.  1.
         22   -1    0    0    0    0 -0.00000000000E+00 -0.00000000000E+00 -0.43431571817E+03  0.43431571817E+03  0.00000000000E+00 0.  1.
        -24    2    1    2    0    0  0.33619030515E+02  0.31398009427E+02 -0.41099863511E+03  0.42079775864E+03  0.77683984191E+02 0.  0.
         25    2    1    2    0    0  0.71458439508E+02 -0.11935538148E+02  0.30112039395E+03  0.33402059879E+03  0.12508998009E+03 0.  0.
         24    2    1    2    0    0 -0.10507747002E+03 -0.19462471280E+02  0.22813287079E+04  0.22852635457E+04  0.80924267579E+02 0.  0.
        -13    1    5    5    0    0 -0.53881713124E+02  0.19536008556E+02  0.15651379197E+04  0.15661869627E+04  0.00000000000E+00 0.  1.
         14    1    5    5    0    0 -0.51195756898E+02 -0.38998479835E+02  0.71619078825E+03  0.71907658294E+03  0.00000000000E+00 0. -1.
         11    1    3    3    0    0  0.18164352378E+02 -0.12766549467E+01 -0.16273972700E+02  0.24421624283E+02  0.00000000000E+00 0. -1.
        -12    1    3    3    0    0  0.15454678137E+02  0.32674664374E+02 -0.39472466241E+03  0.39637613435E+03  0.00000000000E+00 0.  1.
          5    1    4    4  501    0  0.60399240689E+02  0.44192586874E+01  0.41309539817E+02  0.73427165293E+02  0.41800000000E+01 0. -1.
         -5    1    4    4    0  501  0.11059198819E+02 -0.16354796835E+02  0.25981085413E+03  0.26059343350E+03  0.41800000000E+01 0. -1.
</event>
<event>
11    1  0.8299058E-009  0.1632330E+03  0.7561462E-02  0.1084075E+00
         22   -1    0    0    0    0  0.00000000000E+00  0.00000000000E+00  0.12381771072E+03  0.12381771072E+03  0.00000000000E+00 0. -1.
         22   -1    0    0    0    0 -0.00000000000E+00 -0.00000000000E+00 -0.38442072073E+04  0.38442072073E+04  0.00000000000E+00 0.  1.
        -24    2    1    2    0    0  0.45367025892E+02  0.91052907289E+02 -0.29843695556E+04  0.29872271923E+04  0.81950323470E+02 0.  0.
         25    2    1    2    0    0 -0.50325772838E+02 -0.11508941945E+03 -0.83350686092E+03  0.85214780817E+03  0.12507574461E+03 0.  0.
         24    2    1    2    0    0  0.49587469458E+01  0.24036512163E+02  0.97486919958E+02  0.12864991746E+03  0.80279253933E+02 0.  0.
        -11    1    5    5    0    0 -0.25654922654E+01  0.21596894154E+01 -0.14200779391E+02  0.14591372254E+02  0.00000000000E+00 0.  1.
         12    1    5    5    0    0  0.75242392112E+01  0.21876822747E+02  0.11168769935E+03  0.11405854521E+03  0.00000000000E+00 0. -1.
         13    1    3    3    0    0  0.11627399309E+02 -0.14393596479E+02 -0.29497154213E+03  0.29555131991E+03  0.00000000000E+00 0. -1.
        -14    1    3    3    0    0  0.33739626583E+02  0.10544650377E+03 -0.26893980134E+04  0.26916758724E+04  0.00000000000E+00 0.  1.
          5    1    4    4  501    0 -0.67889437324E+01 -0.11882334716E+03 -0.42759662421E+03  0.44387095312E+03  0.41800000000E+01 0. -1.
         -5    1    4    4    0  501 -0.43536829105E+02  0.37339277118E+01 -0.40591023671E+03  0.40827685505E+03  0.41800000000E+01 0. -1.
</event>
<event>
11    1  0.8299058E-009  0.2664958E+03  0.7561462E-02  0.1015461E+00
         22   -1    0    0    0    0  0.00000000000E+00  0.00000000000E+00  0.39016702916E+03  0.39016702916E+03  0.00000000000E+00 0. -1.
         22   -1    0    0    0    0 -0.00000000000E+00 -0.00000000000E+00 -0.26642608972E+03  0.26642608972E+03  0.00000000000E+00 0. -1.
        -24    2    1    2    0    0 -0.21228240286E+00 -0.19373428148E+01 -0.46144284069E+01  0.80790953175E+02  0.80635518256E+02 0.  0.
         25    2    1    2    0    0 -0.22494752117E+02  0.23561031174E+03 -0.48439409693E+02  0.27205047962E+03  0.12508738617E+03 0.  0.
         24    2    1    2    0    0  0.22707034520E+02 -0.23367296893E+03  0.17679477754E+03  0.30375168609E+03  0.76746515318E+02 0.  0.
        -11    1    5    5    0    0  0.21281142338E+02 -0.11666527553E+02  0.24774302356E+02  0.34680844014E+02  0.00000000000E+00 0.  1.
         12    1    5    5    0    0  0.14258921820E+01 -0.22200644137E+03  0.15202047519E+03  0.26907084208E+03  0.00000000000E+00 0. -1.
         13    1    3    3    0    0 -0.21323149762E+02 -0.34438255442E+02 -0.98443402571E+01  0.41684303866E+02  0.00000000000E+00 0. -1.
        -14    1    3    3    0    0  0.21110867359E+02  0.32500912627E+02  0.52299118503E+01  0.39106649310E+02  0.00000000000E+00 0.  1.
          5    1    4    4  501    0 -0.52334181699E+01  0.89733601073E+02 -0.81520668035E+02  0.12141910700E+03  0.41800000000E+01 0.  1.
         -5    1    4    4    0  501 -0.17261333947E+02  0.14587671067E+03  0.33081258342E+02  0.15063137262E+03  0.41800000000E+01 0.  1.
</event>
<event>
11    1  0.8299058E-009  0.1273183E+03  0.7561462E-02  0.1122609E+00
         22   -1    0    0    0    0  0.00000000000E+00  0.00000000000E+00  0.19723872332E+03  0.19723872332E+03  0.00000000000E+00 0. -1.
         22   -1    0    0    0    0 -0.00000000000E+00 -0.00000000000E+00 -0.17104663157E+03  0.17104663157E+03  0.00000000000E+00 0. -1.
        -24    2    1    2    0    0  0.12663142885E+01  0.13227830751E+01 -0.56442462530E+02  0.97013435467E+02  0.78882835761E+02 0.  0.
         25    2    1    2    0    0  0.20158390516E+02 -0.11642306273E+02 -0.32664726203E+02  0.13136504714E+03  0.12509151558E+03 0.  0.
         24    2    1    2    0    0 -0.21424704805E+02  0.10319523198E+02  0.11529928049E+03  0.13990687228E+03  0.75594300678E+02 0.  0.
        -13    1    5    5    0    0  0.67989168265E+01  0.20684970931E+02  0.10843042400E+01  0.21800665313E+02  0.00000000000E+00 0.  1.
         14    1    5    5    0    0 -0.28223621631E+02 -0.10365447732E+02  0.11421497625E+03  0.11810620696E+03  0.00000000000E+00 0. -1.
         11    1    3    3    0    0  0.13051693921E+02 -0.36355621057E+02 -0.21038618568E+02  0.43985240341E+02  0.00000000000E+00 0. -1.
        -12    1    3    3    0    0 -0.11785379632E+02  0.37678404132E+02 -0.35403843962E+02  0.53028195126E+02  0.00000000000E+00 0.  1.
          5    1    4    4  501    0 -0.19038058664E+02 -0.95245734024E+01 -0.72264299491E+02  0.75450424500E+02  0.41800000000E+01 0.  1.
         -5    1    4    4    0  501  0.39196449181E+02 -0.21177328711E+01  0.39599573288E+02  0.55914622645E+02  0.41800000000E+01 0.  1.
</event>
<event>
11    1  0.8299058E-009  0.1348705E+03  0.7561462E-02  0.1113425E+00
         22   -1    0    0    0    0  0.00000000000E+00  0.00000000000E+00  0.58742053653E+03  0.58742053653E+03  0.00000000000E+00 0.  1.
         22   -1    0    0    0    0 -0.00000000000E+00 -0.00000000000E+00 -0.47356434187E+03  0.47356434187E+03  0.00000000000E+00 0. -1.
         24    2    1    2    0    0  0.28509144814E+02 -0.82198424488E+01 -0.43835229889E+03  0.44545435594E+03  0.73460929308E+02 0.  0.
         25    2    1    2    0    0 -0.34618963287E+02  0.55966550822E+02  0.16508689255E+03  0.21732955028E+03  0.12509086259E+03 0.  0.
        -24    2    1    2    0    0  0.61098184726E+01 -0.47746708373E+02  0.38712160099E+03  0.39820097218E+03  0.79898699885E+02 0.  0.
        -11    1    3    3    0    0 -0.22270191905E+01  0.29718396948E+02 -0.14041983543E+03  0.14354745875E+03  0.00000000000E+00 0.  1.
         12    1    3    3    0    0  0.30736164005E+02 -0.37938239397E+02 -0.29793246346E+03  0.30190689719E+03  0.00000000000E+00 0. -1.
         11    1    5    5    0    0 -0.36406137205E+02 -0.28224765446E+02  0.17300103196E+03  0.17902905147E+03  0.00000000000E+00 0. -1.
        -12    1    5    5    0    0  0.42515955677E+02 -0.19521942927E+02  0.21412056904E+03  0.21917192071E+03  0.00000000000E+00 0.  1.
          5    1    4    4  501    0 -0.37724652575E+02  0.42016607027E+01 -0.58660636764E+01  0.38635300797E+02  0.41800000000E+01 0. -1.
         -5    1    4    4    0  501  0.31056892885E+01  0.51764890119E+02  0.17095295623E+03  0.17869424948E+03  0.41800000000E+01 0. -1.
</event>
<event>
11    1  0.8299058E-009  0.1551199E+03  0.7561462E-02  0.1091759E+00
         22   -1    0    0    0    0  0.00000000000E+00  0.00000000000E+00  0.36413648060E+03  0.36413648060E+03  0.00000000000E+00 0. -1.
         22   -1    0    0    0    0 -0.00000000000E+00 -0.00000000000E+00 -0.81777000132E+03  0.81777000132E+03  0.00000000000E+00 0. -1.
        -24    2    1    2    0    0  0.90060366700E+02  0.16112710062E+02 -0.63096319016E+03  0.64264950085E+03  0.80705294324E+02 0.  0.
         25    2    1    2    0    0 -0.10332715277E+03  0.72801468516E+02 -0.12276019122E+03  0.21608133223E+03  0.12507806871E+03 0.  0.
         24    2    1    2    0    0  0.13266786073E+02 -0.88914178578E+02  0.30008986066E+03  0.32317564884E+03  0.79415595251E+02 0.  0.
        -11    1    5    5    0    0 -0.19452404327E+02 -0.13867213933E+02  0.19352459020E+02  0.30744321858E+02  0.00000000000E+00 0.  1.
         12    1    5    5    0    0  0.32719190400E+02 -0.75046964645E+02  0.28073740164E+03  0.29243132698E+03  0.00000000000E+00 0. -1.
         13    1    3    3    0    0  0.61010149460E+02  0.97594666660E+01 -0.58265956809E+03  0.58592632456E+03  0.00000000000E+00 0. -1.
        -14    1    3    3    0    0  0.29050217241E+02  0.63532433959E+01 -0.48303622068E+02  0.56723176289E+02  0.00000000000E+00 0.  1.
          5    1    4    4  501    0 -0.31550839437E+02  0.94971383682E+02 -0.52268876460E+02  0.11298020638E+03  0.41800000000E+01 0.  1.
         -5    1    4    4    0  501 -0.71776313336E+02 -0.22169915167E+02 -0.70491314761E+02  0.10310112585E+03  0.41800000000E+01 0.  1.
</event>
<event>
11    1  0.8299058E-009  0.1924651E+03  0.7561462E-02  0.1059984E+00
         22   -1    0    0    0    0  0.00000000000E+00  0.00000000000E+00  0.35439512017E+03  0.35439512017E+03  0.00000000000E+00 0. -1.
         22   -1    0    0    0    0 -0.00000000000E+00 -0.00000000000E+00 -0.22047903161E+04  0.22047903161E+04  0.00000000000E+00 0.  1.
         24    2    1    2    0    0 -0.12080768236E+02  0.15513768620E+02 -0.20592216403E+04  0.20608871080E+04  0.80469162213E+02 0.  0.
         25    2    1    2    0    0  0.18330390310E+02  0.13326492434E+03 -0.48412056849E+02  0.18995830623E+03  0.12507952506E+03 0.  0.
        -24    2    1    2    0    0 -0.62496220742E+01 -0.14877869296E+03  0.25723850127E+03  0.30834002200E+03  0.82022956391E+02 0.  0.
        -13    1    3    3    0    0  0.11868539537E+02 -0.50378229086E+01 -0.17522687704E+04  0.17523162060E+04  0.00000000000E+00 0.  1.
         14    1    3    3    0    0 -0.23949307773E+02  0.20551591529E+02 -0.30695286987E+03  0.30857090203E+03  0.00000000000E+00 0. -1.
         11    1    5    5    0    0  0.29835702707E+02 -0.83332484077E+02  0.18152235127E+03  0.20195255895E+03  0.00000000000E+00 0. -1.
        -12    1    5    5    0    0 -0.36085324781E+02 -0.65446208883E+02  0.75716150003E+02  0.10638746304E+03  0.00000000000E+00 0.  1.
          5    1    4    4  501    0  0.45733887465E+02  0.11329703752E+03 -0.77788830314E+02  0.14490128259E+03  0.41800000000E+01 0.  1.
         -5    1    4    4    0  501 -0.27403497155E+02  0.19967886821E+02  0.29376773465E+02  0.45057023643E+02  0.41800000000E+01 0.  1.
</event>
<event>
11    1  0.8299058E-009  0.1764933E+03  0.7561462E-02  0.1072515E+00
         22   -1    0    0    0    0  0.00000000000E+00  0.00000000000E+00  0.24470424711E+04  0.24470424711E+04  0.00000000000E+00 0.  1.
         22   -1    0    0    0    0 -0.00000000000E+00 -0.00000000000E+00 -0.31038281599E+03  0.31038281599E+03  0.00000000000E+00 0. -1.
         24    2    1    2    0    0 -0.15436734733E+02 -0.24786953203E+02 -0.24861212126E+03  0.26299399391E+03  0.80654622715E+02 0.  0.
         25    2    1    2    0    0 -0.10193778479E+03  0.67079896678E+02  0.93816708476E+02  0.19834386883E+03  0.12509073110E+03 0.  0.
        -24    2    1    2    0    0  0.11737451952E+03 -0.42292943475E+02  0.22914550679E+04  0.22960874244E+04  0.75403323511E+02 0.  0.
        -13    1    3    3    0    0  0.23109139827E+02  0.14285563172E+02 -0.49613598722E+02  0.56565173356E+02  0.00000000000E+00 0.  1.
         14    1    3    3    0    0 -0.38545874559E+02 -0.39072516375E+02 -0.19899852254E+03  0.20642882055E+03  0.00000000000E+00 0. -1.
         11    1    5    5    0    0  0.27479049018E+02  0.21190290433E+02  0.67406047962E+03  0.67495307743E+03  0.00000000000E+00 0. -1.
        -12    1    5    5    0    0  0.89895470504E+02 -0.63483233909E+02  0.16173945883E+04  0.16211343469E+04  0.00000000000E+00 0.  1.
          5    1    4    4  501    0 -0.20034688031E+02  0.86830261122E+02  0.36656944631E+02  0.96447327390E+02  0.41800000000E+01 0. -1.
         -5    1    4    4    0  501 -0.81903096759E+02 -0.19750364443E+02  0.57159763845E+02  0.10189654144E+03  0.41800000000E+01 0. -1.
</event>
<event>
11    1  0.8299058E-009  0.1363453E+03  0.7561462E-02  0.1111710E+00
         22   -1    0    0    0    0  0.00000000000E+00  0.00000000000E+00  0.35812114953E+03  0.35812114953E+03  0.00000000000E+00 0.  1.
         22   -1    0    0    0    0 -0.00000000000E+00 -0.00000000000E+00 -0.11586921741E+04  0.11586921741E+04  0.00000000000E+00 0.  1.
         24    2    1    2    0    0 -0.20794267748E+02 -0.20585247943E+02 -0.10569883800E+04  0.10600792171E+04  0.75414567630E+02 0.  0.
         25    2    1    2    0    0  0.29700515862E+01  0.70859113538E+02 -0.37050335124E+02  0.14847445576E+03  0.12506838730E+03 0.  0.
        -24    2    1    2    0    0  0.17824216161E+02 -0.50273865594E+02  0.29346769052E+03  0.30825965083E+03  0.77817496153E+02 0.  0.
        -11    1    3    3    0    0  0.21359389216E+02 -0.30658386203E+02 -0.45369680454E+03  0.45523285316E+03  0.00000000000E+00 0.  1.
         12    1    3    3    0    0 -0.42153656964E+02  0.10073138260E+02 -0.60329157546E+03  0.60484636391E+03  0.00000000000E+00 0. -1.
         13    1    5    5    0    0 -0.40207273708E+01  0.95927897558E+01  0.29175727120E+01  0.10802781791E+02  0.00000000000E+00 0. -1.
        -14    1    5    5    0    0  0.21844943532E+02 -0.59866655350E+02  0.29055011781E+03  0.29745686904E+03  0.00000000000E+00 0.  1.
          5    1    4    4  501    0 -0.40094598054E+02  0.48401047309E+02  0.26536699386E+02  0.68351349569E+02  0.41800000000E+01 0.  1.
         -5    1    4    4    0  501  0.43064649640E+02  0.22458066229E+02 -0.63587034510E+02  0.80123106187E+02  0.41800000000E+01 0.  1.
</event>
<event>
11    1  0.8299058E-009  0.1359656E+03  0.7561462E-02  0.1112149E+00
         22   -1    0    0    0    0  0.00000000000E+00  0.00000000000E+00  0.53710848249E+03  0.53710848249E+03  0.00000000000E+00 0.  1.
         22   -1    0    0    0    0 -0.00000000000E+00 -0.00000000000E+00 -0.44692418991E+03  0.44692418991E+03  0.00000000000E+00 0. -1.
        -24    2    1    2    0    0  0.38072321185E+02 -0.35791081201E+02 -0.29889157957E+03  0.31375453651E+03  0.79845035622E+02 0.  0.
         25    2    1    2    0    0 -0.52098352251E+02  0.29048794911E+02 -0.10219072577E+03  0.17218362670E+03  0.12508471560E+03 0.  0.
         24    2    1    2    0    0  0.14026031066E+02  0.67422862903E+01  0.49126659792E+03  0.49809450919E+03  0.80703667050E+02 0.  0.
        -11    1    5    5    0    0  0.27469671111E+02 -0.30588398947E+02  0.20407747208E+03  0.20817744256E+03  0.00000000000E+00 0.  1.
         12    1    5    5    0    0 -0.13443640044E+02  0.37330685237E+02  0.28718912584E+03  0.28991706663E+03  0.00000000000E+00 0. -1.
         11    1    3    3    0    0 -0.11191051086E+02 -0.37792661581E+02 -0.19250288449E+03  0.19649652778E+03  0.00000000000E+00 0. -1.
        -12    1    3    3    0    0  0.49263372271E+02  0.20015803798E+01 -0.10638869508E+03  0.11725800873E+03  0.00000000000E+00 0.  1.
          5    1    4    4  501    0 -0.92533678385E+02  0.91379764098E+01 -0.63973914813E+02  0.11294298750E+03  0.41800000000E+01 0.  1.
         -5    1    4    4    0  501  0.40435326133E+02  0.19910818501E+02 -0.38216810961E+02  0.59240639201E+02  0.41800000000E+01 0.  1.
</event>
<event>
11    1  0.8299058E-009  0.1914652E+03  0.7561462E-02  0.1060729E+00
         22   -1    0    0    0    0  0.00000000000E+00  0.00000000000E+00  0.62209892666E+03  0.62209892666E+03  0.00000000000E+00 0. -1.
         22   -1    0    0    0    0 -0.00000000000E+00 -0.00000000000E+00 -0.89310350707E+03  0.89310350707E+03  0.00000000000E+00 0. -1.
         24    2    1    2    0    0 -0.12701702753E+03  0.80311156538E+02 -0.70226547486E+03  0.72237692106E+03  0.77900011182E+02 0.  0.
         25    2    1    2    0    0  0.82469173391E+02 -0.95309507102E+02 -0.13337955992E+03  0.22208495951E+03  0.12508619242E+03 0.  0.
        -24    2    1    2    0    0  0.44547854142E+02  0.14998350564E+02  0.56464045438E+03  0.57074055316E+03  0.68676593352E+02 0.  0.
        -11    1    3    3    0    0 -0.51186774642E+02 -0.31535680614E+01 -0.14462177763E+03  0.15344539568E+03  0.00000000000E+00 0.  1.
         12    1    3    3    0    0 -0.75830252890E+02  0.83464724599E+02 -0.55764369723E+03  0.56893152538E+03  0.00000000000E+00 0. -1.
         13    1    5    5    0    0  0.22118920835E+02  0.14476918570E+02  0.52100731473E+03  0.52167753434E+03  0.00000000000E+00 0. -1.
        -14    1    5    5    0    0  0.22428933306E+02  0.52143199492E+00  0.43633139649E+02  0.49063018825E+02  0.00000000000E+00 0.  1.
          5    1    4    4  501    0  0.10798374959E+03 -0.99474525953E+02 -0.92635176530E+02  0.17365028022E+03  0.41800000000E+01 0.  1.
         -5    1    4    4    0  501 -0.25514576201E+02  0.41650188503E+01 -0.40744383389E+02  0.48434679296E+02  0.41800000000E+01 0.  1.
</event>
<event>
11    1  0.8299058E-009  0.1282559E+03  0.7561462E-02  0.1121431E+00
         22   -1    0    0    0    0  0.00000000000E+00  0.00000000000E+00  0.37316316350E+03  0.37316316350E+03  0.00000000000E+00 0. -1.
         22   -1    0    0    0    0 -0.00000000000E+00 -0.00000000000E+00 -0.21754666681E+03  0.21754666681E+03  0.00000000000E+00 0.  1.
         24    2    1    2    0    0  0.81565299569E+01  0.91296252202E+00 -0.17473784255E+03  0.19232525886E+03  0.79927023551E+02 0.  0.
         25    2    1    2    0    0  0.12229890803E+02  0.21205077798E+02  0.14190832588E+03  0.19074026375E+03  0.12507857414E+03 0.  0.
        -24    2    1    2    0    0 -0.20386420760E+02 -0.22118040320E+02  0.18844601337E+03  0.20764430770E+03  0.81850135660E+02 0.  0.
        -13    1    3    3    0    0  0.86774717446E+01  0.19471143589E+02 -0.17228457117E+03  0.17359837964E+03  0.00000000000E+00 0.  1.
         14    1    3    3    0    0 -0.52094178773E+00 -0.18558181067E+02 -0.24532713782E+01  0.18726879220E+02  0.00000000000E+00 0. -1.
         11    1    5    5    0    0  0.30941141961E+02 -0.81921321532E+01  0.93379781384E+02  0.98712961998E+02  0.00000000000E+00 0. -1.
        -12    1    5    5    0    0 -0.51327562721E+02 -0.13925908167E+02  0.95066231983E+02  0.10893134570E+03  0.00000000000E+00 0.  1.
          5    1    4    4  501    0 -0.43963591431E+02 -0.15853652504E+02  0.19156402572E+02  0.50681119056E+02  0.41800000000E+01 0. -1.
         -5    1    4    4    0  501  0.56193482235E+02  0.37058730302E+02  0.12275192331E+03  0.14005914470E+03  0.41800000000E+01 0. -1.
</event>
<event>
11    1  0.8299058E-009  0.1891635E+03  0.7561462E-02  0.1062463E+00
         22   -1    0    0    0    0  0.00000000000E+00  0.00000000000E+00  0.17128889866E+04  0.17128889866E+04  0.00000000000E+00 0. -1.
         22   -1    0    0    0    0 -0.00000000000E+00 -0.00000000000E+00 -0.12455806957E+04  0.12455806957E+04  0.00000000000E+00 0. -1.
        -24    2    1    2    0    0 -0.78155467813E+01 -0.39232597650E+02 -0.11270680596E+04  0.11308485961E+04  0.83281791157E+02 0.  0.
         25    2    1    2    0    0  0.12424950930E+03  0.11855967339E+03 -0.12218447963E+02  0.21281859181E+03  0.12509246914E+03 0.  0.
         24    2    1    2    0    0 -0.11643396251E+03 -0.79327075737E+02  0.16065947985E+04  0.16148024944E+04  0.81182491270E+02 0.  0.
        -13    1    5    5    0    0 -0.52618239581E+02  0.62143441828E+01  0.68576912298E+03  0.68781290134E+03  0.00000000000E+00 0.  1.
         14    1    5    5    0    0 -0.63815722933E+02 -0.85541419920E+02  0.92082567552E+03  0.92698959310E+03  0.00000000000E+00 0. -1.
         13    1    3    3    0    0  0.72479314293E+00  0.22912544239E+02 -0.52973878371E+03  0.53023456034E+03  0.00000000000E+00 0. -1.
        -14    1    3    3    0    0 -0.85403399243E+01 -0.62145141889E+02 -0.59732927592E+03  0.60061403575E+03  0.00000000000E+00 0.  1.
          5    1    4    4  501    0  0.78243065726E+02 -0.52274711063E+00  0.20444161775E+02  0.80979545253E+02  0.41800000000E+01 0.  1.
         -5    1    4    4    0  501  0.46006443569E+02  0.11908242050E+03 -0.32662609737E+02  0.13183904655E+03  0.41800000000E+01 0.  1.
</event>
<event>
11    1  0.8299058E-009  0.1541320E+03  0.7561462E-02  0.1092730E+00
         22   -1    0    0    0    0  0.00000000000E+00  0.00000000000E+00  0.17647957772E+04  0.17647957772E+04  0.00000000000E+00 0. -1.
         22   -1    0    0    0    0 -0.00000000000E+00 -0.00000000000E+00 -0.10187531808E+04  0.10187531808E+04  0.00000000000E+00 0. -1.
         24    2    1    2    0    0 -0.22782953201E+01 -0.33979429038E+02 -0.97742675563E+03  0.98158238736E+03  0.83553146782E+02 0.  0.
         25    2    1    2    0    0 -0.75801593551E+02 -0.13094774168E+02  0.10889872245E+03  0.18282161389E+03  0.12508979198E+03 0.  0.
        -24    2    1    2    0    0  0.78079888871E+02  0.47074203206E+02  0.16145706296E+04  0.16191449568E+04  0.80496107847E+02 0.  0.
        -13    1    3    3    0    0 -0.28836840546E+02 -0.17667685302E+02 -0.15873660725E+03  0.16229917115E+03  0.00000000000E+00 0.  1.
         14    1    3    3    0    0  0.26558545226E+02 -0.16311743736E+02 -0.81869014838E+03  0.81928321621E+03  0.00000000000E+00 0. -1.
         11    1    5    5    0    0  0.79221838045E+02  0.26540965959E+02  0.80718658652E+03  0.81149904988E+03  0.00000000000E+00 0. -1.
        -12    1    5    5    0    0 -0.11419491737E+01  0.20533237247E+02  0.80738404309E+03  0.80764590689E+03  0.00000000000E+00 0.  1.
          5    1    4    4  501    0 -0.53625229462E+02  0.44232225171E+02  0.98051392185E+02  0.12026513580E+03  0.41800000000E+01 0. -1.
         -5    1    4    4    0  501 -0.22176364089E+02 -0.57326999339E+02  0.10847330266E+02  0.62556478092E+02  0.41800000000E+01 0. -1.
</event>
<event>
11    1  0.8299058E-009  0.2011954E+03  0.7561462E-02  0.1053682E+00
         22   -1    0    0    0    0  0.00000000000E+00  0.00000000000E+00  0.53325744335E+03  0.53325744335E+03  0.00000000000E+00 0.  1.
         22   -1    0    0    0    0 -0.00000000000E+00 -0.00000000000E+00 -0.26977225317E+04  0.26977225317E+04  0.00000000000E+00 0. -1.
         24    2    1    2    0    0 -0.35646863688E+02 -0.15496422232E+03 -0.24028841094E+04  0.24095032198E+04  0.81050070867E+02 0.  0.
         25    2    1    2    0    0 -0.32680727368E+02  0.15249290250E+03 -0.25091002597E+03  0.32082011944E+03  0.12509033796E+03 0.  0.
        -24    2    1    2    0    0  0.68327591056E+02  0.24713198214E+01  0.48932904701E+03  0.50065663580E+03  0.80866455348E+02 0.  0.
        -13    1    3    3    0    0 -0.45373835648E+02 -0.34528656571E+02 -0.67890520951E+03  0.68129530791E+03  0.00000000000E+00 0.  1.
         14    1    3    3    0    0  0.97269719598E+01 -0.12043556575E+03 -0.17239788999E+04  0.17282079119E+04  0.00000000000E+00 0. -1.
         11    1    5    5    0    0  0.29078436677E+02 -0.38500493457E+02  0.19255326435E+03  0.19850592709E+03  0.00000000000E+00 0. -1.
        -12    1    5    5    0    0  0.39249154379E+02  0.40971813279E+02  0.29677578266E+03  0.30215070872E+03  0.00000000000E+00 0.  1.
          5    1    4    4  501    0  0.26857627414E+01  0.14772083846E+03 -0.24237896447E+03  0.28389028559E+03  0.41800000000E+01 0. -1.
         -5    1    4    4    0  501 -0.35366490109E+02  0.47720640411E+01 -0.85310615027E+01  0.36929833851E+02  0.41800000000E+01 0. -1.
</event>
<event>
11    1  0.8299058E-009  0.1325641E+03  0.7561462E-02  0.1116158E+00
         22   -1    0    0    0    0  0.00000000000E+00  0.00000000000E+00  0.12078704781E+03  0.12078704781E+03  0.00000000000E+00 0. -1.
         22   -1    0    0    0    0 -0.00000000000E+00 -0.00000000000E+00 -0.59652098485E+03  0.59652098485E+03  0.00000000000E+00 0.  1.
         24    2    1    2    0    0 -0.43437223251E+02  0.26248116751E+02 -0.34666527019E+03  0.35934403065E+03  0.79847146537E+02 0.  0.
         25    2    1    2    0    0  0.19424680840E+02 -0.14825434889E+02 -0.20694047334E+03  0.24304167057E+03  0.12509109633E+03 0.  0.
        -24    2    1    2    0    0  0.24012542411E+02 -0.11422681862E+02  0.77871806488E+02  0.11492233144E+03  0.80224959727E+02 0.  0.
        -11    1    3    3    0    0 -0.60082514736E+02 -0.20978636445E+01 -0.25410399187E+03  0.26111903089E+03  0.00000000000E+00 0.  1.
         12    1    3    3    0    0  0.16645291485E+02  0.28345980395E+02 -0.92561278314E+02  0.98224999753E+02  0.00000000000E+00 0. -1.
         13    1    5    5    0    0  0.42101982731E+02  0.21035185845E+02  0.48241664018E+02  0.67396692357E+02  0.00000000000E+00 0. -1.
        -14    1    5    5    0    0 -0.18089440320E+02 -0.32457867706E+02  0.29630142470E+02  0.47525639079E+02  0.00000000000E+00 0.  1.
          5    1    4    4  501    0  0.18280020640E+02 -0.69138387379E+02 -0.13462170829E+03  0.15249509010E+03  0.41800000000E+01 0.  1.
         -5    1    4    4    0  501  0.11446602002E+01  0.54312952490E+02 -0.72318765054E+02  0.90546580466E+02  0.41800000000E+01 0.  1.
</event>
<event>
11    1  0.8299058E-009  0.1502673E+03  0.7561462E-02  0.1096606E+00
         22   -1    0    0    0    0  0.00000000000E+00  0.00000000000E+00  0.11613570142E+04  0.11613570142E+04  0.00000000000E+00 0.  1.
         22   -1    0    0    0    0 -0.00000000000E+00 -0.00000000000E+00 -0.46367037428E+02  0.46367037428E+02  0.00000000000E+00 0. -1.
         24    2    1    2    0    0  0.55231613069E+02  0.10806665327E+03  0.18987300730E+03  0.23792230374E+03  0.76330407347E+02 0.  0.
         25    2    1    2    0    0 -0.16400859905E+02  0.26226497261E+02  0.39321629448E+03  0.41379151064E+03  0.12509013819E+03 0.  0.
        -24    2    1    2    0    0 -0.38830753164E+02 -0.13429315053E+03  0.53190067498E+03  0.55601023723E+03  0.81771499865E+02 0.  0.
        -11    1    3    3    0    0  0.45799572563E+02  0.38919130465E+02  0.13937164906E+03  0.15177864186E+03  0.00000000000E+00 0.  1.
         12    1    3    3    0    0  0.94320405065E+01  0.69147522804E+02  0.50501358233E+02  0.86143661877E+02  0.00000000000E+00 0. -1.
         13    1    5    5    0    0  0.11924328814E+00 -0.27484855239E+02  0.27220114457E+02  0.38682891794E+02  0.00000000000E+00 0. -1.
        -14    1    5    5    0    0 -0.38949996452E+02 -0.10680829529E+03  0.50468056053E+03  0.51732734544E+03  0.00000000000E+00 0.  1.
          5    1    4    4  501    0 -0.25098536842E+02 -0.47307530877E+02  0.19075670379E+03  0.19817550674E+03  0.41800000000E+01 0. -1.
         -5    1    4    4    0  501  0.86976769375E+01  0.73534028138E+02  0.20245959068E+03  0.21561600390E+03  0.41800000000E+01 0. -1.
</event>
<event>
11    1  0.8299058E-009  0.1276581E+03  0.7561462E-02  0.1122180E+00
         22   -1    0    0    0    0  0.00000000000E+00  0.00000000000E+00  0.15388035464E+03  0.15388035464E+03  0.00000000000E+00 0.  1.
         22   -1    0    0    0    0 -0.00000000000E+00 -0.00000000000E+00 -0.76928748104E+03  0.76928748104E+03  0.00000000000E+00 0. -1.
        -24    2    1    2    0    0  0.17607005173E+02  0.17205899166E+02 -0.61031495787E+03  0.61679555266E+03  0.85710888309E+02 0.  0.
         25    2    1    2    0    0 -0.28959638520E+02 -0.17852828388E+02 -0.11216375743E+03  0.17142279873E+03  0.12509070029E+03 0.  0.
         24    2    1    2    0    0  0.11352633347E+02  0.64692922173E+00  0.10707158890E+03  0.13494948430E+03  0.81349476714E+02 0.  0.
        -11    1    5    5    0    0 -0.23667904354E+02  0.26131579550E+01  0.94869187830E+02  0.97811865796E+02  0.00000000000E+00 0.  1.
         12    1    5    5    0    0  0.35020537701E+02 -0.19662287332E+01  0.12202401073E+02  0.37137618505E+02  0.00000000000E+00 0. -1.
         11    1    3    3    0    0  0.48925877127E+02  0.72492579975E+01 -0.47407175824E+03  0.47664486272E+03  0.00000000000E+00 0. -1.
        -12    1    3    3    0    0 -0.31318871954E+02  0.99566411684E+01 -0.13624319963E+03  0.14015068994E+03  0.00000000000E+00 0.  1.
          5    1    4    4  501    0 -0.28790829123E+02 -0.63434258344E+02 -0.27175077407E+02  0.74891749916E+02  0.41800000000E+01 0.  1.
         -5    1    4    4    0  501 -0.16880939665E+00  0.45581429957E+02 -0.84988680019E+02  0.96531048813E+02  0.41800000000E+01 0.  1.
</event>
<event>
11    1  0.8299058E-009  0.1322242E+03  0.7561462E-02  0.1116566E+00
         22   -1    0    0    0    0  0.00000000000E+00  0.00000000000E+00  0.12454319148E+04  0.12454319148E+04  0.00000000000E+00 0.  1.
         22   -1    0    0    0    0 -0.00000000000E+00 -0.00000000000E+00 -0.43102831007E+03  0.43102831007E+03  0.00000000000E+00 0. -1.
         24    2    1    2    0    0  0.41786575179E+02  0.11511593427E+02 -0.40071347255E+03  0.41084217182E+03  0.79632709461E+02 0.  0.
         25    2    1    2    0    0 -0.29541794725E+02  0.10527198085E+02  0.15268192558E+03  0.19985539395E+03  0.12508744363E+03 0.  0.
        -24    2    1    2    0    0 -0.12244780454E+02 -0.22038791512E+02  0.10624351517E+04  0.10657626591E+04  0.80286680249E+02 0.  0.
        -13    1    3    3    0    0 -0.58787835464E+01 -0.12087142927E+02 -0.10594971601E+02  0.17114687942E+02  0.00000000000E+00 0.  1.
         14    1    3    3    0    0  0.47665358725E+02  0.23598736354E+02 -0.39011850095E+03  0.39372748388E+03  0.00000000000E+00 0. -1.
         11    1    5    5    0    0  0.32069326228E+02  0.22533517028E+01  0.51388375171E+03  0.51488836610E+03  0.00000000000E+00 0. -1.
        -12    1    5    5    0    0 -0.44314106682E+02 -0.24292143214E+02  0.54855139997E+03  0.55087429300E+03  0.00000000000E+00 0.  1.
          5    1    4    4  501    0  0.21754447609E+02  0.46195321936E+02  0.11714087554E+03  0.12785429552E+03  0.41800000000E+01 0.  1.
         -5    1    4    4    0  501 -0.51296242334E+02 -0.35668123851E+02  0.35541050041E+02  0.72001098426E+02  0.41800000000E+01 0.  1.
</event>
<event>
11    1  0.8299058E-009  0.5450588E+03  0.7561462E-02  0.9298114E-01
         22   -1    0    0    0    0  0.00000000000E+00  0.00000000000E+00  0.75224195878E+03  0.75224195878E+03  0.00000000000E+00 0. -1.
         22   -1    0    0    0    0 -0.00000000000E+00 -0.00000000000E+00 -0.97752531253E+03  0.97752531253E+03  0.00000000000E+00 0.  1.
         24    2    1    2    0    0  0.55862808871E+03 -0.31759805193E+02 -0.64639639851E+03  0.85869138779E+03  0.80302980877E+02 0.  0.
         25    2    1    2    0    0 -0.45881595635E+03 -0.13368395172E+02  0.53574346869E+02  0.47876018594E+03  0.12510119589E+03 0.  0.
        -24    2    1    2    0    0 -0.99812132362E+02  0.45128200364E+02  0.36753869789E+03  0.39231569758E+03  0.82631083023E+02 0.  0.
        -11    1    3    3    0    0  0.11932850350E+03 -0.39787446779E+02 -0.13709712014E+03  0.18605900413E+03  0.00000000000E+00 0.  1.
         12    1    3    3    0    0  0.43929958521E+03  0.80276415868E+01 -0.50929927837E+03  0.67263238366E+03  0.00000000000E+00 0. -1.
         13    1    5    5    0    0 -0.11313222579E+03  0.44390091084E+02  0.30400328326E+03  0.32739483339E+03  0.00000000000E+00 0. -1.
        -14    1    5    5    0    0  0.13320093424E+02  0.73810928039E+00  0.63535414638E+02  0.64920864192E+02  0.00000000000E+00 0.  1.
          5    1    4    4  501    0 -0.33085288274E+03 -0.65732808251E+02  0.42025912085E+02  0.33995305821E+03  0.41800000000E+01 0. -1.
         -5    1    4    4    0  501 -0.12796307361E+03  0.52364413080E+02  0.11548434784E+02  0.13880712773E+03  0.41800000000E+01 0. -1.
</event>
<event>
11    1  0.8299058E-009  0.1740057E+03  0.7561462E-02  0.1074597E+00
         22   -1    0    0    0    0  0.00000000000E+00  0.00000000000E+00  0.17715635337E+03  0.17715635337E+03  0.00000000000E+00 0.  1.
         22   -1    0    0    0    0 -0.00000000000E+00 -0.00000000000E+00 -0.88970497887E+03  0.88970497887E+03  0.00000000000E+00 0.  1.
         24    2    1    2    0    0  0.74717238496E+02 -0.65383891049E+02 -0.66650643902E+03  0.67981442914E+03  0.89772522915E+02 0.  0.
         25    2    1    2    0    0 -0.73940181968E+02 -0.68550930182E+02 -0.13255657737E+03  0.20828916517E+03  0.12508696809E+03 0.  0.
        -24    2    1    2    0    0 -0.77705652801E+00  0.13393482123E+03  0.86514390902E+02  0.17875773793E+03  0.80811192793E+02 0.  0.
        -13    1    3    3    0    0  0.86455741991E+02 -0.23738903478E+02 -0.48546910112E+03  0.49367841659E+03  0.00000000000E+00 0.  1.
         14    1    3    3    0    0 -0.11738503495E+02 -0.41644987571E+02 -0.18103733790E+03  0.18613601255E+03  0.00000000000E+00 0. -1.
         13    1    5    5    0    0 -0.45011979056E+01  0.10740097193E+03  0.23147961196E+02  0.10995934549E+03  0.00000000000E+00 0. -1.
        -14    1    5    5    0    0  0.37241413776E+01  0.26533849304E+02  0.63366429707E+02  0.68798392435E+02  0.00000000000E+00 0.  1.
          5    1    4    4  501    0 -0.98041220817E+02 -0.11768891756E+02 -0.82304521780E+02  0.12861607403E+03  0.41800000000E+01 0.  1.
         -5    1    4    4    0  501  0.24101038849E+02 -0.56782038426E+02 -0.50252055591E+02  0.79673091145E+02  0.41800000000E+01 0.  1.
</event>
<event>
11    1  0.8299058E-009  0.1456689E+03  0.7561462E-02  0.1101388E+00
         22   -1    0    0    0    0  0.00000000000E+00  0.00000000000E+00  0.43606283814E+03  0.43606283814E+03  0.00000000000E+00 0. -1.
         22   -1    0    0    0    0 -0.00000000000E+00 -0.00000000000E+00 -0.81166337788E+03  0.81166337788E+03  0.00000000000E+00 0.  1.
         24    2    1    2    0    0  0.22941255396E+02 -0.66129068588E+02 -0.60066896491E+03  0.61032587891E+03  0.82432506665E+02 0.  0.
         25    2    1    2    0    0 -0.38185542512E+02  0.10010508997E+03 -0.16751441683E+03  0.23492080800E+03  0.12509013347E+03 0.  0.
        -24    2    1    2    0    0  0.15244287116E+02 -0.33976021377E+02  0.39258284200E+03  0.40247952910E+03  0.80509162179E+02 0.  0.
        -13    1    3    3    0    0 -0.26524935405E+02 -0.39313860728E+02 -0.19044998198E+03  0.19626601203E+03  0.00000000000E+00 0.  1.
         14    1    3    3    0    0  0.49466190800E+02 -0.26815207860E+02 -0.41021898293E+03  0.41405986688E+03  0.00000000000E+00 0. -1.
         11    1    5    5    0    0  0.26255836182E+02 -0.32806114147E+02  0.38836250491E+03  0.39062903793E+03  0.00000000000E+00 0. -1.
        -12    1    5    5    0    0 -0.11011549066E+02 -0.11699072299E+01  0.42203370933E+01  0.11850491169E+02  0.00000000000E+00 0.  1.
          5    1    4    4  501    0  0.23330175742E+02  0.65843024766E+02 -0.14478818451E+03  0.16081259834E+03  0.41800000000E+01 0.  1.
         -5    1    4    4    0  501 -0.61515718253E+02  0.34262065199E+02 -0.22726232318E+02  0.74108209662E+02  0.41800000000E+01 0.  1.
</event>
<event>
11    1  0.8299058E-009  0.1845840E+03  0.7561462E-02  0.1065994E+00
         22   -1    0    0    0    0  0.00000000000E+00  0.00000000000E+00  0.13540244847E+04  0.13540244847E+04  0.00000000000E+00 0.  1.
         22   -1    0    0    0    0 -0.00000000000E+00 -0.00000000000E+00 -0.10223297700E+03  0.10223297700E+03  0.00000000000E+00 0. -1.
         24    2    1    2    0    0  0.12377430503E+03  0.50930807884E+02  0.18129900093E+02  0.15617145987E+03  0.78401567741E+02 0.  0.
         25    2    1    2    0    0 -0.12787365086E+03 -0.62165396522E+02  0.25265572797E+03  0.31574319273E+03  0.12507053918E+03 0.  0.
        -24    2    1    2    0    0  0.40993458363E+01  0.11234588638E+02  0.98100587961E+03  0.98434280907E+03  0.80095001829E+02 0.  0.
        -13    1    3    3    0    0  0.61259208195E+01 -0.98948461950E+01  0.20652114675E+02  0.23705373392E+02  0.00000000000E+00 0.  1.
         14    1    3    3    0    0  0.11764838421E+03  0.60825654079E+02 -0.25222145812E+01  0.13246608648E+03  0.00000000000E+00 0. -1.
         11    1    5    5    0    0 -0.29463123064E+02  0.26561096674E+02  0.34612391919E+03  0.34838963089E+03  0.00000000000E+00 0. -1.
        -12    1    5    5    0    0  0.33562468900E+02 -0.15326508035E+02  0.63488196042E+03  0.63595317818E+03  0.00000000000E+00 0.  1.
          5    1    4    4  501    0 -0.11303187132E+03  0.84522349204E+01  0.12310024463E+03  0.16738813231E+03  0.41800000000E+01 0. -1.
         -5    1    4    4    0  501 -0.14841779545E+02 -0.70617631443E+02  0.12955548334E+03  0.14835506042E+03  0.41800000000E+01 0. -1.
</event>
<event>
11    1  0.8299058E-009  0.1384635E+03  0.7561462E-02  0.1109286E+00
         22   -1    0    0    0    0  0.00000000000E+00  0.00000000000E+00  0.29669451147E+03  0.29669451147E+03  0.00000000000E+00 0.  1.
         22   -1    0    0    0    0 -0.00000000000E+00 -0.00000000000E+00 -0.90983451140E+03  0.90983451140E+03  0.00000000000E+00 0.  1.
         24    2    1    2    0    0  0.93043160451E+00  0.61067094869E+02 -0.73833639347E+03  0.74508937974E+03  0.79293745698E+02 0.  0.
         25    2    1    2    0    0  0.26497279050E+02 -0.48850300904E+01 -0.13264676345E+03  0.18430645054E+03  0.12509090512E+03 0.  0.
        -24    2    1    2    0    0 -0.27427710654E+02 -0.56182064779E+02  0.25784315699E+03  0.27713319258E+03  0.80068777362E+02 0.  0.
        -13    1    3    3    0    0  0.22783137596E+01  0.10738852755E+02 -0.55089247581E+03  0.55100184535E+03  0.00000000000E+00 0.  1.
         14    1    3    3    0    0 -0.13478821551E+01  0.50328242114E+02 -0.18744391766E+03  0.19408753440E+03  0.00000000000E+00 0. -1.
         13    1    5    5    0    0 -0.16627880940E+02  0.18369703379E+02  0.45269524057E+02  0.51606804156E+02  0.00000000000E+00 0. -1.
        -14    1    5    5    0    0 -0.10799829715E+02 -0.74551768158E+02  0.21257363294E+03  0.22552638843E+03  0.00000000000E+00 0.  1.
          5    1    4    4  501    0  0.41204592207E+02  0.25933632476E+01  0.83139593298E+01  0.42321841544E+02  0.41800000000E+01 0. -1.
         -5    1    4    4    0  501 -0.14707313158E+02 -0.74783933380E+01 -0.14096072278E+03  0.14198460900E+03  0.41800000000E+01 0. -1.
</event>
<event>
11    1  0.8299058E-009  0.1993374E+03  0.7561462E-02  0.1054993E+00
         22   -1    0    0    0    0  0.00000000000E+00  0.00000000000E+00  0.26598431675E+04  0.26598431675E+04  0.00000000000E+00 0.  1.
         22   -1    0    0    0    0 -0.00000000000E+00 -0.00000000000E+00 -0.76616742612E+03  0.76616742612E+03  0.00000000000E+00 0. -1.
        -24    2    1    2    0    0  0.10451327071E+03 -0.11237004776E+03 -0.71435973376E+03  0.73490330148E+03  0.78885879078E+02 0.  0.
         25    2    1    2    0    0 -0.20718862523E+03  0.12935335336E+03  0.43762229462E+03  0.51654665097E+03  0.12509098061E+03 0.  0.
         24    2    1    2    0    0  0.10267535453E+03 -0.16983305603E+02  0.21704131806E+04  0.21745606412E+04  0.84793554306E+02 0.  0.
        -11    1    5    5    0    0  0.88247724523E+02 -0.14978677654E+02  0.21246615971E+04  0.21265462431E+04  0.00000000000E+00 0.  1.
         12    1    5    5    0    0  0.14427630002E+02 -0.20046279494E+01  0.45751583427E+02  0.48014398120E+02  0.00000000000E+00 0. -1.
         13    1    3    3    0    0  0.79408534217E+02 -0.12207079409E+03 -0.60557271486E+03  0.62283650107E+03  0.00000000000E+00 0. -1.
        -14    1    3    3    0    0  0.25104736490E+02  0.97007463303E+01 -0.10878701890E+03  0.11206680041E+03  0.00000000000E+00 0.  1.
          5    1    4    4  501    0 -0.21028526554E+02  0.78187269823E+02  0.13939767233E+03  0.16125951613E+03  0.41800000000E+01 0.  1.
         -5    1    4    4    0  501 -0.18616009868E+03  0.51166083536E+02  0.29822462229E+03  0.35528713484E+03  0.41800000000E+01 0.  1.
</event>
<event>
11    1  0.8299058E-009  0.1296776E+03  0.7561462E-02  0.1119666E+00
         22   -1    0    0    0    0  0.00000000000E+00  0.00000000000E+00  0.39319052396E+03  0.39319052396E+03  0.00000000000E+00 0. -1.
         22   -1    0    0    0    0 -0.00000000000E+00 -0.00000000000E+00 -0.15243612248E+03  0.15243612248E+03  0.00000000000E+00 0.  1.
        -24    2    1    2    0    0  0.27264187609E+02 -0.26555724891E+02 -0.73740753302E+02  0.11675322500E+03  0.82128401914E+02 0.  0.
         25    2    1    2    0    0 -0.25935293112E+02  0.38561817845E+00  0.28562834405E+02  0.13090467004E+03  0.12508960388E+03 0.  0.
         24    2    1    2    0    0 -0.13288944969E+01  0.26170106712E+02  0.28593232037E+03  0.29796875139E+03  0.79633187325E+02 0.  0.
        -11    1    5    5    0    0  0.38569851790E+02  0.20041149088E+02  0.14900274955E+03  0.15521308094E+03  0.00000000000E+00 0.  1.
         12    1    5    5    0    0 -0.39898746287E+02  0.61289576242E+01  0.13692957083E+03  0.14275567044E+03  0.00000000000E+00 0. -1.
         11    1    3    3    0    0  0.23148722342E+02  0.13867923351E+02 -0.71084227495E+02  0.76033874311E+02  0.00000000000E+00 0. -1.
        -12    1    3    3    0    0  0.41154652668E+01 -0.40423648242E+02 -0.26565258064E+01  0.40719350693E+02  0.00000000000E+00 0.  1.
          5    1    4    4  501    0  0.15109822899E+02 -0.48241406228E+02  0.41854210495E+02  0.65763115491E+02  0.41800000000E+01 0. -1.
         -5    1    4    4    0  501 -0.41045116011E+02  0.48627024407E+02 -0.13291376091E+02  0.65141554552E+02  0.41800000000E+01 0. -1.
</event>
<event>
11    1  0.8299058E-009  0.1438256E+03  0.7561462E-02  0.1103360E+00
         22   -1    0    0    0    0  0.00000000000E+00  0.00000000000E+00  0.13538919062E+04  0.13538919062E+04  0.00000000000E+00 0.  1.
         22   -1    0    0    0    0 -0.00000000000E+00 -0.00000000000E+00 -0.40716900457E+02  0.40716900457E+02  0.00000000000E+00 0. -1.
        -24    2    1    2    0    0 -0.69642841087E+02  0.61515145795E+01  0.75852324408E+02  0.13235867325E+03  0.82929348368E+02 0.  0.
         25    2    1    2    0    0  0.82033968419E+02  0.38103397654E+02  0.85358916590E+03  0.86743394515E+03  0.12508294920E+03 0.  0.
         24    2    1    2    0    0 -0.12391127332E+02 -0.44254912233E+02  0.38373351544E+03  0.39481618826E+03  0.80724062967E+02 0.  0.
        -13    1    5    5    0    0  0.52528918579E+01 -0.65246946842E+02  0.26791806773E+03  0.27579856410E+03  0.00000000000E+00 0.  1.
         14    1    5    5    0    0 -0.17644019190E+02  0.20992034609E+02  0.11581544771E+03  0.11901762415E+03  0.00000000000E+00 0. -1.
         13    1    3    3    0    0 -0.47042046795E+02 -0.21403075250E+02  0.36145617515E+01  0.51808405240E+02  0.00000000000E+00 0. -1.
        -14    1    3    3    0    0 -0.22600794292E+02  0.27554589829E+02  0.72237762657E+02  0.80550268013E+02  0.00000000000E+00 0.  1.
          5    1    4    4  501    0  0.11446646223E+02 -0.29352736468E+02  0.48720223320E+03  0.48823774668E+03  0.41800000000E+01 0. -1.
         -5    1    4    4    0  501  0.70587322197E+02  0.67456134122E+02  0.36638693269E+03  0.37919619847E+03  0.41800000000E+01 0. -1.
</event>
<event>
11    1  0.8299058E-009  0.1459314E+03  0.7561462E-02  0.1101110E+00
         22   -1    0    0    0    0  0.00000000000E+00  0.00000000000E+00  0.36583336713E+03  0.36583336713E+03  0.00000000000E+00 0.  1.
         22   -1    0    0    0    0 -0.00000000000E+00 -0.00000000000E+00 -0.25303821694E+03  0.25303821694E+03  0.00000000000E+00 0.  1.
        -24    2    1    2    0    0 -0.11998772658E+02  0.77655229469E+01 -0.19441563906E+03  0.21041700239E+03  0.79206062235E+02 0.  0.
         25    2    1    2    0    0 -0.65621985668E+02  0.27988200449E+01  0.92880738405E+02  0.16908312242E+03  0.12509273490E+03 0.  0.
         24    2    1    2    0    0  0.77620758326E+02 -0.10564342992E+02  0.21433005085E+03  0.23937145925E+03  0.72282344618E+02 0.  0.
        -13    1    5    5    0    0  0.55905910349E+02 -0.17219574877E+02  0.20759869926E+03  0.21568311131E+03  0.00000000000E+00 0.  1.
         14    1    5    5    0    0  0.21714847977E+02  0.66552318851E+01  0.67313515896E+01  0.23688347945E+02  0.00000000000E+00 0. -1.
         11    1    3    3    0    0 -0.38758065724E+02 -0.13036180568E+02 -0.14380234269E+03  0.14950332245E+03  0.00000000000E+00 0. -1.
        -12    1    3    3    0    0  0.26759293066E+02  0.20801703515E+02 -0.50613296371E+02  0.60913679941E+02  0.00000000000E+00 0.  1.
          5    1    4    4  501    0 -0.72014826213E+02 -0.21188643121E+02  0.11377198554E+03  0.13636946463E+03  0.41800000000E+01 0. -1.
         -5    1    4    4    0  501  0.63928405448E+01  0.23987463165E+02 -0.20891247130E+02  0.32713657790E+02  0.41800000000E+01 0. -1.
</event>
<event>
11    1  0.8299058E-009  0.1395698E+03  0.7561462E-02  0.1108040E+00
         22   -1    0    0    0    0  0.00000000000E+00  0.00000000000E+00  0.26909149896E+04  0.26909149896E+04  0.00000000000E+00 0. -1.
         22   -1    0    0    0    0 -0.00000000000E+00 -0.00000000000E+00 -0.12421906241E+03  0.12421906241E+03  0.00000000000E+00 0.  1.
        -24    2    1    2    0    0 -0.56492578217E+02  0.37973353528E+02 -0.56647861178E+02  0.11980117737E+03  0.80684291853E+02 0.  0.
         25    2    1    2    0    0  0.52599162893E+02  0.20205693674E+02  0.99378982201E+02  0.16940703770E+03  0.12509044857E+03 0.  0.
         24    2    1    2    0    0  0.38934153237E+01 -0.58179047202E+02  0.25239648062E+04  0.25259258369E+04  0.80641370973E+02 0.  0.
        -13    1    5    5    0    0 -0.96819643883E+01 -0.29213318413E+02  0.27227647254E+03  0.27401028431E+03  0.00000000000E+00 0.  1.
         14    1    5    5    0    0  0.13575379712E+02 -0.28965728789E+02  0.22516883336E+04  0.22519155526E+04  0.00000000000E+00 0. -1.
         11    1    3    3    0    0  0.23328770118E+01  0.46108122438E+02 -0.25582047861E+02  0.52781080348E+02  0.00000000000E+00 0. -1.
        -12    1    3    3    0    0 -0.58825455229E+02 -0.81347689098E+01 -0.31065813317E+02  0.67020097024E+02  0.00000000000E+00 0.  1.
          5    1    4    4  501    0 -0.24120016730E+02  0.46481060271E+02  0.21081168049E+02  0.56605231359E+02  0.41800000000E+01 0.  1.
         -5    1    4    4    0  501  0.76719179624E+02 -0.26275366597E+02  0.78297814152E+02  0.11280180634E+03  0.41800000000E+01 0.  1.
</event>
<event>
11    1  0.8299058E-009  0.1281555E+03  0.7561462E-02  0.1121556E+00
         22   -1    0    0    0    0  0.00000000000E+00  0.00000000000E+00  0.11786721033E+03  0.11786721033E+03  0.00000000000E+00 0.  1.
         22   -1    0    0    0    0 -0.00000000000E+00 -0.00000000000E+00 -0.20249795348E+04  0.20249795348E+04  0.00000000000E+00 0. -1.
         24    2    1    2    0    0  0.11771071952E+02 -0.89617172503E+01 -0.14005694947E+04  0.14029432238E+04  0.80224120211E+02 0.  0.
         25    2    1    2    0    0 -0.75664710718E+00 -0.16984403662E+02 -0.59998273920E+03  0.61312058517E+03  0.12509405318E+03 0.  0.
        -24    2    1    2    0    0 -0.11014424845E+02  0.25946120912E+02  0.93439909354E+02  0.12678293615E+03  0.80922045776E+02 0.  0.
        -13    1    3    3    0    0 -0.48849955117E+01 -0.28549772630E+02 -0.19882548183E+03  0.20092417705E+03  0.00000000000E+00 0.  1.
         14    1    3    3    0    0  0.16656067464E+02  0.19588055380E+02 -0.12017440128E+04  0.12020190468E+04  0.00000000000E+00 0. -1.
         11    1    5    5    0    0 -0.34591904828E+02 -0.12829107100E+02  0.24645273951E+02  0.44368630773E+02  0.00000000000E+00 0. -1.
        -12    1    5    5    0    0  0.23577479983E+02  0.38775228012E+02  0.68794635403E+02  0.82414305372E+02  0.00000000000E+00 0.  1.
          5    1    4    4  501    0  0.39373405623E+02 -0.41968397723E+02 -0.48934091754E+03  0.49273077584E+03  0.41800000000E+01 0.  1.
         -5    1    4    4    0  501 -0.40130052730E+02  0.24983994061E+02 -0.11064182166E+03  0.12038980933E+03  0.41800000000E+01 0.  1.
</event>
<event>
11    1  0.8299058E-009  0.1318851E+03  0.7561462E-02  0.1116974E+00
         22   -1    0    0    0    0  0.00000000000E+00  0.00000000000E+00  0.24722129386E+03  0.24722129386E+03  0.00000000000E+00 0. -1.
         22   -1    0    0    0    0 -0.00000000000E+00 -0.00000000000E+00 -0.29227908124E+04  0.29227908124E+04  0.00000000000E+00 0. -1.
        -24    2    1    2    0    0 -0.21042595879E+02  0.99432138647E+01 -0.23936707454E+04  0.23954621118E+04  0.89651733014E+02 0.  0.
         25    2    1    2    0    0 -0.21118026309E+02 -0.91090090985E+01 -0.51076375184E+03  0.52636167230E+03  0.12509218517E+03 0.  0.
         24    2    1    2    0    0  0.42160622187E+02 -0.83420476627E+00  0.22886497865E+03  0.24818832223E+03  0.86255729522E+02 0.  0.
        -13    1    5    5    0    0 -0.14998168645E+02  0.12303911298E+02  0.10447476728E+02  0.22033634878E+02  0.00000000000E+00 0.  1.
         14    1    5    5    0    0  0.57158790833E+02 -0.13138116064E+02  0.21841750192E+03  0.22615468735E+03  0.00000000000E+00 0. -1.
         13    1    3    3    0    0  0.11116090440E+02  0.31075892334E+02 -0.19025099435E+04  0.19027961961E+04  0.00000000000E+00 0. -1.
        -14    1    3    3    0    0 -0.32158686319E+02 -0.21132678469E+02 -0.49116080183E+03  0.49266591567E+03  0.00000000000E+00 0.  1.
          5    1    4    4  501    0 -0.17869516174E+02 -0.55837082533E+02 -0.42044457879E+03  0.42453293822E+03  0.41800000000E+01 0. -1.
         -5    1    4    4    0  501 -0.32485101346E+01  0.46728073435E+02 -0.90319173045E+02  0.10182873408E+03  0.41800000000E+01 0. -1.
</event>
<event>
11    1  0.8299058E-009  0.1310131E+03  0.7561462E-02  0.1118030E+00
         22   -1    0    0    0    0  0.00000000000E+00  0.00000000000E+00  0.34367949970E+03  0.34367949970E+03  0.00000000000E+00 0.  1.
         22   -1    0    0    0    0 -0.00000000000E+00 -0.00000000000E+00 -0.25481625795E+03  0.25481625795E+03  0.00000000000E+00 0.  1.
        -24    2    1    2    0    0 -0.31302929260E+02  0.93449919852E+01 -0.12397817349E+03  0.15136784829E+03  0.80463878473E+02 0.  0.
         25    2    1    2    0    0  0.61342527484E+02  0.39160868764E+01 -0.66832751444E+02  0.15457238105E+03  0.12509101848E+03 0.  0.
         24    2    1    2    0    0 -0.30039598224E+02 -0.13261078862E+02  0.27967416669E+03  0.29255552831E+03  0.79327573738E+02 0.  0.
        -11    1    5    5    0    0 -0.48093600584E+02 -0.18344865183E+02  0.26121951808E+03  0.26624268087E+03  0.00000000000E+00 0.  1.
         12    1    5    5    0    0  0.18054002359E+02  0.50837863217E+01  0.18454648616E+02  0.26312847434E+02  0.00000000000E+00 0. -1.
         11    1    3    3    0    0 -0.46043257408E+01 -0.15512866266E+02  0.53108983081E+01  0.17030985766E+02  0.00000000000E+00 0. -1.
        -12    1    3    3    0    0 -0.26698603519E+02  0.24857858251E+02 -0.12928907180E+03  0.13433686253E+03  0.00000000000E+00 0.  1.
          5    1    4    4  501    0  0.81640265773E+02 -0.32301600100E+02 -0.16913871361E+02  0.89510210641E+02  0.41800000000E+01 0.  1.
         -5    1    4    4    0  501 -0.20297738289E+02  0.36217686977E+02 -0.49918880083E+02  0.65062170409E+02  0.41800000000E+01 0.  1.
</event>
<event>
11    1  0.8299058E-009  0.1642394E+03  0.7561462E-02  0.1083156E+00
         22   -1    0    0    0    0  0.00000000000E+00  0.00000000000E+00  0.75754900779E+03  0.75754900779E+03  0.00000000000E+00 0. -1.
         22   -1    0    0    0    0 -0.00000000000E+00 -0.00000000000E+00 -0.87748880743E+03  0.87748880743E+03  0.00000000000E+00 0. -1.
        -24    2    1    2    0    0 -0.94779498126E+02 -0.16276705784E+02 -0.55621771177E+03  0.57019111708E+03  0.80570979285E+02 0.  0.
         25    2    1    2    0    0  0.15122810627E+03  0.18940383744E+02 -0.27998208767E+03  0.34244169616E+03  0.12509063751E+03 0.  0.
         24    2    1    2    0    0 -0.56448608146E+02 -0.26636779603E+01  0.71625999979E+03  0.72240500197E+03  0.75146916293E+02 0.  0.
        -13    1    5    5    0    0 -0.15981911099E+02 -0.13985246828E+02  0.44247658956E+02  0.49080178629E+02  0.00000000000E+00 0.  1.
         14    1    5    5    0    0 -0.40466697047E+02  0.11321568868E+02  0.67201234083E+03  0.67332482334E+03  0.00000000000E+00 0. -1.
         11    1    3    3    0    0 -0.98884531701E+02 -0.32357470477E+02 -0.40840684608E+03  0.42145143069E+03  0.00000000000E+00 0. -1.
        -12    1    3    3    0    0  0.41050335748E+01  0.16080764693E+02 -0.14781086569E+03  0.14873968640E+03  0.00000000000E+00 0.  1.
          5    1    4    4  501    0  0.92637116870E+02  0.64788284718E+02 -0.11449617158E+03  0.16095341862E+03  0.41800000000E+01 0.  1.
         -5    1    4    4    0  501  0.58590989402E+02 -0.45847900974E+02 -0.16548591608E+03  0.18148827754E+03  0.41800000000E+01 0.  1.
</event>
<event>
11    1  0.8299058E-009  0.1735716E+03  0.7561462E-02  0.1074965E+00
         22   -1    0    0    0    0  0.00000000000E+00  0.00000000000E+00  0.25544405231E+04  0.25544405231E+04  0.00000000000E+00 0.  1.
         22   -1    0    0    0    0 -0.00000000000E+00 -0.00000000000E+00 -0.33390123084E+03  0.33390123084E+03  0.00000000000E+00 0.  1.
         24    2    1    2    0    0 -0.26324487663E+02  0.11826695390E+03 -0.29782544481E+03  0.33150593688E+03  0.80722608806E+02 0.  0.
         25    2    1    2    0    0  0.49573330770E+02 -0.93492545367E+02  0.34973937390E+03  0.38621717086E+03  0.12509077604E+03 0.  0.
        -24    2    1    2    0    0 -0.23248843107E+02 -0.24774408531E+02  0.21686253631E+04  0.21706186462E+04  0.86574022599E+02 0.  0.
        -11    1    3    3    0    0 -0.15493385607E+02  0.45230258314E+02 -0.21627366197E+03  0.22149518759E+03  0.00000000000E+00 0.  1.
         12    1    3    3    0    0 -0.10831102056E+02  0.73036695585E+02 -0.81551782845E+02  0.11001074929E+03  0.00000000000E+00 0. -1.
         13    1    5    5    0    0  0.29599294397E+02 -0.27361497267E+00  0.42994495536E+03  0.43096271038E+03  0.00000000000E+00 0. -1.
        -14    1    5    5    0    0 -0.52848137504E+02 -0.24500793558E+02  0.17386804078E+04  0.17396559358E+04  0.00000000000E+00 0.  1.
          5    1    4    4  501    0 -0.42502969451E+01 -0.28875045339E+02  0.32720982397E+01  0.29665001169E+02  0.41800000000E+01 0. -1.
         -5    1    4    4    0  501  0.53823627715E+02 -0.64617500028E+02  0.34646727566E+03  0.35655216969E+03  0.41800000000E+01 0. -1.
</event>
<event>
11    1  0.8299058E-009  0.1452124E+03  0.7561462E-02  0.1101874E+00
         22   -1    0    0    0    0  0.00000000000E+00  0.00000000000E+00  0.79382494854E+03  0.79382494854E+03  0.00000000000E+00 0. -1.
         22   -1    0    0    0    0 -0.00000000000E+00 -0.00000000000E+00 -0.12112656366E+04  0.12112656366E+04  0.00000000000E+00 0. -1.
         24    2    1    2    0    0 -0.46733477448E+02 -0.58953592841E+02 -0.11559014313E+04  0.11611858126E+04  0.81146954884E+02 0.  0.
         25    2    1    2    0    0  0.46526804124E+02 -0.86402133191E+01  0.42965383656E+02  0.14047291394E+03  0.12508884271E+03 0.  0.
        -24    2    1    2    0    0  0.20667332466E+00  0.67593806160E+02  0.69549535961E+03  0.70343185867E+03  0.80830806045E+02 0.  0.
        -13    1    3    3    0    0 -0.17317362955E+02 -0.27344051808E+02 -0.11719586064E+03  0.12158313197E+03  0.00000000000E+00 0.  1.
         14    1    3    3    0    0 -0.29416114493E+02 -0.31609541033E+02 -0.10387055707E+04  0.10396026806E+04  0.00000000000E+00 0. -1.
         13    1    5    5    0    0 -0.37950149964E+02  0.50705855742E+02  0.39259502334E+03  0.39767090670E+03  0.00000000000E+00 0. -1.
        -14    1    5    5    0    0  0.38156823288E+02  0.16887950418E+02  0.30290033627E+03  0.30576095196E+03  0.00000000000E+00 0.  1.
          5    1    4    4  501    0 -0.87583220990E+01 -0.44949206250E+02  0.56482222076E+02  0.72834422900E+02  0.41800000000E+01 0. -1.
         -5    1    4    4    0  501  0.55285126223E+02  0.36308992931E+02 -0.13516838421E+02  0.67638491039E+02  0.41800000000E+01 0. -1.
</event>
<event>
11    1  0.8299058E-009  0.1357729E+03  0.7561462E-02  0.1112373E+00
         22   -1    0    0    0    0  0.00000000000E+00  0.00000000000E+00  0.80153827697E+03  0.80153827697E+03  0.00000000000E+00 0.  1.
         22   -1    0    0    0    0 -0.00000000000E+00 -0.00000000000E+00 -0.61767768218E+03  0.61767768218E+03  0.00000000000E+00 0. -1.
         24    2    1    2    0    0 -0.52526783669E+02 -0.23474141982E+01 -0.55630133329E+03  0.56469638851E+03  0.81524624657E+02 0.  0.
         25    2    1    2    0    0  0.58489091025E+02 -0.22536668243E+02  0.34769518307E+02  0.14416428327E+03  0.12508215693E+03 0.  0.
        -24    2    1    2    0    0 -0.59623073556E+01  0.24884082441E+02  0.70539240977E+03  0.71035528737E+03  0.79821149175E+02 0.  0.
        -13    1    3    3    0    0 -0.40999488998E+02 -0.17827577667E+02 -0.12145880749E+03  0.12942574141E+03  0.00000000000E+00 0.  1.
         14    1    3    3    0    0 -0.11527294670E+02  0.15480163469E+02 -0.43484252580E+03  0.43527064710E+03  0.00000000000E+00 0. -1.
         13    1    5    5    0    0  0.31155750034E+02  0.12399188889E+02  0.15571355910E+03  0.15928318534E+03  0.00000000000E+00 0. -1.
        -14    1    5    5    0    0 -0.37118057390E+02  0.12484893552E+02  0.54967885067E+03  0.55107210202E+03  0.00000000000E+00 0.  1.
          5    1    4    4  501    0 -0.30878546007E+02 -0.20285041765E+02  0.39881179569E+02  0.54524750405E+02  0.41800000000E+01 0. -1.
         -5    1    4    4    0  501  0.89367637032E+02 -0.22516264783E+01 -0.51116612620E+01  0.89639532860E+02  0.41800000000E+01 0. -1.
</event>
<event>
11    1  0.8299058E-009  0.1550900E+03  0.7561462E-02  0.1091788E+00
         22   -1    0    0    0    0  0.00000000000E+00  0.00000000000E+00  0.13195856861E+04  0.13195856861E+04  0.00000000000E+00 0.  1.
         22   -1    0    0    0    0 -0.00000000000E+00 -0.00000000000E+00 -0.38614499992E+04  0.38614499992E+04  0.00000000000E+00 0. -1.
        -24    2    1    2    0    0  0.66833644042E+02  0.48391879315E+01 -0.38248907063E+04  0.38264718394E+04  0.87221949368E+02 0.  0.
         25    2    1    2    0    0 -0.11495132133E+03  0.69398529967E+02  0.22744193893E+03  0.29224779015E+03  0.12509585536E+03 0.  0.
         24    2    1    2    0    0  0.48117677289E+02 -0.74237717899E+02  0.10555844543E+04  0.10623160558E+04  0.80189229478E+02 0.  0.
        -11    1    5    5    0    0  0.54735879007E+02 -0.73805858231E+02  0.10488384596E+04  0.10528558475E+04  0.00000000000E+00 0.  1.
         12    1    5    5    0    0 -0.66182017179E+01 -0.43185966732E+00  0.67459946977E+01  0.94602083071E+01  0.00000000000E+00 0. -1.
         13    1    3    3    0    0  0.47131781087E+02  0.38850746936E+02 -0.14915780990E+04  0.14928281920E+04  0.00000000000E+00 0. -1.
        -14    1    3    3    0    0  0.19701862954E+02 -0.34011559004E+02 -0.23333126073E+04  0.23336436474E+04  0.00000000000E+00 0.  1.
          5    1    4    4  501    0 -0.11547006266E+02  0.53344654249E+02  0.17220617393E+02  0.57384732761E+02  0.41800000000E+01 0. -1.
         -5    1    4    4    0  501 -0.10340431506E+03  0.16053875718E+02  0.21022132153E+03  0.23486305739E+03  0.41800000000E+01 0. -1.
</event>
<event>
11    1  0.8299058E-009  0.1517258E+03  0.7561462E-02  0.1095128E+00
         22   -1    0    0    0    0  0.00000000000E+00  0.00000000000E+00  0.19265958932E+04  0.19265958932E+04  0.00000000000E+00 0. -1.
         22   -1    0    0    0    0 -0.00000000000E+00 -0.00000000000E+00 -0.35145712536E+03  0.35145712536E+03  0.00000000000E+00 0.  1.
        -24    2    1    2    0    0 -0.16125478506E+02  0.23038127719E+02 -0.26586085918E+03  0.27932733275E+03  0.80938099766E+02 0.  0.
         25    2    1    2    0    0  0.54116514733E+01 -0.10772505327E+03  0.11709946413E+02  0.16558322707E+03  0.12508680654E+03 0.  0.
         24    2    1    2    0    0  0.10713827033E+02  0.84686925547E+02  0.18292896806E+04  0.18331424587E+04  0.82606761312E+02 0.  0.
        -13    1    5    5    0    0 -0.31699826128E+02  0.13539681088E+02  0.41488334078E+03  0.41631284919E+03  0.00000000000E+00 0.  1.
         14    1    5    5    0    0  0.42413653161E+02  0.71147244459E+02  0.14144063398E+04  0.14168296095E+04  0.00000000000E+00 0. -1.
         13    1    3    3    0    0 -0.48692218142E+02  0.17488669545E+02 -0.14182172403E+03  0.15096419138E+03  0.00000000000E+00 0. -1.
        -14    1    3    3    0    0  0.32566739635E+02  0.55494581738E+01 -0.12403913515E+03  0.12836314138E+03  0.00000000000E+00 0.  1.
          5    1    4    4  501    0  0.62201343699E+02 -0.67086087663E+02  0.23718894017E+02  0.94602371267E+02  0.41800000000E+01 0. -1.
         -5    1    4    4    0  501 -0.56789692226E+02 -0.40638965603E+02 -0.12008947604E+02  0.70980855806E+02  0.41800000000E+01 0. -1.
</event>
<event>
11    1  0.8299058E-009  0.1861065E+03  0.7561462E-02  0.1064808E+00
         22   -1    0    0    0    0  0.00000000000E+00  0.00000000000E+00  0.20144293876E+03  0.20144293876E+03  0.00000000000E+00 0. -1.
         22   -1    0    0    0    0 -0.00000000000E+00 -0.00000000000E+00 -0.22147375199E+04  0.22147375199E+04  0.00000000000E+00 0.  1.
         24    2    1    2    0    0 -0.19920333824E+02  0.13688994816E+03 -0.13285256483E+04  0.13380420573E+04  0.78996655387E+02 0.  0.
         25    2    1    2    0    0  0.60719423796E+00 -0.13760383436E+03 -0.86125032633E+03  0.88109821515E+03  0.12508699463E+03 0.  0.
        -24    2    1    2    0    0  0.19313139586E+02  0.71388620617E+00  0.17648139345E+03  0.19704018614E+03  0.85473070184E+02 0.  0.
        -11    1    3    3    0    0 -0.17382340858E+02  0.10891624688E+03 -0.12459021418E+04  0.12507745767E+04  0.00000000000E+00 0.  1.
         12    1    3    3    0    0 -0.25379929659E+01  0.27973701281E+02 -0.82623506405E+02  0.87267480669E+02  0.00000000000E+00 0. -1.
         11    1    5    5    0    0  0.48317536629E+02  0.11921300816E+02  0.14268892591E+03  0.15111860023E+03  0.00000000000E+00 0. -1.
        -12    1    5    5    0    0 -0.29004397043E+02 -0.11207414610E+02  0.33792467544E+02  0.45921585913E+02  0.00000000000E+00 0.  1.
          5    1    4    4  501    0  0.56173908096E+02 -0.10618551237E+03 -0.61771126078E+03  0.62929766016E+03  0.41800000000E+01 0.  1.
         -5    1    4    4    0  501 -0.55566713858E+02 -0.31418321993E+02 -0.24353906555E+03  0.25180055499E+03  0.41800000000E+01 0.  1.
</event>
<event>
11    1  0.8299058E-009  0.1381796E+03  0.7561462E-02  0.1109608E+00
         22   -1    0    0    0    0  0.00000000000E+00  0.00000000000E+00  0.27642293906E+03  0.27642293906E+03  0.00000000000E+00 0.  1.
         22   -1    0    0    0    0 -0.00000000000E+00 -0.00000000000E+00 -0.37734073953E+03  0.37734073953E+03  0.00000000000E+00 0. -1.
        -24    2    1    2    0    0 -0.93665015935E+00 -0.79376304310E+01 -0.31848487801E+03  0.32858726608E+03  0.80455519506E+02 0.  0.
         25    2    1    2    0    0 -0.58035334147E+02  0.28208787966E+01  0.97800320567E+02  0.16908019278E+03  0.12508857470E+03 0.  0.
         24    2    1    2    0    0  0.58971984307E+02  0.51167516345E+01  0.11976675697E+03  0.15609621974E+03  0.80734612527E+02 0.  0.
        -11    1    5    5    0    0  0.39378293762E+02  0.97372651551E+01  0.12805454881E+03  0.13432584198E+03  0.00000000000E+00 0.  1.
         12    1    5    5    0    0  0.19593690545E+02 -0.46205135206E+01 -0.82877918339E+01  0.21770377761E+02  0.00000000000E+00 0. -1.
         13    1    3    3    0    0  0.13816297092E+02 -0.64943945785E+01 -0.31205701758E+03  0.31243023133E+03  0.00000000000E+00 0. -1.
        -14    1    3    3    0    0 -0.14752947251E+02 -0.14432358526E+01 -0.64278604302E+01  0.16157034754E+02  0.00000000000E+00 0.  1.
          5    1    4    4  501    0 -0.89741518267E+02  0.50559077816E+00  0.31096164654E+02  0.95069656458E+02  0.41800000000E+01 0. -1.
         -5    1    4    4    0  501  0.31706184120E+02  0.23152880184E+01  0.66704155913E+02  0.74010536318E+02  0.41800000000E+01 0. -1.
</event>
<event>
11    1  0.8299058E-009  0.1417321E+03  0.7561462E-02  0.1105640E+00
         22   -1    0    0    0    0  0.00000000000E+00  0.00000000000E+00  0.19335338979E+03  0.19335338979E+03  0.00000000000E+00 0. -1.
         22   -1    0    0    0    0 -0.00000000000E+00 -0.00000000000E+00 -0.95318731782E+03  0.95318731782E+03  0.00000000000E+00 0.  1.
         24    2    1    2    0    0 -0.68186884548E+02  0.16266969477E+02 -0.79167430130E+03  0.79889278233E+03  0.81039575530E+02 0.  0.
         25    2    1    2    0    0  0.42531305790E+02  0.49299882156E+02 -0.10372163416E+03  0.17506318897E+03  0.12509817100E+03 0.  0.
        -24    2    1    2    0    0  0.25655578758E+02 -0.65566851633E+02  0.13556200742E+03  0.17258473631E+03  0.80319440963E+02 0.  0.
        -13    1    3    3    0    0 -0.70202517784E+02  0.27421742937E+02 -0.77543215134E+03  0.77908623837E+03  0.00000000000E+00 0.  1.
         14    1    3    3    0    0  0.20156332364E+01 -0.11154773460E+02 -0.16242149960E+02  0.19806543959E+02  0.00000000000E+00 0. -1.
         11    1    5    5    0    0 -0.27902596083E+01 -0.59932042241E+02  0.12983348735E+03  0.14302576577E+03  0.00000000000E+00 0. -1.
        -12    1    5    5    0    0  0.28445838366E+02 -0.56348093913E+01  0.57285200698E+01  0.29558970540E+02  0.00000000000E+00 0.  1.
          5    1    4    4  501    0 -0.35772515797E+01  0.83333163667E+02 -0.59083237538E+02  0.10230109605E+03  0.41800000000E+01 0. -1.
         -5    1    4    4    0  501  0.46108557370E+02 -0.34033281512E+02 -0.44638396617E+02  0.72762092917E+02  0.41800000000E+01 0. -1.
</event>
<event>
11    1  0.8299058E-009  0.1272046E+03  0.7561462E-02  0.1122752E+00
         22   -1    0    0    0    0  0.00000000000E+00  0.00000000000E+00  0.17914496375E+03  0.17914496375E+03  0.00000000000E+00 0. -1.
         22   -1    0    0    0    0 -0.00000000000E+00 -0.00000000000E+00 -0.32616108180E+03  0.32616108180E+03  0.00000000000E+00 0.  1.
         24    2    1    2    0    0 -0.40851565299E+01 -0.22693395550E+02 -0.23224794155E+03  0.24739398510E+03  0.82054852403E+02 0.  0.
         25    2    1    2    0    0 -0.44041941021E+01  0.24592867630E+02 -0.14536026393E+02  0.12838152804E+03  0.12508522941E+03 0.  0.
        -24    2    1    2    0    0  0.84893506320E+01 -0.18994720799E+01  0.99767849896E+02  0.12953053240E+03  0.82151432634E+02 0.  0.
        -13    1    3    3    0    0  0.30760812362E+02 -0.22676898471E+01 -0.17274457609E+03  0.17547666102E+03  0.00000000000E+00 0.  1.
         14    1    3    3    0    0 -0.34845968892E+02 -0.20425705703E+02 -0.59503365466E+02  0.71917324083E+02  0.00000000000E+00 0. -1.
         11    1    5    5    0    0  0.35476510670E+02 -0.17594231723E+02  0.87396764603E+02  0.95949644410E+02  0.00000000000E+00 0. -1.
        -12    1    5    5    0    0 -0.26987160038E+02  0.15694759643E+02  0.12371085293E+02  0.33580887995E+02  0.00000000000E+00 0.  1.
          5    1    4    4  501    0 -0.32342291948E+02  0.70971800725E+01 -0.62017840758E+02  0.70427826785E+02  0.41800000000E+01 0.  1.
         -5    1    4    4    0  501  0.27938097846E+02  0.17495687558E+02  0.47481814364E+02  0.57953701260E+02  0.41800000000E+01 0.  1.
</event>
<event>
11    1  0.8299058E-009  0.1375815E+03  0.7561462E-02  0.1110289E+00
         22   -1    0    0    0    0  0.00000000000E+00  0.00000000000E+00  0.30343979000E+03  0.30343979000E+03  0.00000000000E+00 0.  1.
         22   -1    0    0    0    0 -0.00000000000E+00 -0.00000000000E+00 -0.38550029894E+03  0.38550029894E+03  0.00000000000E+00 0. -1.
        -24    2    1    2    0    0  0.57908544867E+02  0.61395463012E+01 -0.33548308821E+03  0.35068491159E+03  0.83904178349E+02 0.  0.
         25    2    1    2    0    0 -0.41469822686E+02  0.14843714503E+02  0.10797869622E+03  0.17101712324E+03  0.12508947019E+03 0.  0.
         24    2    1    2    0    0 -0.16438722181E+02 -0.20983260804E+02  0.14544388305E+03  0.16723805411E+03  0.78128834650E+02 0.  0.
        -13    1    5    5    0    0  0.38563516765E+01 -0.17595526761E+02  0.14555149358E+03  0.14666189448E+03  0.00000000000E+00 0.  1.
         14    1    5    5    0    0 -0.20295073858E+02 -0.33877340432E+01 -0.10761052846E+00  0.20576159624E+02  0.00000000000E+00 0. -1.
         13    1    3    3    0    0  0.43813496755E+02 -0.15380601525E+02 -0.31328142328E+03  0.31670401888E+03  0.00000000000E+00 0. -1.
        -14    1    3    3    0    0  0.14095048112E+02  0.21520147826E+02 -0.22201664926E+02  0.33980892708E+02  0.00000000000E+00 0.  1.
          5    1    4    4  501    0 -0.70276704287E+02 -0.31925386926E+02  0.58070450889E+02  0.96683479262E+02  0.41800000000E+01 0.  1.
         -5    1    4    4    0  501  0.28806881601E+02  0.46769101428E+02  0.49908245328E+02  0.74333643983E+02  0.41800000000E+01 0.  1.
</event>
<event>
11    1  0.8299058E-009  0.1446721E+03  0.7561462E-02  0.1102451E+00
         22   -1    0    0    0    0  0.00000000000E+00  0.00000000000E+00  0.68829141912E+03  0.68829141912E+03  0.00000000000E+00 0.  1.
         22   -1    0    0    0    0 -0.00000000000E+00 -0.00000000000E+00 -0.18220101630E+03  0.18220101630E+03  0.00000000000E+00 0.  1.
         24    2    1    2    0    0 -0.41878753219E+02 -0.30008323724E+02 -0.13318061620E+03  0.16366442661E+03  0.79966483857E+02 0.  0.
         25    2    1    2    0    0  0.78242481109E+02  0.81365564157E+02  0.23509829533E+03  0.28924476517E+03  0.12509630224E+03 0.  0.
        -24    2    1    2    0    0 -0.36363727890E+02 -0.51357240434E+02  0.40417272370E+03  0.41758324364E+03  0.84025519563E+02 0.  0.
        -11    1    3    3    0    0 -0.76967166913E+01 -0.36577696135E+02 -0.12123125534E+03  0.12686285735E+03  0.00000000000E+00 0.  1.
         12    1    3    3    0    0 -0.34182036527E+02  0.65693724115E+01 -0.11949360861E+02  0.36801569261E+02  0.00000000000E+00 0. -1.
         11    1    5    5    0    0 -0.38061765005E+02 -0.34821007823E+02  0.96170736083E+02  0.10913299693E+03  0.00000000000E+00 0. -1.
        -12    1    5    5    0    0  0.16980371153E+01 -0.16536232611E+02  0.30800198762E+03  0.30845024671E+03  0.00000000000E+00 0.  1.
          5    1    4    4  501    0  0.53541785269E+02 -0.23853582767E+02  0.10225958114E+03  0.11794155551E+03  0.41800000000E+01 0.  1.
         -5    1    4    4    0  501  0.24700695840E+02  0.10521914692E+03  0.13283871419E+03  0.17130320967E+03  0.41800000000E+01 0.  1.
</event>
<event>
11    1  0.8299058E-009  0.1372016E+03  0.7561462E-02  0.1110724E+00
         22   -1    0    0    0    0  0.00000000000E+00  0.00000000000E+00  0.44024617339E+03  0.44024617339E+03  0.00000000000E+00 0.  1.
         22   -1    0    0    0    0 -0.00000000000E+00 -0.00000000000E+00 -0.94118917564E+02  0.94118917564E+02  0.00000000000E+00 0.  1.
        -24    2    1    2    0    0  0.22784719719E+02  0.29730673327E+01 -0.28776258221E+02  0.82793994437E+02  0.74153825900E+02 0.  0.
         25    2    1    2    0    0  0.24347153005E+02  0.36183014486E+02  0.12557222374E+03  0.18252986247E+03  0.12508706137E+03 0.  0.
         24    2    1    2    0    0 -0.47131872723E+02 -0.39156081818E+02  0.24933129031E+03  0.26904123405E+03  0.80389558527E+02 0.  0.
        -11    1    5    5    0    0  0.61970591192E+01 -0.46765502442E+02  0.12000569603E+03  0.12894488296E+03  0.00000000000E+00 0.  1.
         12    1    5    5    0    0 -0.53328931842E+02  0.76094206240E+01  0.12932559428E+03  0.14009635109E+03  0.00000000000E+00 0. -1.
         11    1    3    3    0    0  0.34152355509E+02  0.69709906659E+01  0.14588386369E+02  0.37786229165E+02  0.00000000000E+00 0. -1.
        -12    1    3    3    0    0 -0.11367635790E+02 -0.39979233333E+01 -0.43364644590E+02  0.45007765272E+02  0.00000000000E+00 0.  1.
          5    1    4    4  501    0  0.40687744470E+02  0.74321060977E+02  0.56766831804E+02  0.10207378825E+03  0.41800000000E+01 0. -1.
         -5    1    4    4    0  501 -0.16340591465E+02 -0.38138046492E+02  0.68805391934E+02  0.80456074220E+02  0.41800000000E+01 0. -1.
</event>
<event>
11    1  0.8299058E-009  0.3169835E+03  0.7561462E-02  0.9932490E-01
         22   -1    0    0    0    0  0.00000000000E+00  0.00000000000E+00  0.23515323764E+03  0.23515323764E+03  0.00000000000E+00 0. -1.
         22   -1    0    0    0    0 -0.00000000000E+00 -0.00000000000E+00 -0.59829957656E+03  0.59829957656E+03  0.00000000000E+00 0. -1.
        -24    2    1    2    0    0 -0.20698687120E+02 -0.26458673824E+03 -0.17022817408E+03  0.32547386934E+03  0.80752898822E+02 0.  0.
         25    2    1    2    0    0  0.55886120571E+02  0.31999041179E+03 -0.20884321934E+03  0.40593130249E+03  0.12509040719E+03 0.  0.
         24    2    1    2    0    0 -0.35187433451E+02 -0.55403673544E+02  0.15925054503E+02  0.10204764236E+03  0.76500924413E+02 0.  0.
        -13    1    5    5    0    0  0.19770974648E+02 -0.28086774561E+02  0.21338754141E+02  0.40436379314E+02  0.00000000000E+00 0.  1.
         14    1    5    5    0    0 -0.54958408099E+02 -0.27316898983E+02 -0.54136996380E+01  0.61611263049E+02  0.00000000000E+00 0. -1.
         11    1    3    3    0    0  0.22195369153E+02 -0.12245847136E+03 -0.48799841846E+02  0.13367922869E+03  0.00000000000E+00 0. -1.
        -12    1    3    3    0    0 -0.42894056273E+02 -0.14212826688E+03 -0.12142833224E+03  0.19179464065E+03  0.00000000000E+00 0.  1.
          5    1    4    4  501    0  0.19858395806E+02  0.61962009444E+02 -0.10875981739E+03  0.12680621743E+03  0.41800000000E+01 0. -1.
         -5    1    4    4    0  501  0.36027724765E+02  0.25802840235E+03 -0.10008340195E+03  0.27912508507E+03  0.41800000000E+01 0. -1.
</event>
<event>
11    1  0.8299058E-009  0.1663754E+03  0.7561462E-02  0.1081230E+00
         22   -1    0    0    0    0  0.00000000000E+00  0.00000000000E+00  0.62432860750E+03  0.62432860750E+03  0.00000000000E+00 0.  1.
         22   -1    0    0    0    0 -0.00000000000E+00 -0.00000000000E+00 -0.41537011547E+03  0.41537011547E+03  0.00000000000E+00 0. -1.
        -24    2    1    2    0    0 -0.31543567531E+02  0.11758937144E+03 -0.22136936028E+03  0.26404783514E+03  0.76776354723E+02 0.  0.
         25    2    1    2    0    0  0.12629983656E+02 -0.89412063382E+02 -0.13390849481E+03  0.20428405242E+03  0.12508579266E+03 0.  0.
         24    2    1    2    0    0  0.18913583875E+02 -0.28177308053E+02  0.56423634712E+03  0.57136683541E+03  0.83340991399E+02 0.  0.
        -11    1    5    5    0    0 -0.22878781173E+02 -0.19039266008E+02  0.41647667663E+03  0.41753892568E+03  0.00000000000E+00 0.  1.
         12    1    5    5    0    0  0.41792365048E+02 -0.91380420451E+01  0.14775967049E+03  0.15382790973E+03  0.00000000000E+00 0. -1.
         13    1    3    3    0    0  0.13949779868E+02  0.16818867770E+02 -0.88677217989E+02  0.91329730437E+02  0.00000000000E+00 0. -1.
        -14    1    3    3    0    0 -0.45493347399E+02  0.10077050367E+03 -0.13269214229E+03  0.17271810470E+03  0.00000000000E+00 0.  1.
          5    1    4    4  501    0  0.44297275864E+02 -0.78681137867E+01 -0.10114578751E+03  0.11077950440E+03  0.41800000000E+01 0.  1.
         -5    1    4    4    0  501 -0.31667292208E+02 -0.81543949596E+02 -0.32762707300E+02  0.93504548023E+02  0.41800000000E+01 0.  1.
</event>
<event>
11    1  0.8299058E-009  0.1978067E+03  0.7561462E-02  0.1056086E+00
         22   -1    0    0    0    0  0.00000000000E+00  0.00000000000E+00  0.84037420447E+03  0.84037420447E+03  0.00000000000E+00 0.  1.
         22   -1    0    0    0    0 -0.00000000000E+00 -0.00000000000E+00 -0.13554107798E+03  0.13554107798E+03  0.00000000000E+00 0. -1.
         24    2    1    2    0    0 -0.14592306588E+03 -0.34950111496E+02 -0.32944509337E+02  0.17332631367E+03  0.80259696391E+02 0.  0.
         25    2    1    2    0    0  0.17298208575E+03  0.13661395929E+02  0.37957885219E+03  0.43570053959E+03  0.12508165109E+03 0.  0.
        -24    2    1    2    0    0 -0.27059019864E+02  0.21288715567E+02  0.35819878364E+03  0.36688842919E+03  0.71521681356E+02 0.  0.
        -13    1    3    3    0    0 -0.54112044866E+02 -0.15384350499E+02 -0.53050088544E+02  0.77324663170E+02  0.00000000000E+00 0.  1.
         14    1    3    3    0    0 -0.91811021017E+02 -0.19565760997E+02  0.20105579207E+02  0.96001650501E+02  0.00000000000E+00 0. -1.
         13    1    5    5    0    0 -0.26501039411E+02  0.18542181837E+01  0.39531542766E+02  0.47628626774E+02  0.00000000000E+00 0. -1.
        -14    1    5    5    0    0 -0.55798045312E+00  0.19434497383E+02  0.31866724087E+03  0.31925980241E+03  0.00000000000E+00 0.  1.
          5    1    4    4  501    0  0.17412080950E+03  0.34563774220E+02  0.26395896286E+03  0.31812657428E+03  0.41800000000E+01 0.  1.
         -5    1    4    4    0  501 -0.11387237491E+01 -0.20902378291E+02  0.11561988933E+03  0.11757396531E+03  0.41800000000E+01 0.  1.
</event>
<event>
11    1  0.8299058E-009  0.1416421E+03  0.7561462E-02  0.1105738E+00
         22   -1    0    0    0    0  0.00000000000E+00  0.00000000000E+00  0.53768261927E+03  0.53768261927E+03  0.00000000000E+00 0.  1.
         22   -1    0    0    0    0 -0.00000000000E+00 -0.00000000000E+00 -0.11289992064E+04  0.11289992064E+04  0.00000000000E+00 0. -1.
        -24    2    1    2    0    0  0.35690374599E+02 -0.55175416189E+02 -0.10252905948E+04  0.10305297630E+04  0.80328446952E+02 0.  0.
         25    2    1    2    0    0 -0.37791854213E+02  0.73381163163E+02 -0.41339244249E+02  0.15546994367E+03  0.12509576699E+03 0.  0.
         24    2    1    2    0    0  0.21014796138E+01 -0.18205746973E+02  0.47531325188E+03  0.48068211896E+03  0.69258549223E+02 0.  0.
        -11    1    5    5    0    0 -0.22690349617E+01 -0.30507681598E+02  0.45788788090E+03  0.45890868224E+03  0.00000000000E+00 0.  1.
         12    1    5    5    0    0  0.43705145755E+01  0.12301934625E+02  0.17425370975E+02  0.21773436724E+02  0.00000000000E+00 0. -1.
         11    1    3    3    0    0 -0.16579098400E+02 -0.53568544961E+01 -0.49953675704E+03  0.49984050859E+03  0.00000000000E+00 0. -1.
        -12    1    3    3    0    0  0.52269472999E+02 -0.49818561693E+02 -0.52575383771E+03  0.53068925443E+03  0.00000000000E+00 0.  1.
          5    1    4    4  501    0  0.36157306874E+02  0.27049314292E+01  0.14002298170E+02  0.39092253049E+02  0.41800000000E+01 0. -1.
         -5    1    4    4    0  501 -0.73949161087E+02  0.70676231734E+02 -0.55341542420E+02  0.11637769062E+03  0.41800000000E+01 0. -1.
</event>
<event>
11    1  0.8299058E-009  0.3067853E+03  0.7561462E-02  0.9973597E-01
         22   -1    0    0    0    0  0.00000000000E+00  0.00000000000E+00  0.21414498403E+03  0.21414498403E+03  0.00000000000E+00 0.  1.
         22   -1    0    0    0    0 -0.00000000000E+00 -0.00000000000E+00 -0.19049316876E+04  0.19049316876E+04  0.00000000000E+00 0.  1.
        -24    2    1    2    0    0  0.11590966908E+03 -0.25087297384E+03 -0.13317721936E+04  0.13625961185E+04  0.81723352169E+02 0.  0.
         25    2    1    2    0    0 -0.14242145027E+03  0.25497117882E+03 -0.50028313371E+03  0.59264225358E+03  0.12508978907E+03 0.  0.
         24    2    1    2    0    0  0.26511781195E+02 -0.40982049796E+01  0.14126862369E+03  0.16383829953E+03  0.78527030543E+02 0.  0.
        -13    1    5    5    0    0  0.92939140435E+01 -0.21255022317E+00  0.14541100529E+03  0.14570786689E+03  0.00000000000E+00 0.  1.
         14    1    5    5    0    0  0.17217867152E+02 -0.38856547564E+01 -0.41423815972E+01  0.18130432632E+02  0.00000000000E+00 0. -1.
         11    1    3    3    0    0  0.39975757799E+02 -0.21878413003E+02 -0.16735747268E+03  0.17345100124E+03  0.00000000000E+00 0. -1.
        -12    1    3    3    0    0  0.75933911278E+02 -0.22899456084E+03 -0.11644147209E+04  0.11891451173E+04  0.00000000000E+00 0.  1.
          5    1    4    4  501    0 -0.12725986179E+03  0.11724028101E+03 -0.33375405528E+03  0.37596488896E+03  0.41800000000E+01 0. -1.
         -5    1    4    4    0  501 -0.15161588481E+02  0.13773089781E+03 -0.16652907843E+03  0.21667736462E+03  0.41800000000E+01 0. -1.
</event>
<event>
11    1  0.8299058E-009  0.1394998E+03  0.7561462E-02  0.1108118E+00
         22   -1    0    0    0    0  0.00000000000E+00  0.00000000000E+00  0.57217211480E+02  0.57217211480E+02  0.00000000000E+00 0. -1.
         22   -1    0    0    0    0 -0.00000000000E+00 -0.00000000000E+00 -0.31902603204E+04  0.31902603204E+04  0.00000000000E+00 0.  1.
        -24    2    1    2    0    0 -0.73634854250E+02  0.19916072680E+02 -0.18263880359E+04  0.18297656141E+04  0.80809671931E+02 0.  0.
         25    2    1    2    0    0  0.28451231134E+02 -0.22883310555E+02 -0.13168139790E+04  0.13232463513E+04  0.12509489391E+03 0.  0.
         24    2    1    2    0    0  0.45183623116E+02  0.29672378750E+01  0.10158905964E+02  0.94465566516E+02  0.82281076732E+02 0.  0.
        -11    1    5    5    0    0  0.55123087095E+02  0.26391504095E+02 -0.10094734577E+02  0.61943279583E+02  0.00000000000E+00 0.  1.
         12    1    5    5    0    0 -0.99394639789E+01 -0.23424266220E+02  0.20253640541E+02  0.32522286932E+02  0.00000000000E+00 0. -1.
         11    1    3    3    0    0 -0.65877693778E+01 -0.92363242045E+01 -0.33145029136E+02  0.35032860954E+02  0.00000000000E+00 0. -1.
        -12    1    3    3    0    0 -0.67047084873E+02  0.29152396885E+02 -0.17932430068E+04  0.17947327531E+04  0.00000000000E+00 0.  1.
          5    1    4    4  501    0  0.23685451980E+02  0.46488486655E+02 -0.34603668685E+03  0.34997291477E+03  0.41800000000E+01 0. -1.
         -5    1    4    4    0  501  0.47657791541E+01 -0.69371797211E+02 -0.97077729212E+03  0.97327343650E+03  0.41800000000E+01 0. -1.
</event>
<event>
11    1  0.8299058E-009  0.2170260E+03  0.7561462E-02  0.1043097E+00
         22   -1    0    0    0    0  0.00000000000E+00  0.00000000000E+00  0.25642486157E+03  0.25642486157E+03  0.00000000000E+00 0. -1.
         22   -1    0    0    0    0 -0.00000000000E+00 -0.00000000000E+00 -0.21557412214E+04  0.21557412214E+04  0.00000000000E+00 0.  1.
         24    2    1    2    0    0  0.17133857873E+02  0.23557460379E+02 -0.18176107227E+04  0.18196332844E+04  0.80672345679E+02 0.  0.
         25    2    1    2    0    0 -0.63760387092E+02 -0.19094615943E+03 -0.24488451021E+03  0.34079485455E+03  0.12508751651E+03 0.  0.
        -24    2    1    2    0    0  0.46626529219E+02  0.16738869906E+03  0.16317887316E+03  0.25173794395E+03  0.80942189116E+02 0.  0.
        -13    1    3    3    0    0  0.57410677603E+01  0.29963663651E+02 -0.17699479408E+04  0.17702108615E+04  0.00000000000E+00 0.  1.
         14    1    3    3    0    0  0.11392790113E+02 -0.64062032721E+01 -0.47662781971E+02  0.49422422969E+02  0.00000000000E+00 0. -1.
         11    1    5    5    0    0  0.13349133077E+02  0.10226763324E+03  0.14218831302E+03  0.17565416170E+03  0.00000000000E+00 0. -1.
        -12    1    5    5    0    0  0.33277396142E+02  0.65121065811E+02  0.20990560144E+02  0.76083782250E+02  0.00000000000E+00 0.  1.
          5    1    4    4  501    0 -0.10089718327E+03 -0.14856336748E+03 -0.17337949522E+03  0.24965824142E+03  0.41800000000E+01 0. -1.
         -5    1    4    4    0  501  0.37136796177E+02 -0.42382791955E+02 -0.71505014991E+02  0.91136613131E+02  0.41800000000E+01 0. -1.
</event>
<event>
11    1  0.8299058E-009  0.1473536E+03  0.7561462E-02  0.1099614E+00
         22   -1    0    0    0    0  0.00000000000E+00  0.00000000000E+00  0.19422841404E+03  0.19422841404E+03  0.00000000000E+00 0. -1.
         22   -1    0    0    0    0 -0.00000000000E+00 -0.00000000000E+00 -0.55427614852E+03  0.55427614852E+03  0.00000000000E+00 0. -1.
        -24    2    1    2    0    0  0.19391385893E+02 -0.63729649551E+02 -0.31282449342E+03  0.32926137661E+03  0.78207393289E+02 0.  0.
         25    2    1    2    0    0 -0.95049427918E+02  0.67141115787E+02 -0.17844535434E+03  0.24704697568E+03  0.12508853076E+03 0.  0.
         24    2    1    2    0    0  0.75658042025E+02 -0.34114662360E+01  0.13122211329E+03  0.17219621027E+03  0.81832233209E+02 0.  0.
        -11    1    5    5    0    0  0.23052549191E+02 -0.27419183624E+02  0.89244955310E+01  0.36917181302E+02  0.00000000000E+00 0.  1.
         12    1    5    5    0    0  0.52605492834E+02  0.24007717388E+02  0.12229761776E+03  0.13527902897E+03  0.00000000000E+00 0. -1.
         11    1    3    3    0    0  0.10687484545E+02  0.55341084209E+01 -0.16861533236E+03  0.16904431072E+03  0.00000000000E+00 0. -1.
        -12    1    3    3    0    0  0.87039013481E+01 -0.69263757972E+02 -0.14420916107E+03  0.16021706589E+03  0.00000000000E+00 0.  1.
          5    1    4    4  501    0 -0.21688742701E+02  0.90955985871E+02 -0.96635248754E+02  0.13453340339E+03  0.41800000000E+01 0.  1.
         -5    1    4    4    0  501 -0.73360685217E+02 -0.23814870084E+02 -0.81810105588E+02  0.11251357229E+03  0.41800000000E+01 0.  1.
</event>
<event>
11    1  0.8299058E-009  0.1462317E+03  0.7561462E-02  0.1100793E+00
         22   -1    0    0    0    0  0.00000000000E+00  0.00000000000E+00  0.23923722446E+03  0.23923722446E+03  0.00000000000E+00 0. -1.
         22   -1    0    0    0    0 -0.00000000000E+00 -0.00000000000E+00 -0.26564228553E+04  0.26564228553E+04  0.00000000000E+00 0. -1.
        -24    2    1    2    0    0 -0.66224096744E+02  0.20774586154E+02 -0.18264732686E+04  0.18299345343E+04  0.88535780470E+02 0.  0.
         25    2    1    2    0    0  0.97190789655E+02 -0.43425820146E+02 -0.81143099684E+03  0.82788760114E+03  0.12508303658E+03 0.  0.
         24    2    1    2    0    0 -0.30966692910E+02  0.22651233991E+02  0.22071863467E+03  0.23783794428E+03  0.79863368179E+02 0.  0.
        -13    1    5    5    0    0 -0.24526745207E+02  0.26713077298E+02  0.30272129410E+02  0.47239300886E+02  0.00000000000E+00 0.  1.
         14    1    5    5    0    0 -0.64399477032E+01 -0.40618433063E+01  0.19044650526E+03  0.19059864339E+03  0.00000000000E+00 0. -1.
         11    1    3    3    0    0 -0.40832309384E+01  0.45185088607E+02 -0.66779331047E+03  0.66933270539E+03  0.00000000000E+00 0. -1.
        -12    1    3    3    0    0 -0.62140865806E+02 -0.24410502453E+02 -0.11586799582E+04  0.11606018289E+04  0.00000000000E+00 0.  1.
          5    1    4    4  501    0  0.85083934393E+02  0.14958844461E+02 -0.65031437336E+03  0.65604062338E+03  0.41800000000E+01 0. -1.
         -5    1    4    4    0  501  0.12106855261E+02 -0.58384664607E+02 -0.16111662348E+03  0.17184697776E+03  0.41800000000E+01 0. -1.
</event>
<event>
11    1  0.8299058E-009  0.1322661E+03  0.7561462E-02  0.1116516E+00
         22   -1    0    0    0    0  0.00000000000E+00  0.00000000000E+00  0.39840485794E+03  0.39840485794E+03  0.00000000000E+00 0.  1.
         22   -1    0    0    0    0 -0.00000000000E+00 -0.00000000000E+00 -0.17597401670E+03  0.17597401670E+03  0.00000000000E+00 0. -1.
         24    2    1    2    0    0 -0.12571602185E+02 -0.12695944469E+02 -0.12641135109E+03  0.15001248917E+03  0.78769823121E+02 0.  0.
         25    2    1    2    0    0  0.48675438107E+02 -0.82442525664E+01  0.12686276656E+03  0.18487674605E+03  0.12509190108E+03 0.  0.
        -24    2    1    2    0    0 -0.36103835922E+02  0.20940197036E+02  0.22197942578E+03  0.23948963942E+03  0.79614339780E+02 0.  0.
        -11    1    3    3    0    0  0.17939232839E+02 -0.11826397869E+02 -0.16258686039E+01  0.21548160249E+02  0.00000000000E+00 0.  1.
         12    1    3    3    0    0 -0.30510835024E+02 -0.86954660039E+00 -0.12478548249E+03  0.12846432892E+03  0.00000000000E+00 0. -1.
         11    1    5    5    0    0  0.16107615298E+02  0.32606089956E+02  0.87095662043E+02  0.94383614677E+02  0.00000000000E+00 0. -1.
        -12    1    5    5    0    0 -0.52211451220E+02 -0.11665892920E+02  0.13488376374E+03  0.14510602474E+03  0.00000000000E+00 0.  1.
          5    1    4    4  501    0  0.47347259395E+02  0.28722372779E+02  0.13569300668E+03  0.14661787794E+03  0.41800000000E+01 0.  1.
         -5    1    4    4    0  501  0.13281787117E+01 -0.36966625346E+02 -0.88302401212E+01  0.38258868106E+02  0.41800000000E+01 0.  1.
</event>
<event>
11    1  0.8299058E-009  0.1584062E+03  0.7561462E-02  0.1088586E+00
         22   -1    0    0    0    0  0.00000000000E+00  0.00000000000E+00  0.16398243306E+04  0.16398243306E+04  0.00000000000E+00 0. -1.
         22   -1    0    0    0    0 -0.00000000000E+00 -0.00000000000E+00 -0.60908098448E+03  0.60908098448E+03  0.00000000000E+00 0. -1.
         24    2    1    2    0    0  0.52990466125E+02 -0.25429878600E+02 -0.59154442525E+03  0.60068727769E+03  0.86288645295E+02 0.  0.
         25    2    1    2    0    0  0.28124782986E+02 -0.62270284719E+02  0.66447986700E+03  0.67960595584E+03  0.12514859083E+03 0.  0.
        -24    2    1    2    0    0 -0.81115249111E+02  0.87700163318E+02  0.95780790434E+03  0.96861208152E+03  0.80884983671E+02 0.  0.
        -13    1    3    3    0    0 -0.26463789592E+01 -0.27245038964E+02 -0.56785106920E+02  0.63038431434E+02  0.00000000000E+00 0.  1.
         14    1    3    3    0    0  0.55636845085E+02  0.18151603643E+01 -0.53475931833E+03  0.53764884625E+03  0.00000000000E+00 0. -1.
         13    1    5    5    0    0 -0.60538870484E+02  0.25732042146E+02  0.68269510476E+03  0.68585690847E+03  0.00000000000E+00 0. -1.
        -14    1    5    5    0    0 -0.20576378627E+02  0.61968121172E+02  0.27511279958E+03  0.28275517306E+03  0.00000000000E+00 0.  1.
          5    1    4    4  501    0  0.11439525203E+02  0.19137444017E+02  0.43356235862E+03  0.43415538199E+03  0.41800000000E+01 0.  1.
         -5    1    4    4    0  501  0.16685257783E+02 -0.81407728736E+02  0.23091750838E+03  0.24545057385E+03  0.41800000000E+01 0.  1.
</event>
<event>
11    1  0.8299058E-009  0.1410972E+03  0.7561462E-02  0.1106339E+00
         22   -1    0    0    0    0  0.00000000000E+00  0.00000000000E+00  0.39042020923E+03  0.39042020923E+03  0.00000000000E+00 0. -1.
         22   -1    0    0    0    0 -0.00000000000E+00 -0.00000000000E+00 -0.17222199138E+04  0.17222199138E+04  0.00000000000E+00 0.  1.
        -24    2    1    2    0    0 -0.19572434751E+02 -0.19698201628E+02 -0.11417867325E+04  0.11447834081E+04  0.77980828080E+02 0.  0.
         25    2    1    2    0    0  0.68106541709E+02  0.62819799528E+02 -0.56124212434E+03  0.58243172377E+03  0.12509661263E+03 0.  0.
         24    2    1    2    0    0 -0.48534106958E+02 -0.43121597900E+02  0.37122915224E+03  0.38542499121E+03  0.80785571914E+02 0.  0.
        -13    1    5    5    0    0  0.18585652513E+02 -0.21639929170E+02  0.16599691543E+03  0.16843007139E+03  0.00000000000E+00 0.  1.
         14    1    5    5    0    0 -0.67119759470E+02 -0.21481668730E+02  0.20523223681E+03  0.21699491982E+03  0.00000000000E+00 0. -1.
         13    1    3    3    0    0  0.70355834167E+01  0.25971550290E+02 -0.54379625260E+03  0.54446155530E+03  0.00000000000E+00 0. -1.
        -14    1    3    3    0    0 -0.26608018168E+02 -0.45669751918E+02 -0.59799047991E+03  0.60032185279E+03  0.00000000000E+00 0.  1.
          5    1    4    4  501    0  0.45726211932E+02  0.24342885563E+02 -0.60750564144E+02  0.79947269991E+02  0.41800000000E+01 0. -1.
         -5    1    4    4    0  501  0.22380329777E+02  0.38476913965E+02 -0.50049156019E+03  0.50248445378E+03  0.41800000000E+01 0. -1.
</event>
<event>
11    1  0.8299058E-009  0.1546021E+03  0.7561462E-02  0.1092267E+00
         22   -1    0    0    0    0  0.00000000000E+00  0.00000000000E+00  0.37459531169E+02  0.37459531169E+02  0.00000000000E+00 0. -1.
         22   -1    0    0    0    0 -0.00000000000E+00 -0.00000000000E+00 -0.13720468811E+04  0.13720468811E+04  0.00000000000E+00 0.  1.
        -24    2    1    2    0    0  0.85920622932E+02  0.50406812010E+02 -0.68381294555E+03  0.69538017678E+03  0.77654656103E+02 0.  0.
         25    2    1    2    0    0  0.73094853097E+01 -0.99821349104E+02 -0.38157654686E+03  0.41384173917E+03  0.12508634477E+03 0.  0.
         24    2    1    2    0    0 -0.93230108241E+02  0.49414537093E+02 -0.26919785756E+03  0.30028449636E+03  0.81053332338E+02 0.  0.
        -11    1    5    5    0    0 -0.78428036649E+01  0.12523637384E+02 -0.14167099588E+03  0.14243953853E+03  0.00000000000E+00 0.  1.
         12    1    5    5    0    0 -0.85387304576E+02  0.36890899709E+02 -0.12752686168E+03  0.15784495784E+03  0.00000000000E+00 0. -1.
         11    1    3    3    0    0  0.40168657518E+01  0.34132227138E+02 -0.10269462405E+03  0.10829279731E+03  0.00000000000E+00 0. -1.
        -12    1    3    3    0    0  0.81903757180E+02  0.16274584872E+02 -0.58111832150E+03  0.58708737947E+03  0.00000000000E+00 0.  1.
          5    1    4    4  501    0 -0.44463336022E+02  0.93777238193E+00 -0.14077405985E+03  0.14769115070E+03  0.41800000000E+01 0. -1.
         -5    1    4    4    0  501  0.51772821332E+02 -0.10075912149E+03 -0.24080248701E+03  0.26615058847E+03  0.41800000000E+01 0. -1.
</event>
<event>
11    1  0.8299058E-009  0.1350207E+03  0.7561462E-02  0.1113250E+00
         22   -1    0    0    0    0  0.00000000000E+00  0.00000000000E+00  0.83603968530E+03  0.83603968530E+03  0.00000000000E+00 0. -1.
         22   -1    0    0    0    0 -0.00000000000E+00 -0.00000000000E+00 -0.70796125888E+03  0.70796125888E+03  0.00000000000E+00 0. -1.
         24    2    1    2    0    0 -0.39774138829E+02  0.34831254157E+02 -0.64482493024E+03  0.65145488526E+03  0.76151680794E+02 0.  0.
         25    2    1    2    0    0  0.20914691622E+02  0.14475826229E+02  0.14182158911E+02  0.12844155270E+03  0.12509646261E+03 0.  0.
        -24    2    1    2    0    0  0.18859447208E+02 -0.49307080386E+02  0.75872119775E+03  0.76410450621E+03  0.73559320164E+02 0.  0.
        -13    1    3    3    0    0 -0.19608704236E+02  0.12477504649E+02 -0.43015953806E+02  0.48893370572E+02  0.00000000000E+00 0.  1.
         14    1    3    3    0    0 -0.20165434594E+02  0.22353749507E+02 -0.60180897644E+03  0.60256151469E+03  0.00000000000E+00 0. -1.
         13    1    5    5    0    0  0.22426939845E+02 -0.35513580210E+02  0.73657270494E+03  0.73776929434E+03  0.00000000000E+00 0. -1.
        -14    1    5    5    0    0 -0.35674926369E+01 -0.13793500176E+02  0.22148492805E+02  0.26335211872E+02  0.00000000000E+00 0.  1.
          5    1    4    4  501    0 -0.38226686206E+02  0.35228081637E+02 -0.21258226585E+02  0.56317687023E+02  0.41800000000E+01 0.  1.
         -5    1    4    4    0  501  0.59141377828E+02 -0.20752255408E+02  0.35440385495E+02  0.72123865675E+02  0.41800000000E+01 0.  1.
</event>
<event>
11    1  0.8299058E-009  0.1511830E+03  0.7561462E-02  0.1095676E+00
         22   -1    0    0    0    0  0.00000000000E+00  0.00000000000E+00  0.39697043610E+03  0.39697043610E+03  0.00000000000E+00 0.  1.
         22   -1    0    0    0    0 -0.00000000000E+00 -0.00000000000E+00 -0.29390845671E+03  0.29390845671E+03  0.00000000000E+00 0. -1.
         24    2    1    2    0    0 -0.54335466133E+02  0.56145365054E+02 -0.15220074336E+03  0.18873759489E+03  0.79700492761E+02 0.  0.
         25    2    1    2    0    0 -0.69112528296E+01 -0.11459069841E+03 -0.48148996058E+02  0.17647994996E+03  0.12509217936E+03 0.  0.
        -24    2    1    2    0    0  0.61246718962E+02  0.58445333358E+02  0.30341171880E+03  0.32566134796E+03  0.82641544487E+02 0.  0.
        -11    1    3    3    0    0  0.93933741675E+00 -0.15031425949E+02 -0.51235093641E+02  0.53402817727E+02  0.00000000000E+00 0.  1.
         12    1    3    3    0    0 -0.55274803550E+02  0.71176791003E+02 -0.10096564972E+03  0.13533477716E+03  0.00000000000E+00 0. -1.
         13    1    5    5    0    0 -0.42166001987E+01 -0.51985908842E+01 -0.19261178406E+01  0.69652705872E+01  0.00000000000E+00 0. -1.
        -14    1    5    5    0    0  0.65463319161E+02  0.63643924242E+02  0.30533783665E+03  0.31869607738E+03  0.00000000000E+00 0.  1.
          5    1    4    4  501    0  0.16672493322E+01 -0.76213175340E+02  0.35317377004E+02  0.84119066413E+02  0.41800000000E+01 0. -1.
         -5    1    4    4    0  501 -0.85785021618E+01 -0.38377523072E+02 -0.83466373062E+02  0.92360883542E+02  0.41800000000E+01 0. -1.
</event>
<event>
11    1  0.8299058E-009  0.4996521E+03  0.7561462E-02  0.9394299E-01
         22   -1    0    0    0    0  0.00000000000E+00  0.00000000000E+00  0.13593162351E+04  0.13593162351E+04  0.00000000000E+00 0. -1.
         22   -1    0    0    0    0 -0.00000000000E+00 -0.00000000000E+00 -0.85074952189E+03  0.85074952189E+03  0.00000000000E+00 0. -1.
         24    2    1    2    0    0 -0.39369729852E+02 -0.82117174148E+02 -0.32434645634E+03  0.34648394806E+03  0.80977136277E+02 0.  0.
         25    2    1    2    0    0 -0.33484198759E+03  0.38531808083E+03 -0.31732145423E+03  0.61394726835E+03  0.12509661441E+03 0.  0.
        -24    2    1    2    0    0  0.37421171744E+03 -0.30320090668E+03  0.11502346238E+04  0.12496345406E+04  0.81127035957E+02 0.  0.
        -13    1    3    3    0    0 -0.34195778759E+02 -0.51959363819E+02 -0.85757481041E+02  0.10594089073E+03  0.00000000000E+00 0.  1.
         14    1    3    3    0    0 -0.51739510926E+01 -0.30157810328E+02 -0.23858897530E+03  0.24054305733E+03  0.00000000000E+00 0. -1.
         11    1    5    5    0    0  0.32755035916E+03 -0.28987229658E+03  0.99256838636E+03  0.10846691605E+04  0.00000000000E+00 0. -1.
        -12    1    5    5    0    0  0.46661358279E+02 -0.13328610101E+02  0.15766623744E+03  0.16496538010E+03  0.00000000000E+00 0.  1.
          5    1    4    4  501    0 -0.93576750689E+02  0.51188157728E+02 -0.10736634978E+03  0.15139960775E+03  0.41800000000E+01 0. -1.
         -5    1    4    4    0  501 -0.24126523690E+03  0.33412992310E+03 -0.20995510445E+03  0.46254766061E+03  0.41800000000E+01 0. -1.
</event>
<event>
11    1  0.8299058E-009  0.1295199E+03  0.7561462E-02  0.1119860E+00
         22   -1    0    0    0    0  0.00000000000E+00  0.00000000000E+00  0.93901688377E+03  0.93901688377E+03  0.00000000000E+00 0.  1.
         22   -1    0    0    0    0 -0.00000000000E+00 -0.00000000000E+00 -0.18734794597E+03  0.18734794597E+03  0.00000000000E+00 0.  1.
        -24    2    1    2    0    0 -0.28480052683E+02 -0.18631774277E+02 -0.14877033834E+03  0.17250293675E+03  0.80413886882E+02 0.  0.
         25    2    1    2    0    0  0.16546564321E+02  0.24196440905E+02  0.14398358170E+03  0.19297150313E+03  0.12508985841E+03 0.  0.
         24    2    1    2    0    0  0.11933488362E+02 -0.55646666283E+01  0.75645569444E+03  0.76089038987E+03  0.80966623229E+02 0.  0.
        -13    1    5    5    0    0 -0.26543603816E+02 -0.19649944811E+02  0.50856441780E+03  0.50963560540E+03  0.00000000000E+00 0.  1.
         14    1    5    5    0    0  0.38477092178E+02  0.14085278182E+02  0.24789127664E+03  0.25125478447E+03  0.00000000000E+00 0. -1.
         13    1    3    3    0    0  0.12337664512E+02 -0.35545199292E+02 -0.39081321407E+02  0.54249689780E+02  0.00000000000E+00 0. -1.
        -14    1    3    3    0    0 -0.40817717196E+02  0.16913425015E+02 -0.10968901693E+03  0.11825324697E+03  0.00000000000E+00 0.  1.
          5    1    4    4  501    0  0.50779366604E+02  0.58888656896E+02  0.72804542281E+02  0.10660390124E+03  0.41800000000E+01 0. -1.
         -5    1    4    4    0  501 -0.34232802283E+02 -0.34692215991E+02  0.71179039418E+02  0.86367601883E+02  0.41800000000E+01 0. -1.
</event>
<event>
11    1  0.8299058E-009  0.1510288E+03  0.7561462E-02  0.1095832E+00
         22   -1    0    0    0    0  0.00000000000E+00  0.00000000000E+00  0.33299860508E+03  0.33299860508E+03  0.00000000000E+00 0.  1.
         22   -1    0    0    0    0 -0.00000000000E+00 -0.00000000000E+00 -0.14092583508E+04  0.14092583508E+04  0.00000000000E+00 0.  1.
        -24    2    1    2    0    0 -0.12299180192E+02 -0.17769586727E+02 -0.10375540300E+04  0.10408055890E+04  0.79315073478E+02 0.  0.
         25    2    1    2    0    0  0.85425091238E+02  0.59238115057E+02 -0.34088778832E+03  0.37770093952E+03  0.12508762930E+03 0.  0.
         24    2    1    2    0    0 -0.73125911046E+02 -0.41468528330E+02  0.30218207259E+03  0.32375042737E+03  0.80207833288E+02 0.  0.
        -11    1    5    5    0    0 -0.56942519752E+02  0.12470329044E+02  0.18026684811E+03  0.18945737302E+03  0.00000000000E+00 0.  1.
         12    1    5    5    0    0 -0.16183391294E+02 -0.53938857374E+02  0.12191522448E+03  0.13429305435E+03  0.00000000000E+00 0. -1.
         13    1    3    3    0    0  0.59994433642E+01 -0.14081410232E+02 -0.36524106383E+02  0.39601638626E+02  0.00000000000E+00 0. -1.
        -14    1    3    3    0    0 -0.18298623556E+02 -0.36881764955E+01 -0.10010299236E+04  0.10012039504E+04  0.00000000000E+00 0.  1.
          5    1    4    4  501    0  0.57013169246E+02  0.97679187168E+02 -0.21482161587E+03  0.24281170506E+03  0.41800000000E+01 0. -1.
         -5    1    4    4    0  501  0.28411921992E+02 -0.38441072111E+02 -0.12606617245E+03  0.13488923446E+03  0.41800000000E+01 0. -1.
</event>
<event>
11    1  0.8299058E-009  0.1358170E+03  0.7561462E-02  0.1112321E+00
         22   -1    0    0    0    0  0.00000000000E+00  0.00000000000E+00  0.40576201513E+03  0.40576201513E+03  0.00000000000E+00 0.  1.
         22   -1    0    0    0    0 -0.00000000000E+00 -0.00000000000E+00 -0.97714092804E+03  0.97714092804E+03  0.00000000000E+00 0.  1.
        -24    2    1    2    0    0  0.68324727801E+01  0.55325899655E+02 -0.87380010740E+03  0.87981391793E+03  0.86245374543E+02 0.  0.
         25    2    1    2    0    0  0.10338384079E+02 -0.14261325884E+02 -0.52211810916E+02  0.13668861625E+03  0.12508971586E+03 0.  0.
         24    2    1    2    0    0 -0.17170856859E+02 -0.41064573771E+02  0.35463300542E+03  0.36640040898E+03  0.80644613143E+02 0.  0.
        -11    1    5    5    0    0 -0.48763268322E+01 -0.12752837738E+02  0.31885901604E+03  0.31915119543E+03  0.00000000000E+00 0.  1.
         12    1    5    5    0    0 -0.12294530027E+02 -0.28311736033E+02  0.35773989380E+02  0.47249213559E+02  0.00000000000E+00 0. -1.
         13    1    3    3    0    0  0.34148479340E+01  0.51752558073E+02 -0.22135234034E+03  0.22734741483E+03  0.00000000000E+00 0. -1.
        -14    1    3    3    0    0  0.34176248461E+01  0.35733415814E+01 -0.65244776706E+03  0.65246650310E+03  0.00000000000E+00 0.  1.
          5    1    4    4  501    0  0.50297615994E+02  0.26620577078E+02 -0.55065341024E+02  0.79297979046E+02  0.41800000000E+01 0.  1.
         -5    1    4    4    0  501 -0.39959231914E+02 -0.40881902962E+02  0.28535301084E+01  0.57390637208E+02  0.41800000000E+01 0.  1.
</event>
<event>
11    1  0.8299058E-009  0.1712504E+03  0.7561462E-02  0.1076949E+00
         22   -1    0    0    0    0  0.00000000000E+00  0.00000000000E+00  0.19258652146E+03  0.19258652146E+03  0.00000000000E+00 0. -1.
         22   -1    0    0    0    0 -0.00000000000E+00 -0.00000000000E+00 -0.43905666641E+03  0.43905666641E+03  0.00000000000E+00 0.  1.
        -24    2    1    2    0    0  0.56000210119E+02  0.46531615097E+02 -0.26760817721E+03  0.28850355551E+03  0.79491825364E+02 0.  0.
         25    2    1    2    0    0  0.46840030049E+02 -0.11159113780E+03 -0.48936965599E+02  0.18080223396E+03  0.12509216903E+03 0.  0.
         24    2    1    2    0    0 -0.10284024017E+03  0.65059522705E+02  0.70074997860E+02  0.16233739839E+03  0.81449794961E+02 0.  0.
        -11    1    5    5    0    0 -0.36066238484E+00  0.44872543514E+01 -0.15233006085E+02  0.15884269053E+02  0.00000000000E+00 0.  1.
         12    1    5    5    0    0 -0.10247957778E+03  0.60572268353E+02  0.85308003945E+02  0.14645312934E+03  0.00000000000E+00 0. -1.
         11    1    3    3    0    0  0.41702503108E+02 -0.12104894603E+02 -0.75036778534E+02  0.86695705612E+02  0.00000000000E+00 0. -1.
        -12    1    3    3    0    0  0.14297707011E+02  0.58636509700E+02 -0.19257139867E+03  0.20180784990E+03  0.00000000000E+00 0.  1.
          5    1    4    4  501    0  0.79348444503E+01  0.19674089358E+02  0.18198449692E+02  0.28261060131E+02  0.41800000000E+01 0.  1.
         -5    1    4    4    0  501  0.38905185599E+02 -0.13126522716E+03 -0.67135415291E+02  0.15254117383E+03  0.41800000000E+01 0.  1.
</event>
<event>
11    1  0.8299058E-009  0.1344123E+03  0.7561462E-02  0.1113963E+00
         22   -1    0    0    0    0  0.00000000000E+00  0.00000000000E+00  0.40514273477E+03  0.40514273477E+03  0.00000000000E+00 0.  1.
         22   -1    0    0    0    0 -0.00000000000E+00 -0.00000000000E+00 -0.10037195159E+04  0.10037195159E+04  0.00000000000E+00 0.  1.
         24    2    1    2    0    0 -0.49307890782E+02 -0.34094435997E+02 -0.77266981444E+03  0.77834031280E+03  0.72120050806E+02 0.  0.
         25    2    1    2    0    0  0.70113659091E+01  0.61096927894E+01 -0.20468791686E+03  0.24006524204E+03  0.12509072519E+03 0.  0.
        -24    2    1    2    0    0  0.42296524873E+02  0.27984743207E+02  0.37878095014E+03  0.39045669586E+03  0.80057987023E+02 0.  0.
        -11    1    3    3    0    0 -0.23800126477E+02 -0.29800751412E+02 -0.70283427937E+03  0.70386827962E+03  0.00000000000E+00 0.  1.
         12    1    3    3    0    0 -0.25507764305E+02 -0.42936845844E+01 -0.69835535072E+02  0.74472033179E+02  0.00000000000E+00 0. -1.
         13    1    5    5    0    0 -0.32161830489E+01  0.25820233921E+02  0.34699316451E+02  0.43371313968E+02  0.00000000000E+00 0. -1.
        -14    1    5    5    0    0  0.45512707922E+02  0.21645092861E+01  0.34408163369E+03  0.34708538190E+03  0.00000000000E+00 0.  1.
          5    1    4    4  501    0 -0.56915348152E+02  0.16162777051E+02 -0.80817560175E+02  0.10024740720E+03  0.41800000000E+01 0. -1.
         -5    1    4    4    0  501  0.63926714061E+02 -0.10053084262E+02 -0.12387035668E+03  0.13981783484E+03  0.41800000000E+01 0. -1.
</event>
<event>
11    1  0.8299058E-009  0.1983106E+03  0.7561462E-02  0.1055725E+00
         22   -1    0    0    0    0  0.00000000000E+00  0.00000000000E+00  0.31571050187E+03  0.31571050187E+03  0.00000000000E+00 0.  1.
         22   -1    0    0    0    0 -0.00000000000E+00 -0.00000000000E+00 -0.39712680418E+03  0.39712680418E+03  0.00000000000E+00 0.  1.
         24    2    1    2    0    0  0.13987801233E+03 -0.65192450950E+02 -0.27997439512E+03  0.32964968600E+03  0.80419770965E+02 0.  0.
         25    2    1    2    0    0 -0.15401874880E+03  0.26383725534E+02  0.45940099531E+02  0.20536630157E+03  0.12508776568E+03 0.  0.
        -24    2    1    2    0    0  0.14140736467E+02  0.38808725416E+02  0.15261799328E+03  0.17782131847E+03  0.81376236301E+02 0.  0.
        -13    1    3    3    0    0  0.88655451271E+02 -0.69798134949E+02 -0.23752951369E+03  0.26296737166E+03  0.00000000000E+00 0.  1.
         14    1    3    3    0    0  0.51222561059E+02  0.46056839986E+01 -0.42444881435E+02  0.66682314346E+02  0.00000000000E+00 0. -1.
         11    1    5    5    0    0  0.17363319830E+02  0.36165996107E+02  0.19443343823E+02  0.44581473383E+02  0.00000000000E+00 0. -1.
        -12    1    5    5    0    0 -0.32225833633E+01  0.26427293086E+01  0.13317464946E+03  0.13323984509E+03  0.00000000000E+00 0.  1.
          5    1    4    4  501    0 -0.61698129763E+02 -0.36640159677E+02 -0.21154449126E+02  0.74927589279E+02  0.41800000000E+01 0. -1.
         -5    1    4    4    0  501 -0.92320619033E+02  0.63023885211E+02  0.67094548657E+02  0.13043871230E+03  0.41800000000E+01 0. -1.
</event>
<event>
11    1  0.1430999E-008  0.1619860E+03  0.7561462E-02  0.1085224E+00
         22   -1    0    0    0    0  0.00000000000E+00  0.00000000000E+00  0.20609257317E+04  0.20609257317E+04  0.00000000000E+00 0.  1.
         22   -1    0    0    0    0 -0.00000000000E+00 -0.00000000000E+00 -0.15330182092E+04  0.15330182092E+04  0.00000000000E+00 0.  1.
        -24    2    1    2    0    0 -0.32262044112E+00  0.10673620810E+03 -0.13502377297E+04  0.13568814490E+04  0.81194936595E+02 0.  0.
         25    2    1    2    0    0  0.80101967366E+02 -0.58756345749E+02 -0.14167359640E+03  0.21351196856E+03  0.12508924599E+03 0.  0.
         24    2    1    2    0    0 -0.79779346925E+02 -0.47979862356E+02  0.20198188485E+04  0.20235505234E+04  0.80135687204E+02 0.  0.
        -11    1    5    5    0    0 -0.56286898062E+02 -0.65676441466E+02  0.17493693110E+04  0.17515063791E+04  0.00000000000E+00 0.  1.
         12    1    5    5    0    0 -0.23492448862E+02  0.17696579111E+02  0.27044953750E+03  0.27204414421E+03  0.00000000000E+00 0. -1.
         13    1    3    3    0    0  0.24604384885E+02  0.10718307524E+01 -0.31722922791E+03  0.31818376391E+03  0.00000000000E+00 0. -1.
        -14    1    3    3    0    0 -0.24927005326E+02  0.10566437735E+03 -0.10330085018E+04  0.10386976851E+04  0.00000000000E+00 0.  1.
          5    1    4    4  501    0  0.51324831779E+02  0.23145611497E+02 -0.12504063892E+02  0.57825441654E+02  0.41800000000E+01 0.  1.
         -5    1    4    4    0  501  0.28777135587E+02 -0.81901957246E+02 -0.12916953251E+03  0.15568652691E+03  0.41800000000E+01 0.  1.
</event>
<event>
11    1  0.8299058E-009  0.1466076E+03  0.7561462E-02  0.1100396E+00
         22   -1    0    0    0    0  0.00000000000E+00  0.00000000000E+00  0.17684553017E+03  0.17684553017E+03  0.00000000000E+00 0.  1.
         22   -1    0    0    0    0 -0.00000000000E+00 -0.00000000000E+00 -0.34892814666E+03  0.34892814666E+03  0.00000000000E+00 0. -1.
         24    2    1    2    0    0  0.14034820934E+01 -0.77897853456E+02 -0.23181507845E+03  0.25739043498E+03  0.80259330222E+02 0.  0.
         25    2    1    2    0    0  0.64918894482E+02  0.64068582208E+02  0.18487694473E+02  0.15591368942E+03  0.12509211651E+03 0.  0.
        -24    2    1    2    0    0 -0.66322376575E+02  0.13829271247E+02  0.41244767495E+02  0.11246955243E+03  0.79739344122E+02 0.  0.
        -11    1    3    3    0    0 -0.14086751618E+02 -0.93263299954E+01 -0.19388764027E+01  0.17005182858E+02  0.00000000000E+00 0.  1.
         12    1    3    3    0    0  0.15490233711E+02 -0.68571523460E+02 -0.22987620205E+03  0.24038525213E+03  0.00000000000E+00 0. -1.
         11    1    5    5    0    0 -0.37562456534E+02  0.47348924406E+02  0.22535279103E+02  0.64503469577E+02  0.00000000000E+00 0. -1.
        -12    1    5    5    0    0 -0.28759920041E+02 -0.33519653159E+02  0.18709488393E+02  0.47966082856E+02  0.00000000000E+00 0.  1.
          5    1    4    4  501    0  0.99606920544E+02  0.58688280545E+02 -0.70575825997E+00  0.11568847561E+03  0.41800000000E+01 0. -1.
         -5    1    4    4    0  501 -0.34688026062E+02  0.53803016634E+01  0.19193452733E+02  0.40225213808E+02  0.41800000000E+01 0. -1.
</event>
<event>
11    1  0.8299058E-009  0.1386231E+03  0.7561462E-02  0.1109106E+00
         22   -1    0    0    0    0  0.00000000000E+00  0.00000000000E+00  0.32246937930E+04  0.32246937930E+04  0.00000000000E+00 0.  1.
         22   -1    0    0    0    0 -0.00000000000E+00 -0.00000000000E+00 -0.38797185963E+02  0.38797185963E+02  0.00000000000E+00 0. -1.
         24    2    1    2    0    0  0.16431792271E+02 -0.27439461759E+02  0.71831994363E+02  0.11263532973E+03  0.80647096855E+02 0.  0.
         25    2    1    2    0    0  0.32081004878E+02 -0.98459415039E+01  0.22202838725E+03  0.25703925149E+03  0.12508572510E+03 0.  0.
        -24    2    1    2    0    0 -0.48512797149E+02  0.37285403263E+02  0.28920362255E+04  0.28938163978E+04  0.80969882562E+02 0.  0.
        -11    1    3    3    0    0  0.11267733934E+02 -0.55009665729E+02  0.60045233569E+02  0.82209824389E+02  0.00000000000E+00 0.  1.
         12    1    3    3    0    0  0.51640583368E+01  0.27570203970E+02  0.11786760794E+02  0.30425505345E+02  0.00000000000E+00 0. -1.
         13    1    5    5    0    0 -0.83384447715E-01 -0.14298709519E+02  0.11591054236E+03  0.11678918561E+03  0.00000000000E+00 0. -1.
        -14    1    5    5    0    0 -0.48429412702E+02  0.51584112782E+02  0.27761256831E+04  0.27770272122E+04  0.00000000000E+00 0.  1.
          5    1    4    4  501    0 -0.35199071745E+02  0.29641574726E+02  0.49880420742E+02  0.67993576001E+02  0.41800000000E+01 0. -1.
         -5    1    4    4    0  501  0.67280076623E+02 -0.39487516230E+02  0.17214796651E+03  0.18904567549E+03  0.41800000000E+01 0. -1.
</event>
<event>
11    1  0.8299058E-009  0.1732718E+03  0.7561462E-02  0.1075219E+00
         22   -1    0    0    0    0  0.00000000000E+00  0.00000000000E+00  0.15510335495E+04  0.15510335495E+04  0.00000000000E+00 0. -1.
         22   -1    0    0    0    0 -0.00000000000E+00 -0.00000000000E+00 -0.14001041697E+03  0.14001041697E+03  0.00000000000E+00 0. -1.
         24    2    1    2    0    0  0.57695801666E+01  0.60025492487E+01 -0.10375650067E+03  0.13123560749E+03  0.79925306315E+02 0.  0.
         25    2    1    2    0    0 -0.12295610346E+03  0.14108933919E+02  0.41829504525E+03  0.45380171427E+03  0.12509190858E+03 0.  0.
        -24    2    1    2    0    0  0.11718652330E+03 -0.20111483168E+02  0.10964845880E+04  0.11060066447E+04  0.82674624643E+02 0.  0.
        -11    1    3    3    0    0 -0.37233367309E+01 -0.33330725806E+02 -0.22277264497E+02  0.40262600918E+02  0.00000000000E+00 0.  1.
         12    1    3    3    0    0  0.94929168975E+01  0.39333275055E+02 -0.81479236171E+02  0.90973006572E+02  0.00000000000E+00 0. -1.
         13    1    5    5    0    0  0.12574883590E+03 -0.21751469080E+02  0.10784617102E+04  0.10859859835E+04  0.00000000000E+00 0. -1.
        -14    1    5    5    0    0 -0.85623126009E+01  0.16399859114E+01  0.18022877797E+02  0.20020661202E+02  0.00000000000E+00 0.  1.
          5    1    4    4  501    0  0.23490457734E+02 -0.12658901189E+02  0.61325970258E+02  0.67010420175E+02  0.41800000000E+01 0.  1.
         -5    1    4    4    0  501 -0.14644656120E+03  0.26767835109E+02  0.35696907500E+03  0.38679129409E+03  0.41800000000E+01 0.  1.
</event>
<event>
11    1  0.8299058E-009  0.1491528E+03  0.7561462E-02  0.1097748E+00
         22   -1    0    0    0    0  0.00000000000E+00  0.00000000000E+00  0.79193469875E+03  0.79193469875E+03  0.00000000000E+00 0. -1.
         22   -1    0    0    0    0 -0.00000000000E+00 -0.00000000000E+00 -0.47856170111E+03  0.47856170111E+03  0.00000000000E+00 0.  1.
         24    2    1    2    0    0 -0.19394506888E+02 -0.85217473115E+02 -0.38903718701E+03  0.40694789053E+03  0.81354090924E+02 0.  0.
         25    2    1    2    0    0 -0.25741597776E+02  0.46017062017E+02 -0.17365199040E+02  0.13685231446E+03  0.12508719352E+03 0.  0.
        -24    2    1    2    0    0  0.45136104665E+02  0.39200411098E+02  0.71977538369E+03  0.72669619488E+03  0.80229773170E+02 0.  0.
        -11    1    3    3    0    0 -0.38220799831E+02 -0.69637742115E+01 -0.12044530887E+03  0.12655590117E+03  0.00000000000E+00 0.  1.
         12    1    3    3    0    0  0.18826292943E+02 -0.78253698903E+02 -0.26859187814E+03  0.28039198936E+03  0.00000000000E+00 0. -1.
         11    1    5    5    0    0  0.65461627390E+02  0.25844775047E+02  0.41258637639E+03  0.41854592943E+03  0.00000000000E+00 0. -1.
        -12    1    5    5    0    0 -0.20325522725E+02  0.13355636051E+02  0.30718900730E+03  0.30815026545E+03  0.00000000000E+00 0.  1.
          5    1    4    4  501    0 -0.61601653635E+02 -0.88752940888E+01  0.14182497680E+02  0.63969916493E+02  0.41800000000E+01 0.  1.
         -5    1    4    4    0  501  0.35860055859E+02  0.54892356106E+02 -0.31547696720E+02  0.72882397967E+02  0.41800000000E+01 0.  1.
</event>
<event>
11    1  0.8299058E-009  0.2082425E+03  0.7561462E-02  0.1048843E+00
         22   -1    0    0    0    0  0.00000000000E+00  0.00000000000E+00  0.12856347695E+03  0.12856347695E+03  0.00000000000E+00 0.  1.
         22   -1    0    0    0    0 -0.00000000000E+00 -0.00000000000E+00 -0.16432479485E+04  0.16432479485E+04  0.00000000000E+00 0.  1.
        -24    2    1    2    0    0  0.15769943982E+03  0.22895308676E+02 -0.11853862378E+04  0.11987574933E+04  0.80533759821E+02 0.  0.
         25    2    1    2    0    0 -0.24533536956E+03  0.93400185542E+02 -0.27035052068E+03  0.39705246827E+03  0.12509284676E+03 0.  0.
         24    2    1    2    0    0  0.87635929736E+02 -0.11629549422E+03 -0.58947713094E+02  0.17600146392E+03  0.79353539725E+02 0.  0.
        -13    1    5    5    0    0  0.85202115738E+02 -0.89446394982E+02 -0.75105134827E+02  0.14457122597E+03  0.00000000000E+00 0.  1.
         14    1    5    5    0    0  0.24338139973E+01 -0.26849099237E+02  0.16157421734E+02  0.31430237948E+02  0.00000000000E+00 0. -1.
         13    1    3    3    0    0  0.45994288740E+02 -0.29770780384E+02 -0.39481189122E+03  0.39859528774E+03  0.00000000000E+00 0. -1.
        -14    1    3    3    0    0  0.11170515108E+03  0.52666089060E+02 -0.79057434655E+03  0.80016220552E+03  0.00000000000E+00 0.  1.
          5    1    4    4  501    0 -0.20228075811E+02  0.53061288711E+02 -0.86659666689E+02  0.10369207126E+03  0.41800000000E+01 0. -1.
         -5    1    4    4    0  501 -0.22510729375E+03  0.40338896831E+02 -0.18369085399E+03  0.29336039701E+03  0.41800000000E+01 0. -1.
</event>
<event>
11    1  0.8299058E-009  0.1501012E+04  0.7561462E-02  0.8309443E-01
         22   -1    0    0    0    0  0.00000000000E+00  0.00000000000E+00  0.19186311748E+04  0.19186311748E+04  0.00000000000E+00 0.  1.
         22   -1    0    0    0    0 -0.00000000000E+00 -0.00000000000E+00 -0.28271599459E+04  0.28271599459E+04  0.00000000000E+00 0. -1.
         24    2    1    2    0    0 -0.12802641045E+04  0.77066586744E+03 -0.21344038206E+04  0.26067507250E+04  0.80421492078E+02 0.  0.
         25    2    1    2    0    0  0.13969038289E+04 -0.59385364336E+03  0.11131683150E+04  0.18864766006E+04  0.12509120643E+03 0.  0.
        -24    2    1    2    0    0 -0.11663972438E+03 -0.17681222408E+03  0.11270673446E+03  0.25256379506E+03  0.78856037778E+02 0.  0.
        -11    1    3    3    0    0 -0.26125955274E+03  0.18586187191E+03 -0.41986875734E+03  0.52829060442E+03  0.00000000000E+00 0.  1.
         12    1    3    3    0    0 -0.10190045518E+04  0.58480399553E+03 -0.17145350632E+04  0.20784601206E+04  0.00000000000E+00 0. -1.
         11    1    5    5    0    0 -0.21019365723E+01 -0.62538536039E+02  0.45494432681E+02  0.77364268446E+02  0.00000000000E+00 0. -1.
        -12    1    5    5    0    0 -0.11453778781E+03 -0.11427368804E+03  0.67212301779E+02  0.17519952662E+03  0.00000000000E+00 0.  1.
          5    1    4    4  501    0  0.11700562331E+04 -0.47843060214E+03  0.87090776516E+03  0.15350652226E+04  0.41800000000E+01 0.  1.
         -5    1    4    4    0  501  0.22684759581E+03 -0.11542304122E+03  0.24226054988E+03  0.35141137801E+03  0.41800000000E+01 0.  1.
</event>
<event>
11    1  0.8299058E-009  0.1682927E+03  0.7561462E-02  0.1079527E+00
         22   -1    0    0    0    0  0.00000000000E+00  0.00000000000E+00  0.33033001931E+03  0.33033001931E+03  0.00000000000E+00 0.  1.
         22   -1    0    0    0    0 -0.00000000000E+00 -0.00000000000E+00 -0.71860102654E+03  0.71860102654E+03  0.00000000000E+00 0.  1.
         24    2    1    2    0    0 -0.32352644683E+01  0.12434617008E+02 -0.58034724640E+03  0.58600386208E+03  0.80202950882E+02 0.  0.
         25    2    1    2    0    0 -0.10172758227E+03 -0.52592303179E+02 -0.56202394220E+02  0.17866280968E+03  0.12508892476E+03 0.  0.
        -24    2    1    2    0    0  0.10496284674E+03  0.40157686170E+02  0.24827863339E+03  0.28426437410E+03  0.80833876748E+02 0.  0.
        -13    1    3    3    0    0 -0.12726841251E+02 -0.21635525659E+02 -0.45693074418E+03  0.45761968209E+03  0.00000000000E+00 0.  1.
         14    1    3    3    0    0  0.94915767831E+01  0.34070142667E+02 -0.12341650222E+03  0.12838417999E+03  0.00000000000E+00 0. -1.
         11    1    5    5    0    0  0.14060061614E+02 -0.23431957045E+02  0.54877636103E+02  0.61304949946E+02  0.00000000000E+00 0. -1.
        -12    1    5    5    0    0  0.90902785125E+02  0.63589643215E+02  0.19340099729E+03  0.22295942415E+03  0.00000000000E+00 0.  1.
          5    1    4    4  501    0 -0.10654505781E+03  0.93537447630E+01 -0.30533224526E+02  0.11130629849E+03  0.41800000000E+01 0. -1.
         -5    1    4    4    0  501  0.48174755378E+01 -0.61946047942E+02 -0.25669169694E+02  0.67356511185E+02  0.41800000000E+01 0. -1.
</event>
<event>
11    1  0.8299058E-009  0.2136309E+03  0.7561462E-02  0.1045282E+00
         22   -1    0    0    0    0  0.00000000000E+00  0.00000000000E+00  0.44181399636E+03  0.44181399636E+03  0.00000000000E+00 0.  1.
         22   -1    0    0    0    0 -0.00000000000E+00 -0.00000000000E+00 -0.64856507592E+03  0.64856507592E+03  0.00000000000E+00 0.  1.
        -24    2    1    2    0    0  0.18704734685E+02  0.16945421002E+03 -0.54968550606E+03  0.58217083876E+03  0.87773193730E+02 0.  0.
         25    2    1    2    0    0  0.22713119302E+02 -0.21897206420E+03  0.19272625313E+03  0.31820768780E+03  0.12509225892E+03 0.  0.
         24    2    1    2    0    0 -0.41417853988E+02  0.49517854180E+02  0.15020817338E+03  0.19000054573E+03  0.96800080145E+02 0.  0.
        -13    1    5    5    0    0  0.15655794942E+02  0.28271546886E+02  0.11543257294E+03  0.11987102725E+03  0.00000000000E+00 0.  1.
         14    1    5    5    0    0 -0.57073648929E+02  0.21246307294E+02  0.34775600432E+02  0.70129518472E+02  0.00000000000E+00 0. -1.
         13    1    3    3    0    0 -0.84963112745E+01 -0.45353420934E+01 -0.78159660475E+01  0.12403465582E+02  0.00000000000E+00 0. -1.
        -14    1    3    3    0    0  0.27201045960E+02  0.17398955212E+03 -0.54186954001E+03  0.56976737318E+03  0.00000000000E+00 0.  1.
          5    1    4    4  501    0 -0.82933113702E+00 -0.50387874412E+02  0.12521577394E+03  0.13504106087E+03  0.41800000000E+01 0.  1.
         -5    1    4    4    0  501  0.23542450439E+02 -0.16858418979E+03  0.67510479186E+02  0.18316662693E+03  0.41800000000E+01 0.  1.
</event>
<event>
11    1  0.8299058E-009  0.1553542E+03  0.7561462E-02  0.1091530E+00
         22   -1    0    0    0    0  0.00000000000E+00  0.00000000000E+00  0.10399051234E+04  0.10399051234E+04  0.00000000000E+00 0. -1.
         22   -1    0    0    0    0 -0.00000000000E+00 -0.00000000000E+00 -0.16510960009E+04  0.16510960009E+04  0.00000000000E+00 0. -1.
         24    2    1    2    0    0 -0.44017275566E+02  0.10411536967E+02 -0.16129150840E+04  0.16155857965E+04  0.81095479309E+02 0.  0.
         25    2    1    2    0    0  0.23390963155E+02  0.81787547271E+02  0.14545390633E+03  0.20985782938E+03  0.12508848723E+03 0.  0.
        -24    2    1    2    0    0  0.20626312411E+02 -0.92199084239E+02  0.85627030021E+03  0.86555749842E+03  0.84052603395E+02 0.  0.
        -13    1    3    3    0    0 -0.13463693571E+02 -0.29181983919E+02 -0.29959543363E+03  0.30131425967E+03  0.00000000000E+00 0.  1.
         14    1    3    3    0    0 -0.30553581996E+02  0.39593520887E+02 -0.13133196504E+04  0.13142715368E+04  0.00000000000E+00 0. -1.
         13    1    5    5    0    0 -0.11852387762E+02 -0.92380387958E+02  0.67580079687E+03  0.68218863390E+03  0.00000000000E+00 0. -1.
        -14    1    5    5    0    0  0.32478700173E+02  0.18130371895E+00  0.18046950335E+03  0.18336886452E+03  0.00000000000E+00 0.  1.
          5    1    4    4  501    0  0.32799387599E+02  0.57881620933E+02  0.16457377688E+03  0.17756148880E+03  0.41800000000E+01 0. -1.
         -5    1    4    4    0  501 -0.94084244432E+01  0.23905926338E+02 -0.19119870550E+02  0.32296340573E+02  0.41800000000E+01 0. -1.
</event>
<event>
11    1  0.8299058E-009  0.1821970E+03  0.7561462E-02  0.1067879E+00
         22   -1    0    0    0    0  0.00000000000E+00  0.00000000000E+00  0.13372091772E+04  0.13372091772E+04  0.00000000000E+00 0. -1.
         22   -1    0    0    0    0 -0.00000000000E+00 -0.00000000000E+00 -0.26251499297E+03  0.26251499297E+03  0.00000000000E+00 0. -1.
         24    2    1    2    0    0  0.27525332881E+02  0.12835662509E+03 -0.19146359113E+03  0.24421103051E+03  0.75813280758E+02 0.  0.
         25    2    1    2    0    0 -0.98535297444E+02 -0.12376516728E+03  0.20325614357E+03  0.28633772966E+03  0.12509681871E+03 0.  0.
        -24    2    1    2    0    0  0.71009964563E+02 -0.45914578108E+01  0.10629016318E+04  0.10691754100E+04  0.91173910442E+02 0.  0.
        -11    1    3    3    0    0 -0.94832775250E+01  0.19163323848E+02 -0.83726131591E+02  0.86413139305E+02  0.00000000000E+00 0.  1.
         12    1    3    3    0    0  0.37008610406E+02  0.10919330124E+03 -0.10773745954E+03  0.15779789120E+03  0.00000000000E+00 0. -1.
         11    1    5    5    0    0  0.54395560468E+02  0.26381810417E+02  0.33402930346E+03  0.33945611276E+03  0.00000000000E+00 0. -1.
        -12    1    5    5    0    0  0.16614404095E+02 -0.30973268228E+02  0.72887232829E+03  0.72971929721E+03  0.00000000000E+00 0.  1.
          5    1    4    4  501    0 -0.21742171403E+02 -0.12256719448E+03  0.11916062082E+03  0.17237217042E+03  0.41800000000E+01 0.  1.
         -5    1    4    4    0  501 -0.76793126041E+02 -0.11979727999E+01  0.84095522754E+02  0.11396555924E+03  0.41800000000E+01 0.  1.
</event>
<event>
11    1  0.8299058E-009  0.1464428E+03  0.7561462E-02  0.1100570E+00
         22   -1    0    0    0    0  0.00000000000E+00  0.00000000000E+00  0.45602024122E+02  0.45602024122E+02  0.00000000000E+00 0.  1.
         22   -1    0    0    0    0 -0.00000000000E+00 -0.00000000000E+00 -0.18707580845E+04  0.18707580845E+04  0.00000000000E+00 0.  1.
        -24    2    1    2    0    0 -0.47028434729E+02 -0.56425220383E+02 -0.14447686446E+04  0.14500118955E+04  0.98906932714E+02 0.  0.
         25    2    1    2    0    0  0.93722731893E+02  0.46484846748E+02 -0.30639937300E+03  0.34709137644E+03  0.12508819437E+03 0.  0.
         24    2    1    2    0    0 -0.46694297164E+02  0.99403736347E+01 -0.73988042749E+02  0.11925683671E+03  0.80428814598E+02 0.  0.
        -13    1    5    5    0    0 -0.76450614838E+01  0.26009886547E+02  0.69315191537E+01  0.27982264401E+02  0.00000000000E+00 0.  1.
         14    1    5    5    0    0 -0.39049235680E+02 -0.16069512912E+02 -0.80919561903E+02  0.91274572313E+02  0.00000000000E+00 0. -1.
         13    1    3    3    0    0 -0.77538315948E+02 -0.43534173636E+02 -0.95824909755E+03  0.96236622326E+03  0.00000000000E+00 0. -1.
        -14    1    3    3    0    0  0.30509881219E+02 -0.12891046746E+02 -0.48651954709E+03  0.48764567222E+03  0.00000000000E+00 0.  1.
          5    1    4    4  501    0 -0.18048242930E+02  0.13088900238E+02 -0.41166595399E+01  0.23053799428E+02  0.41800000000E+01 0.  1.
         -5    1    4    4    0  501  0.11177097482E+03  0.33395946510E+02 -0.30228271346E+03  0.32403757701E+03  0.41800000000E+01 0.  1.
</event>
<event>
11    1  0.8299058E-009  0.2008560E+03  0.7561462E-02  0.1053920E+00
         22   -1    0    0    0    0  0.00000000000E+00  0.00000000000E+00  0.52221126010E+03  0.52221126010E+03  0.00000000000E+00 0. -1.
         22   -1    0    0    0    0 -0.00000000000E+00 -0.00000000000E+00 -0.19723869448E+03  0.19723869448E+03  0.00000000000E+00 0.  1.
        -24    2    1    2    0    0 -0.38210567539E+02  0.14417639570E+03 -0.61466681007E+02  0.18023310468E+03  0.80367522052E+02 0.  0.
         25    2    1    2    0    0 -0.37927562855E+02 -0.20240871268E+03  0.19131179307E+03  0.30766050339E+03  0.12508795380E+03 0.  0.
         24    2    1    2    0    0  0.76138130394E+02  0.58232316979E+02  0.19512745355E+03  0.23155634650E+03  0.79722022250E+02 0.  0.
        -13    1    5    5    0    0  0.71976000471E+02  0.41734101128E+02  0.80828856406E+02  0.11599820632E+03  0.00000000000E+00 0.  1.
         14    1    5    5    0    0  0.41621299229E+01  0.16498215851E+02  0.11429859715E+03  0.11555814018E+03  0.00000000000E+00 0. -1.
         13    1    3    3    0    0 -0.53847597154E+02  0.80455241495E+02 -0.61363065467E+02  0.11462126943E+03  0.00000000000E+00 0. -1.
        -14    1    3    3    0    0  0.15637029615E+02  0.63721154207E+02 -0.10361554073E+00  0.65611835250E+02  0.00000000000E+00 0.  1.
          5    1    4    4  501    0  0.21720450633E+02 -0.11949840923E+03  0.15965933096E+03  0.20064950074E+03  0.41800000000E+01 0. -1.
         -5    1    4    4    0  501 -0.59648013487E+02 -0.82910303453E+02  0.31652462117E+02  0.10701100266E+03  0.41800000000E+01 0. -1.
</event>
<event>
11    1  0.8299058E-009  0.2997168E+03  0.7561462E-02  0.1000311E+00
         22   -1    0    0    0    0  0.00000000000E+00  0.00000000000E+00  0.86223214468E+03  0.86223214468E+03  0.00000000000E+00 0.  1.
         22   -1    0    0    0    0 -0.00000000000E+00 -0.00000000000E+00 -0.13391401648E+04  0.13391401648E+04  0.00000000000E+00 0. -1.
        -24    2    1    2    0    0 -0.83722023830E+01 -0.19290113831E+02 -0.57665547096E+03  0.58244128046E+03  0.79146135336E+02 0.  0.
         25    2    1    2    0    0 -0.19657698111E+03  0.19835184846E+03 -0.70279251029E+03  0.76651913978E+03  0.12509322057E+03 0.  0.
         24    2    1    2    0    0  0.20494918350E+03 -0.17906173463E+03  0.80253996118E+03  0.85241188919E+03  0.92023730166E+02 0.  0.
        -13    1    5    5    0    0  0.18344470506E+03 -0.12378180692E+03  0.69769782896E+03  0.73195365706E+03  0.00000000000E+00 0.  1.
         14    1    5    5    0    0  0.21504478432E+02 -0.55279927709E+02  0.10484213222E+03  0.12045823213E+03  0.00000000000E+00 0. -1.
         13    1    3    3    0    0 -0.19026956882E+02  0.20745265939E+02 -0.40015207066E+03  0.40114096126E+03  0.00000000000E+00 0. -1.
        -14    1    3    3    0    0  0.10654754499E+02 -0.40035379770E+02 -0.17650340029E+03  0.18130031920E+03  0.00000000000E+00 0.  1.
          5    1    4    4  501    0 -0.14158782805E+03  0.68592704365E+02 -0.28486517286E+03  0.32545001344E+03  0.41800000000E+01 0.  1.
         -5    1    4    4    0  501 -0.54989153068E+02  0.12975914410E+03 -0.41792733744E+03  0.44106912634E+03  0.41800000000E+01 0.  1.
</event>
<event>
11    1  0.8299058E-009  0.1513324E+03  0.7561462E-02  0.1095525E+00
         22   -1    0    0    0    0  0.00000000000E+00  0.00000000000E+00  0.39909478960E+03  0.39909478960E+03  0.00000000000E+00 0. -1.
         22   -1    0    0    0    0 -0.00000000000E+00 -0.00000000000E+00 -0.35474191588E+03  0.35474191588E+03  0.00000000000E+00 0. -1.
        -24    2    1    2    0    0 -0.30902364504E+01 -0.18374840727E+02 -0.30188784234E+03  0.31317313989E+03  0.81203213377E+02 0.  0.
         25    2    1    2    0    0  0.69776613578E+02 -0.39692153021E+02  0.15021615651E+03  0.21131997932E+03  0.12508795774E+03 0.  0.
         24    2    1    2    0    0 -0.66686377127E+02  0.58066993748E+02  0.19602455956E+03  0.22934358627E+03  0.79712006345E+02 0.  0.
        -13    1    5    5    0    0  0.79650210605E+01  0.35270833299E+01  0.82395489674E+02  0.82854683609E+02  0.00000000000E+00 0.  1.
         14    1    5    5    0    0 -0.74651398188E+02  0.54539910418E+02  0.11362906988E+03  0.14648890266E+03  0.00000000000E+00 0. -1.
         11    1    3    3    0    0 -0.22028924390E+01 -0.35085538204E+02 -0.29120598919E+03  0.29332026160E+03  0.00000000000E+00 0. -1.
        -12    1    3    3    0    0 -0.88734401147E+00  0.16710697477E+02 -0.10681853149E+02  0.19852878286E+02  0.00000000000E+00 0.  1.
          5    1    4    4  501    0 -0.10396631628E+02 -0.23757798640E+02 -0.12566298419E+02  0.29118846155E+02  0.41800000000E+01 0.  1.
         -5    1    4    4    0  501  0.80173245206E+02 -0.15934354381E+02  0.16278245493E+03  0.18220113317E+03  0.41800000000E+01 0.  1.
</event>
<event>
11    1  0.8299058E-009  0.1501345E+03  0.7561462E-02  0.1096741E+00
         22   -1    0    0    0    0  0.00000000000E+00  0.00000000000E+00  0.88457158694E+03  0.88457158694E+03  0.00000000000E+00 0. -1.
         22   -1    0    0    0    0 -0.00000000000E+00 -0.00000000000E+00 -0.73657593101E+03  0.73657593101E+03  0.00000000000E+00 0. -1.
         24    2    1    2    0    0  0.35788062620E+02  0.73814404554E+02 -0.66950818692E+03  0.67945764654E+03  0.81805435900E+02 0.  0.
         25    2    1    2    0    0 -0.44401797245E+02 -0.95500539965E+02  0.51729711266E+02  0.17150789112E+03  0.12508845254E+03 0.  0.
        -24    2    1    2    0    0  0.86137346249E+01  0.21686135411E+02  0.76577413159E+03  0.77018198028E+03  0.78903594608E+02 0.  0.
        -11    1    3    3    0    0  0.35486781631E+02  0.24686777940E+02 -0.11633497347E+03  0.12410710990E+03  0.00000000000E+00 0.  1.
         12    1    3    3    0    0  0.30128098925E+00  0.49127626615E+02 -0.55317321345E+03  0.55535053664E+03  0.00000000000E+00 0. -1.
         13    1    5    5    0    0 -0.27843291494E+02  0.33728337124E+02  0.38442272262E+03  0.38690267416E+03  0.00000000000E+00 0. -1.
        -14    1    5    5    0    0  0.36457026119E+02 -0.12042201713E+02  0.38135140897E+03  0.38327930612E+03  0.00000000000E+00 0.  1.
          5    1    4    4  501    0 -0.98144370289E+00  0.30010920395E+02  0.54436531563E+01  0.30801369034E+02  0.41800000000E+01 0. -1.
         -5    1    4    4    0  501 -0.43420353542E+02 -0.12551146036E+03  0.46286058110E+02  0.14070652209E+03  0.41800000000E+01 0. -1.
</event>
<event>
11    1  0.8299058E-009  0.9122282E+03  0.7561462E-02  0.8767293E-01
         22   -1    0    0    0    0  0.00000000000E+00  0.00000000000E+00  0.92570882217E+03  0.92570882217E+03  0.00000000000E+00 0.  1.
         22   -1    0    0    0    0 -0.00000000000E+00 -0.00000000000E+00 -0.19321783319E+04  0.19321783319E+04  0.00000000000E+00 0.  1.
         24    2    1    2    0    0 -0.55187425871E+03 -0.24322671758E+03 -0.47733629454E+03  0.77147585504E+03  0.60005193588E+02 0.  0.
         25    2    1    2    0    0  0.56470585796E+03  0.10434805202E+04 -0.46059009773E+03  0.12788806575E+04  0.12509274940E+03 0.  0.
        -24    2    1    2    0    0 -0.12831599255E+02 -0.80025380258E+03 -0.68543117448E+02  0.80753064154E+03  0.82684820765E+02 0.  0.
        -11    1    3    3    0    0 -0.44602789308E+03 -0.22152058508E+03 -0.39437899117E+03  0.63525352396E+03  0.00000000000E+00 0.  1.
         12    1    3    3    0    0 -0.10584636563E+03 -0.21706132505E+02 -0.82957303369E+02  0.13622233109E+03  0.00000000000E+00 0. -1.
         11    1    5    5    0    0 -0.42624117039E+02 -0.26599957993E+03 -0.15869173581E+02  0.26986000546E+03  0.00000000000E+00 0. -1.
        -12    1    5    5    0    0  0.29792517785E+02 -0.53425422266E+03 -0.52673943867E+02  0.53767063608E+03  0.00000000000E+00 0.  1.
          5    1    4    4  501    0  0.13357300110E+03  0.36828661370E+03 -0.14130188554E+03  0.41648586016E+03  0.41800000000E+01 0. -1.
         -5    1    4    4    0  501  0.43113285686E+03  0.67519390646E+03 -0.31928821219E+03  0.86239479731E+03  0.41800000000E+01 0. -1.
</event>
<event>
11    1  0.8299058E-009  0.3259786E+03  0.7561462E-02  0.9897589E-01
         22   -1    0    0    0    0  0.00000000000E+00  0.00000000000E+00  0.50131138134E+03  0.50131138134E+03  0.00000000000E+00 0.  1.
         22   -1    0    0    0    0 -0.00000000000E+00 -0.00000000000E+00 -0.12865479046E+04  0.12865479046E+04  0.00000000000E+00 0.  1.
        -24    2    1    2    0    0  0.90427205455E+02 -0.28570343695E+03 -0.10016131780E+04  0.10487983917E+04  0.83340114156E+02 0.  0.
         25    2    1    2    0    0 -0.18622309656E+03  0.26110251692E+03 -0.13138607136E+03  0.36845947217E+03  0.12508603780E+03 0.  0.
         24    2    1    2    0    0  0.95795891106E+02  0.24600920033E+02  0.34776272607E+03  0.37060142213E+03  0.81390677714E+02 0.  0.
        -11    1    5    5    0    0  0.88678956899E+02  0.46862657439E+02  0.31328121462E+03  0.32894556615E+03  0.00000000000E+00 0.  1.
         12    1    5    5    0    0  0.71169342065E+01 -0.22261737407E+02  0.34481511457E+02  0.41655855978E+02  0.00000000000E+00 0. -1.
         13    1    3    3    0    0  0.58655124514E+02 -0.91821099448E+02 -0.26722395206E+03  0.28858305302E+03  0.00000000000E+00 0. -1.
        -14    1    3    3    0    0  0.31772080940E+02 -0.19388233750E+03 -0.73438922593E+03  0.76021533863E+03  0.00000000000E+00 0.  1.
          5    1    4    4  501    0 -0.42805614230E+02  0.13520098982E+03 -0.99602599945E+01  0.14222625438E+03  0.41800000000E+01 0.  1.
         -5    1    4    4    0  501 -0.14341748233E+03  0.12590152710E+03 -0.12142581137E+03  0.22623321779E+03  0.41800000000E+01 0.  1.
</event>
<event>
11    1  0.8299058E-009  0.1442588E+03  0.7561462E-02  0.1102894E+00
         22   -1    0    0    0    0  0.00000000000E+00  0.00000000000E+00  0.54051803470E+02  0.54051803470E+02  0.00000000000E+00 0. -1.
         22   -1    0    0    0    0 -0.00000000000E+00 -0.00000000000E+00 -0.17589360576E+04  0.17589360576E+04  0.00000000000E+00 0.  1.
        -24    2    1    2    0    0 -0.54519559040E+02  0.52735387349E+02 -0.11152783867E+04  0.11208539437E+04  0.81940709431E+02 0.  0.
         25    2    1    2    0    0  0.28659157795E+02 -0.55792183844E+02 -0.59051108496E+03  0.60686552683E+03  0.12509320964E+03 0.  0.
         24    2    1    2    0    0  0.25860401244E+02  0.30567964954E+01  0.90521754122E+00  0.85268390526E+02  0.81189744715E+02 0.  0.
        -11    1    5    5    0    0  0.41532130458E+02  0.29819957556E+02 -0.10551103676E+02  0.52206067826E+02  0.00000000000E+00 0.  1.
         12    1    5    5    0    0 -0.15671729214E+02 -0.26763161061E+02  0.11456321217E+02  0.33062322701E+02  0.00000000000E+00 0. -1.
         11    1    3    3    0    0 -0.21315534445E+02  0.68133045544E+02 -0.59028461122E+03  0.59458589468E+03  0.00000000000E+00 0. -1.
        -12    1    3    3    0    0 -0.33204024595E+02 -0.15397658195E+02 -0.52499377550E+03  0.52626804904E+03  0.00000000000E+00 0.  1.
          5    1    4    4  501    0  0.69171596889E+02 -0.35572741145E+02 -0.21623112126E+03  0.22983363533E+03  0.41800000000E+01 0.  1.
         -5    1    4    4    0  501 -0.40512439093E+02 -0.20219442699E+02 -0.37427996370E+03  0.37703189151E+03  0.41800000000E+01 0.  1.
</event>
<event>
11    1  0.8299058E-009  0.1564198E+03  0.7561462E-02  0.1090494E+00
         22   -1    0    0    0    0  0.00000000000E+00  0.00000000000E+00  0.16635397534E+04  0.16635397534E+04  0.00000000000E+00 0. -1.
         22   -1    0    0    0    0 -0.00000000000E+00 -0.00000000000E+00 -0.10448690590E+03  0.10448690590E+03  0.00000000000E+00 0.  1.
         24    2    1    2    0    0 -0.47877646906E+02  0.83028496756E+02 -0.33511952685E+02  0.12867294695E+03  0.79042241594E+02 0.  0.
         25    2    1    2    0    0  0.63360358159E+02 -0.58925558161E+02  0.24091104260E+03  0.28490863599E+03  0.12509214214E+03 0.  0.
        -24    2    1    2    0    0 -0.15482711254E+02 -0.24102938595E+02  0.13516537576E+04  0.13544450764E+04  0.82054363071E+02 0.  0.
        -11    1    3    3    0    0 -0.57553957493E+02  0.88598583064E+02 -0.42955530441E+02  0.11404974590E+03  0.00000000000E+00 0.  1.
         12    1    3    3    0    0  0.96763105871E+01 -0.55700863083E+01  0.94435777554E+01  0.14623201048E+02  0.00000000000E+00 0. -1.
         11    1    5    5    0    0  0.29081550371E+01 -0.31379773529E+02  0.12713863267E+04  0.12717768434E+04  0.00000000000E+00 0. -1.
        -12    1    5    5    0    0 -0.18390866291E+02  0.72768349338E+01  0.80267430896E+02  0.82668233029E+02  0.00000000000E+00 0.  1.
          5    1    4    4  501    0 -0.19741309140E+02  0.25617888975E+02  0.65273667950E+02  0.72966565286E+02  0.41800000000E+01 0.  1.
         -5    1    4    4    0  501  0.83101667299E+02 -0.84543447136E+02  0.17563737465E+03  0.21194207071E+03  0.41800000000E+01 0.  1.
</event>
<event>
11    1  0.8299058E-009  0.1310148E+03  0.7561462E-02  0.1118028E+00
         22   -1    0    0    0    0  0.00000000000E+00  0.00000000000E+00  0.64457230353E+02  0.64457230353E+02  0.00000000000E+00 0. -1.
         22   -1    0    0    0    0 -0.00000000000E+00 -0.00000000000E+00 -0.18361512644E+04  0.18361512644E+04  0.00000000000E+00 0.  1.
        -24    2    1    2    0    0 -0.25002964910E+02 -0.28445233153E+02 -0.15415417211E+04  0.15442776733E+04  0.83716036976E+02 0.  0.
         25    2    1    2    0    0  0.23514840455E+02  0.51944260454E+02 -0.22698922109E+03  0.26536652539E+03  0.12507650614E+03 0.  0.
         24    2    1    2    0    0  0.14881244549E+01 -0.23499027300E+02 -0.31630918543E+01  0.90964296056E+02  0.87807056712E+02 0.  0.
        -11    1    5    5    0    0  0.17451395321E+01 -0.26799323225E+02 -0.43158500901E+02  0.50832129970E+02  0.00000000000E+00 0.  1.
         12    1    5    5    0    0 -0.25701507714E+00  0.33002959251E+01  0.39995409047E+02  0.40132166086E+02  0.00000000000E+00 0. -1.
         11    1    3    3    0    0  0.95783381410E+00 -0.21019526239E+02 -0.87832304506E+02  0.90317504637E+02  0.00000000000E+00 0. -1.
        -12    1    3    3    0    0 -0.25960798724E+02 -0.74257069142E+01 -0.14537094166E+04  0.14539601687E+04  0.00000000000E+00 0.  1.
          5    1    4    4  501    0 -0.10881576523E+02  0.57951180699E+02 -0.31972750712E+02  0.67204741202E+02  0.41800000000E+01 0.  1.
         -5    1    4    4    0  501  0.34396416978E+02 -0.60069202450E+01 -0.19501647038E+03  0.19816178418E+03  0.41800000000E+01 0.  1.
</event>
<event>
11    1  0.8299058E-009  0.1342437E+03  0.7561462E-02  0.1114162E+00
         22   -1    0    0    0    0  0.00000000000E+00  0.00000000000E+00  0.86595876749E+03  0.86595876749E+03  0.00000000000E+00 0.  1.
         22   -1    0    0    0    0 -0.00000000000E+00 -0.00000000000E+00 -0.24796745716E+04  0.24796745716E+04  0.00000000000E+00 0. -1.
        -24    2    1    2    0    0 -0.84653925152E+01  0.49965110918E+02 -0.21742033292E+04  0.21762618519E+04  0.79920938042E+02 0.  0.
         25    2    1    2    0    0 -0.85070285619E+01 -0.24750221568E+02 -0.28845690784E+03  0.31549877802E+03  0.12508856163E+03 0.  0.
         24    2    1    2    0    0  0.16972421077E+02 -0.25214889350E+02  0.84894443286E+03  0.85387270918E+03  0.86418167559E+02 0.  0.
        -13    1    5    5    0    0  0.40773255233E+02 -0.41691520769E+02  0.67716435283E+03  0.67967065700E+03  0.00000000000E+00 0.  1.
         14    1    5    5    0    0 -0.23800834156E+02  0.16476631419E+02  0.17178008003E+03  0.17420205219E+03  0.00000000000E+00 0. -1.
         13    1    3    3    0    0  0.75924661417E+01 -0.19534301640E+02 -0.72660280712E+03  0.72690499641E+03  0.00000000000E+00 0. -1.
        -14    1    3    3    0    0 -0.16057858657E+02  0.69499412558E+02 -0.14476005220E+04  0.14493568555E+04  0.00000000000E+00 0.  1.
          5    1    4    4  501    0 -0.15155800762E+02 -0.71540572128E+02 -0.22252609440E+03  0.23427139570E+03  0.41800000000E+01 0.  1.
         -5    1    4    4    0  501  0.66487722002E+01  0.46790350560E+02 -0.65930813441E+02  0.81227382319E+02  0.41800000000E+01 0.  1.
</event>
<event>
11    1  0.8299058E-009  0.1397083E+03  0.7561462E-02  0.1107885E+00
         22   -1    0    0    0    0  0.00000000000E+00  0.00000000000E+00  0.37281291223E+03  0.37281291223E+03  0.00000000000E+00 0. -1.
         22   -1    0    0    0    0 -0.00000000000E+00 -0.00000000000E+00 -0.11454615162E+04  0.11454615162E+04  0.00000000000E+00 0. -1.
         24    2    1    2    0    0  0.44348583906E+02 -0.43809377782E+02 -0.10743430435E+04  0.10792312870E+04  0.81493172936E+02 0.  0.
         25    2    1    2    0    0 -0.62245670677E+02  0.19404868644E+02  0.18623536285E+02  0.14228735151E+03  0.12509109421E+03 0.  0.
        -24    2    1    2    0    0  0.17897086771E+02  0.24404509139E+02  0.28307090323E+03  0.29675578995E+03  0.83779334158E+02 0.  0.
        -11    1    3    3    0    0  0.58261863291E+01 -0.69646300927E+01 -0.98210323548E+01  0.13375469935E+02  0.00000000000E+00 0.  1.
         12    1    3    3    0    0  0.38522397577E+02 -0.36844747689E+02 -0.10645220111E+04  0.10658558170E+04  0.00000000000E+00 0. -1.
         13    1    5    5    0    0  0.48722565802E+02  0.10955901730E+02  0.21633929116E+03  0.22202839706E+03  0.00000000000E+00 0. -1.
        -14    1    5    5    0    0 -0.30825479031E+02  0.13448607409E+02  0.66731612065E+02  0.74727392886E+02  0.00000000000E+00 0.  1.
          5    1    4    4  501    0  0.74343070252E+01  0.15057917842E+02 -0.44703985981E+02  0.47936714252E+02  0.41800000000E+01 0. -1.
         -5    1    4    4    0  501 -0.69679977702E+02  0.43469508014E+01  0.63327522266E+02  0.94350637254E+02  0.41800000000E+01 0. -1.
</event>
<event>
11    1  0.8299058E-009  0.2141436E+03  0.7561462E-02  0.1044949E+00
         22   -1    0    0    0    0  0.00000000000E+00  0.00000000000E+00  0.91427826242E+03  0.91427826242E+03  0.00000000000E+00 0.  1.
         22   -1    0    0    0    0 -0.00000000000E+00 -0.00000000000E+00 -0.52331716939E+03  0.52331716939E+03  0.00000000000E+00 0. -1.
         24    2    1    2    0    0  0.56459613704E+02  0.15185256443E+02 -0.39380713319E+03  0.40620634573E+03  0.80630373738E+02 0.  0.
         25    2    1    2    0    0 -0.81156206583E+02  0.15744992478E+03 -0.61760910543E+01  0.21693890037E+03  0.12509010238E+03 0.  0.
        -24    2    1    2    0    0  0.24696592878E+02 -0.17263518122E+03  0.79094431727E+03  0.81445018572E+03  0.85576658642E+02 0.  0.
        -13    1    3    3    0    0  0.22602863288E+02 -0.29796656840E+02 -0.94149089497E+02  0.10130538604E+03  0.00000000000E+00 0.  1.
         14    1    3    3    0    0  0.33856750417E+02  0.44981913283E+02 -0.29965804369E+03  0.30490095969E+03  0.00000000000E+00 0. -1.
         11    1    5    5    0    0 -0.24607688724E+02 -0.39822310305E+02  0.12208227860E+03  0.13074952195E+03  0.00000000000E+00 0. -1.
        -12    1    5    5    0    0  0.49304281603E+02 -0.13281287092E+03  0.66886203867E+03  0.68370066377E+03  0.00000000000E+00 0.  1.
          5    1    4    4  501    0 -0.23016054602E+02  0.11374214786E+03  0.48503722071E+02  0.12584553399E+03  0.41800000000E+01 0.  1.
         -5    1    4    4    0  501 -0.58140151981E+02  0.43707776918E+02 -0.54679813126E+02  0.91093366382E+02  0.41800000000E+01 0.  1.
</event>
<event>
11    1  0.8299058E-009  0.1501690E+03  0.7561462E-02  0.1096706E+00
         22   -1    0    0    0    0  0.00000000000E+00  0.00000000000E+00  0.21064180163E+03  0.21064180163E+03  0.00000000000E+00 0.  1.
         22   -1    0    0    0    0 -0.00000000000E+00 -0.00000000000E+00 -0.18955089951E+04  0.18955089951E+04  0.00000000000E+00 0.  1.
         24    2    1    2    0    0  0.28279670342E+02 -0.73678880846E+02 -0.95593632793E+03  0.96251126241E+03  0.79908384818E+02 0.  0.
         25    2    1    2    0    0  0.44915029125E+02  0.11260319007E+03 -0.91181508492E+03  0.92830610205E+03  0.12509449133E+03 0.  0.
        -24    2    1    2    0    0 -0.73194699467E+02 -0.38924309223E+02  0.18288421934E+03  0.21533343231E+03  0.77777139997E+02 0.  0.
        -13    1    3    3    0    0 -0.19230270330E+02 -0.25184404840E+01 -0.35320065807E+03  0.35373273908E+03  0.00000000000E+00 0.  1.
         14    1    3    3    0    0  0.47509940672E+02 -0.71160440362E+02 -0.60273566987E+03  0.60877852333E+03  0.00000000000E+00 0. -1.
         13    1    5    5    0    0 -0.36144501077E+02 -0.58500292253E+02  0.88584060230E+02  0.11214207452E+03  0.00000000000E+00 0. -1.
        -14    1    5    5    0    0 -0.37050198390E+02  0.19575983030E+02  0.94300159114E+02  0.10319135778E+03  0.00000000000E+00 0.  1.
          5    1    4    4  501    0 -0.38368669174E+02  0.67703698863E+02 -0.47407284746E+03  0.48043572173E+03  0.41800000000E+01 0.  1.
         -5    1    4    4    0  501  0.83283698299E+02  0.44899491206E+02 -0.43774223746E+03  0.44787038032E+03  0.41800000000E+01 0.  1.
</event>
<event>
11    1  0.8299058E-009  0.1682771E+03  0.7561462E-02  0.1079541E+00
         22   -1    0    0    0    0  0.00000000000E+00  0.00000000000E+00  0.11915020500E+04  0.11915020500E+04  0.00000000000E+00 0. -1.
         22   -1    0    0    0    0 -0.00000000000E+00 -0.00000000000E+00 -0.31213230755E+03  0.31213230755E+03  0.00000000000E+00 0. -1.
         24    2    1    2    0    0 -0.67794976919E+02 -0.92551027560E+02 -0.26420443745E+03  0.29895815504E+03  0.80063363030E+02 0.  0.
         25    2    1    2    0    0  0.73330898855E+02  0.53068969410E+02  0.18142059060E+03  0.23823252255E+03  0.12509023889E+03 0.  0.
        -24    2    1    2    0    0 -0.55359219359E+01  0.39482058150E+02  0.96215358925E+03  0.96644367993E+03  0.81758044310E+02 0.  0.
        -13    1    3    3    0    0 -0.21329026579E+02 -0.65586305850E+01 -0.63511814555E+01  0.23200873170E+02  0.00000000000E+00 0.  1.
         14    1    3    3    0    0 -0.46465950340E+02 -0.85992396975E+02 -0.25785325599E+03  0.27575728187E+03  0.00000000000E+00 0. -1.
         13    1    5    5    0    0 -0.27800663704E+01  0.29983497905E+02  0.95123557552E+03  0.95171206730E+03  0.00000000000E+00 0. -1.
        -14    1    5    5    0    0 -0.27558555655E+01  0.94985602450E+01  0.10918013736E+02  0.14731612626E+02  0.00000000000E+00 0.  1.
          5    1    4    4  501    0  0.64128205825E+02  0.90719400245E+02  0.10742686651E+03  0.15459767272E+03  0.41800000000E+01 0. -1.
         -5    1    4    4    0  501  0.92026930299E+01 -0.37650430834E+02  0.73993724095E+02  0.83634849833E+02  0.41800000000E+01 0. -1.
</event>
<event>
11    1  0.8299058E-009  0.1309187E+03  0.7561462E-02  0.1118145E+00
         22   -1    0    0    0    0  0.00000000000E+00  0.00000000000E+00  0.95862934487E+03  0.95862934487E+03  0.00000000000E+00 0.  1.
         22   -1    0    0    0    0 -0.00000000000E+00 -0.00000000000E+00 -0.16460801695E+03  0.16460801695E+03  0.00000000000E+00 0.  1.
        -24    2    1    2    0    0 -0.28073499971E+02 -0.27877960774E+02 -0.96681339932E+02  0.13259783278E+03  0.81667629263E+02 0.  0.
         25    2    1    2    0    0  0.51621196438E+02 -0.97887138050E+01  0.48912534407E+02  0.14422514915E+03  0.12509152963E+03 0.  0.
         24    2    1    2    0    0 -0.23547696467E+02  0.37666674580E+02  0.84179013344E+03  0.84641437988E+03  0.76376706727E+02 0.  0.
        -13    1    5    5    0    0 -0.35033438001E+02  0.54759180824E+02  0.71652160083E+03  0.71946446341E+03  0.00000000000E+00 0.  1.
         14    1    5    5    0    0  0.11485741533E+02 -0.17092506245E+02  0.12526853262E+03  0.12694991647E+03  0.00000000000E+00 0. -1.
         13    1    3    3    0    0  0.26028437864E+01  0.18581796421E+02  0.24302909218E+01  0.18919943657E+02  0.00000000000E+00 0. -1.
        -14    1    3    3    0    0 -0.30676343757E+02 -0.46459757196E+02 -0.99111630854E+02  0.11367788912E+03  0.00000000000E+00 0.  1.
          5    1    4    4  501    0  0.62762611300E+02 -0.47549801157E+02 -0.30349895507E+01  0.78910154789E+02  0.41800000000E+01 0. -1.
         -5    1    4    4    0  501 -0.11141414862E+02  0.37761087352E+02  0.51947523958E+02  0.65314994362E+02  0.41800000000E+01 0. -1.
</event>
<event>
11    1  0.8299058E-009  0.1647848E+03  0.7561462E-02  0.1082661E+00
         22   -1    0    0    0    0  0.00000000000E+00  0.00000000000E+00  0.29370183506E+03  0.29370183506E+03  0.00000000000E+00 0.  1.
         22   -1    0    0    0    0 -0.00000000000E+00 -0.00000000000E+00 -0.42406463247E+03  0.42406463247E+03  0.00000000000E+00 0.  1.
         24    2    1    2    0    0  0.36520530711E+02  0.33292339709E+02 -0.29852276468E+03  0.31314698421E+03  0.80641575155E+02 0.  0.
         25    2    1    2    0    0  0.37759464659E+02  0.55838921819E+02 -0.45042330727E+02  0.14906711553E+03  0.12509368894E+03 0.  0.
        -24    2    1    2    0    0 -0.74279995370E+02 -0.89131261528E+02  0.21320229799E+03  0.25555236778E+03  0.79936808265E+02 0.  0.
        -11    1    3    3    0    0  0.13539487556E+02  0.13784952119E+02 -0.27290370465E+03  0.27358686854E+03  0.00000000000E+00 0.  1.
         12    1    3    3    0    0  0.22981043154E+02  0.19507387589E+02 -0.25619060032E+02  0.39560115672E+02  0.00000000000E+00 0. -1.
         11    1    5    5    0    0  0.14625852760E+02  0.49927869981E+00  0.23367350521E+02  0.27571686900E+02  0.00000000000E+00 0. -1.
        -12    1    5    5    0    0 -0.88905848130E+02 -0.89630540227E+02  0.18983494747E+03  0.22798068088E+03  0.00000000000E+00 0.  1.
          5    1    4    4  501    0 -0.31322587791E+02  0.67165507597E+01  0.23522061432E+02  0.39962186302E+02  0.41800000000E+01 0.  1.
         -5    1    4    4    0  501  0.69082052450E+02  0.49122371059E+02 -0.68564392159E+02  0.10910492923E+03  0.41800000000E+01 0.  1.
</event>
<event>
11    1  0.8299058E-009  0.1526889E+03  0.7561462E-02  0.1094162E+00
         22   -1    0    0    0    0  0.00000000000E+00  0.00000000000E+00  0.27083505631E+03  0.27083505631E+03  0.00000000000E+00 0. -1.
         22   -1    0    0    0    0 -0.00000000000E+00 -0.00000000000E+00 -0.18753689836E+04  0.18753689836E+04  0.00000000000E+00 0. -1.
        -24    2    1    2    0    0 -0.17319361932E+02 -0.90965402512E+01 -0.16171597117E+04  0.16195592220E+04  0.85929231993E+02 0.  0.
         25    2    1    2    0    0 -0.47869946629E+02 -0.50926397906E+02 -0.22147251726E+03  0.26378563273E+03  0.12509098423E+03 0.  0.
         24    2    1    2    0    0  0.65189308561E+02  0.60022938157E+02  0.23409830173E+03  0.26285918518E+03  0.80252958239E+02 0.  0.
        -11    1    5    5    0    0 -0.16080684086E+01  0.24535897741E+02  0.10361343285E+02  0.26682458594E+02  0.00000000000E+00 0.  1.
         12    1    5    5    0    0  0.66797376969E+02  0.35487040416E+02  0.22373695844E+03  0.23617672659E+03  0.00000000000E+00 0. -1.
         13    1    3    3    0    0 -0.30356679680E+02 -0.14801056691E+02 -0.15684432125E+04  0.15688067791E+04  0.00000000000E+00 0. -1.
        -14    1    3    3    0    0  0.13037317748E+02  0.57045164396E+01 -0.48716499206E+02  0.50752442865E+02  0.00000000000E+00 0.  1.
          5    1    4    4  501    0 -0.55010545368E+02  0.75352516026E+01 -0.29653998000E+02  0.63085435053E+02  0.41800000000E+01 0.  1.
         -5    1    4    4    0  501  0.71405987399E+01 -0.58461649509E+02 -0.19181851926E+03  0.20070019767E+03  0.41800000000E+01 0.  1.
</event>
<event>
11    1  0.8299058E-009  0.1359285E+03  0.7561462E-02  0.1112192E+00
         22   -1    0    0    0    0  0.00000000000E+00  0.00000000000E+00  0.17462873199E+03  0.17462873199E+03  0.00000000000E+00 0. -1.
         22   -1    0    0    0    0 -0.00000000000E+00 -0.00000000000E+00 -0.47221163885E+03  0.47221163885E+03  0.00000000000E+00 0.  1.
         24    2    1    2    0    0 -0.19803937547E+01  0.23150378841E+02 -0.30145689366E+03  0.31410017870E+03  0.85104650406E+02 0.  0.
         25    2    1    2    0    0  0.34497536140E+02 -0.62657498556E+02 -0.11194901307E+03  0.18247189162E+03  0.12508943832E+03 0.  0.
        -24    2    1    2    0    0 -0.32517142385E+02  0.39507119716E+02  0.11582299989E+03  0.15026830052E+03  0.80916115713E+02 0.  0.
        -11    1    3    3    0    0 -0.91773797829E+01  0.53835574043E+02 -0.22204415827E+03  0.22866154367E+03  0.00000000000E+00 0.  1.
         12    1    3    3    0    0  0.71969860281E+01 -0.30685195203E+02 -0.79412735396E+02  0.85438635029E+02  0.00000000000E+00 0. -1.
         13    1    5    5    0    0 -0.15116477833E+02  0.57854592149E+02  0.10859338979E+03  0.12396848809E+03  0.00000000000E+00 0. -1.
        -14    1    5    5    0    0 -0.17400664552E+02 -0.18347472433E+02  0.72296100968E+01  0.26299812427E+02  0.00000000000E+00 0.  1.
          5    1    4    4  501    0  0.22981954537E+02  0.28011883716E+02 -0.75757974836E+02  0.84080788620E+02  0.41800000000E+01 0.  1.
         -5    1    4    4    0  501  0.11515581603E+02 -0.90669382273E+02 -0.36191038238E+02  0.98391103003E+02  0.41800000000E+01 0.  1.
</event>
<event>
11    1  0.8299058E-009  0.1619206E+03  0.7561462E-02  0.1085285E+00
         22   -1    0    0    0    0  0.00000000000E+00  0.00000000000E+00  0.16842248404E+04  0.16842248404E+04  0.00000000000E+00 0.  1.
         22   -1    0    0    0    0 -0.00000000000E+00 -0.00000000000E+00 -0.56703377773E+03  0.56703377773E+03  0.00000000000E+00 0. -1.
         24    2    1    2    0    0  0.81257625938E+02  0.20334737756E+02 -0.51615629835E+03  0.52914508770E+03  0.80999359095E+02 0.  0.
         25    2    1    2    0    0 -0.17770205316E+03 -0.43539401291E+01  0.24326501215E+03  0.32622656430E+03  0.12509567789E+03 0.  0.
        -24    2    1    2    0    0  0.96444427221E+02 -0.15980797627E+02  0.13900823489E+04  0.13958869662E+04  0.81330019981E+02 0.  0.
        -11    1    3    3    0    0  0.78107795136E+00  0.43082695688E+01  0.17964322469E+01  0.47326988348E+01  0.00000000000E+00 0.  1.
         12    1    3    3    0    0  0.80476547987E+02  0.16026468187E+02 -0.51795273060E+03  0.52441238886E+03  0.00000000000E+00 0. -1.
         13    1    5    5    0    0 -0.12060149931E+02  0.41717199560E+00  0.31217045213E+03  0.31240360502E+03  0.00000000000E+00 0. -1.
        -14    1    5    5    0    0  0.10850457715E+03 -0.16397969623E+02  0.10779118968E+04  0.10834833612E+04  0.00000000000E+00 0.  1.
          5    1    4    4  501    0 -0.12320676539E+03 -0.18391106129E+02  0.67753311912E+02  0.14186656935E+03  0.41800000000E+01 0. -1.
         -5    1    4    4    0  501 -0.54495287766E+02  0.14037166000E+02  0.17551170023E+03  0.18435999495E+03  0.41800000000E+01 0. -1.
</event>
<event>
11    1  0.8299058E-009  0.1320445E+03  0.7561462E-02  0.1116782E+00
         22   -1    0    0    0    0  0.00000000000E+00  0.00000000000E+00  0.13432578268E+03  0.13432578268E+03  0.00000000000E+00 0. -1.
         22   -1    0    0    0    0 -0.00000000000E+00 -0.00000000000E+00 -0.40528619983E+03  0.40528619983E+03  0.00000000000E+00 0. -1.
         24    2    1    2    0    0  0.23475780340E+02  0.19854795782E+02 -0.23851499122E+03  0.25515490040E+03  0.85260172317E+02 0.  0.
         25    2    1    2    0    0 -0.11861021277E+02  0.24448727865E+02 -0.10592296549E+03  0.16614234615E+03  0.12508069574E+03 0.  0.
        -24    2    1    2    0    0 -0.11614759063E+02 -0.44303523647E+02  0.73477539566E+02  0.11831473596E+03  0.80633262913E+02 0.  0.
        -13    1    3    3    0    0 -0.18185310214E+02 -0.13082495749E+02 -0.19209204568E+02  0.29510180324E+02  0.00000000000E+00 0.  1.
         14    1    3    3    0    0  0.41661090554E+02  0.32937291531E+02 -0.21930578665E+03  0.22564472007E+03  0.00000000000E+00 0. -1.
         11    1    5    5    0    0  0.14221506701E+02 -0.62842297253E+01  0.70562584032E+02  0.72255249368E+02  0.00000000000E+00 0. -1.
        -12    1    5    5    0    0 -0.25836265764E+02 -0.38019293922E+02  0.29149555342E+01  0.46059486587E+02  0.00000000000E+00 0.  1.
          5    1    4    4  501    0 -0.68129509969E+02  0.85445911883E+01 -0.49235027330E+02  0.84594328907E+02  0.41800000000E+01 0. -1.
         -5    1    4    4    0  501  0.56268488692E+02  0.15904136677E+02 -0.56687938165E+02  0.81548017245E+02  0.41800000000E+01 0. -1.
</event>
<event>
11    1  0.8299058E-009  0.1877332E+03  0.7561462E-02  0.1063554E+00
         22   -1    0    0    0    0  0.00000000000E+00  0.00000000000E+00  0.22992101595E+04  0.22992101595E+04  0.00000000000E+00 0.  1.
         22   -1    0    0    0    0 -0.00000000000E+00 -0.00000000000E+00 -0.68302923072E+03  0.68302923072E+03  0.00000000000E+00 0. -1.
        -24    2    1    2    0    0 -0.23974789562E+02  0.13765282415E+03 -0.66205594269E+03  0.68131787911E+03  0.79705022487E+02 0.  0.
         25    2    1    2    0    0  0.66611573488E+02 -0.16402899567E+03  0.12863337134E+04  0.13044726520E+04  0.12510741196E+03 0.  0.
         24    2    1    2    0    0 -0.42636783926E+02  0.26376171513E+02  0.99190315808E+03  0.99644885910E+03  0.80776580974E+02 0.  0.
        -11    1    5    5    0    0  0.10495615012E+01 -0.21705601224E+02  0.47239752995E+03  0.47289709346E+03  0.00000000000E+00 0.  1.
         12    1    5    5    0    0 -0.43686345427E+02  0.48081772737E+02  0.51950562813E+03  0.52355176564E+03  0.00000000000E+00 0. -1.
         11    1    3    3    0    0 -0.81022020980E+01  0.13012655142E+03 -0.44920255903E+03  0.46774085143E+03  0.00000000000E+00 0. -1.
        -12    1    3    3    0    0 -0.15872587464E+02  0.75262727370E+01 -0.21285338366E+03  0.21357702767E+03  0.00000000000E+00 0.  1.
          5    1    4    4  501    0  0.70939049760E+02 -0.22250638600E+02  0.40525825624E+03  0.41204267540E+03  0.41800000000E+01 0. -1.
         -5    1    4    4    0  501 -0.43274762720E+01 -0.14177835707E+03  0.88107545716E+03  0.89242997663E+03  0.41800000000E+01 0. -1.
</event>
<event>
11    1  0.8299058E-009  0.1447996E+03  0.7561462E-02  0.1102314E+00
         22   -1    0    0    0    0  0.00000000000E+00  0.00000000000E+00  0.11236273031E+03  0.11236273031E+03  0.00000000000E+00 0.  1.
         22   -1    0    0    0    0 -0.00000000000E+00 -0.00000000000E+00 -0.91428868605E+03  0.91428868605E+03  0.00000000000E+00 0. -1.
         24    2    1    2    0    0  0.64762150785E+02  0.21922420889E+02 -0.69900999793E+03  0.70688445018E+03  0.79974495914E+02 0.  0.
         25    2    1    2    0    0 -0.11663888554E+03 -0.46920174480E+02 -0.12776763785E+03  0.21858223166E+03  0.12508992894E+03 0.  0.
        -24    2    1    2    0    0  0.51876734753E+02  0.24997753592E+02  0.24851680046E+02  0.10118473452E+03  0.79401896737E+02 0.  0.
        -11    1    3    3    0    0  0.55751438474E+01  0.37676057002E+01 -0.18465167463E+01  0.69775859526E+01  0.00000000000E+00 0.  1.
         12    1    3    3    0    0  0.59187006938E+02  0.18154815188E+02 -0.69716348118E+03  0.69990686423E+03  0.00000000000E+00 0. -1.
         13    1    5    5    0    0  0.38019675264E+02  0.70103462491E+01 -0.25251504146E+02  0.46176607967E+02  0.00000000000E+00 0. -1.
        -14    1    5    5    0    0  0.13857059489E+02  0.17987407343E+02  0.50103184193E+02  0.55008126553E+02  0.00000000000E+00 0.  1.
          5    1    4    4  501    0 -0.67875179985E+02 -0.64407461524E+02 -0.13683822252E+03  0.16582380017E+03  0.41800000000E+01 0. -1.
         -5    1    4    4    0  501 -0.48763705553E+02  0.17487287044E+02  0.90705846688E+01  0.52758431493E+02  0.41800000000E+01 0. -1.
</event>
<event>
11    1  0.8299058E-009  0.2087941E+03  0.7561462E-02  0.1048473E+00
         22   -1    0    0    0    0  0.00000000000E+00  0.00000000000E+00  0.20214166493E+04  0.20214166493E+04  0.00000000000E+00 0. -1.
         22   -1    0    0    0    0 -0.00000000000E+00 -0.00000000000E+00 -0.17205751860E+04  0.17205751860E+04  0.00000000000E+00 0. -1.
        -24    2    1    2    0    0 -0.84149803882E+01 -0.16576222207E+03 -0.16492650675E+04  0.16595703883E+04  0.80936298819E+02 0.  0.
         25    2    1    2    0    0  0.30560648030E+02  0.22711315999E+03  0.19907460864E+03  0.32831930011E+03  0.12509405409E+03 0.  0.
         24    2    1    2    0    0 -0.22145667642E+02 -0.61350937918E+02  0.17510319222E+04  0.17541021470E+04  0.80667100102E+02 0.  0.
        -13    1    5    5    0    0  0.96587552001E+01  0.42820057414E-01  0.26851007648E+02  0.28535416543E+02  0.00000000000E+00 0.  1.
         14    1    5    5    0    0 -0.31804422842E+02 -0.61393757976E+02  0.17241809146E+04  0.17255667304E+04  0.00000000000E+00 0. -1.
         11    1    3    3    0    0 -0.33706193321E+01 -0.17177621395E+03 -0.16252292090E+04  0.16342852904E+04  0.00000000000E+00 0. -1.
        -12    1    3    3    0    0 -0.50443610560E+01  0.60139918844E+01 -0.24035858561E+02  0.25285097856E+02  0.00000000000E+00 0.  1.
          5    1    4    4  501    0  0.24648447865E+02  0.13376977025E+03  0.19076119856E+03  0.23432713179E+03  0.41800000000E+01 0.  1.
         -5    1    4    4    0  501  0.59122001648E+01  0.93343389734E+02  0.83134100806E+01  0.93992168317E+02  0.41800000000E+01 0.  1.
</event>
<event>
11    1  0.8299058E-009  0.1353507E+03  0.7561462E-02  0.1112864E+00
         22   -1    0    0    0    0  0.00000000000E+00  0.00000000000E+00  0.18871164746E+03  0.18871164746E+03  0.00000000000E+00 0.  1.
         22   -1    0    0    0    0 -0.00000000000E+00 -0.00000000000E+00 -0.10315372054E+04  0.10315372054E+04  0.00000000000E+00 0.  1.
         24    2    1    2    0    0  0.36784248408E+02 -0.17653559088E+02 -0.86485563360E+03  0.86930119441E+03  0.77746836283E+02 0.  0.
         25    2    1    2    0    0 -0.59864394048E+02  0.60604029825E+02 -0.11186191146E+03  0.18819451226E+03  0.12508994005E+03 0.  0.
        -24    2    1    2    0    0  0.23080145640E+02 -0.42950470737E+02  0.13389198711E+03  0.16275314620E+03  0.78638961875E+02 0.  0.
        -13    1    3    3    0    0  0.34653104372E+02  0.14246654882E+02 -0.71932346045E+03  0.72029858085E+03  0.00000000000E+00 0.  1.
         14    1    3    3    0    0  0.21311440365E+01 -0.31900213970E+02 -0.14553217315E+03  0.14900261356E+03  0.00000000000E+00 0. -1.
         11    1    5    5    0    0  0.38433076293E+02 -0.20635466446E+02  0.24446191298E+02  0.50005400686E+02  0.00000000000E+00 0. -1.
        -12    1    5    5    0    0 -0.15352930654E+02 -0.22315004290E+02  0.10944579582E+03  0.11274774551E+03  0.00000000000E+00 0.  1.
          5    1    4    4  501    0  0.10469375550E+02  0.10942053683E+02 -0.99946678459E+02  0.10117384691E+03  0.41800000000E+01 0. -1.
         -5    1    4    4    0  501 -0.70333769598E+02  0.49661976142E+02 -0.11915233006E+02  0.87020665350E+02  0.41800000000E+01 0. -1.
</event>
<event>
11    1  0.8299058E-009  0.2137770E+03  0.7561462E-02  0.1045187E+00
         22   -1    0    0    0    0  0.00000000000E+00  0.00000000000E+00  0.66749624322E+03  0.66749624322E+03  0.00000000000E+00 0.  1.
         22   -1    0    0    0    0 -0.00000000000E+00 -0.00000000000E+00 -0.88326027872E+03  0.88326027872E+03  0.00000000000E+00 0. -1.
         24    2    1    2    0    0 -0.36590963728E+02  0.17130325871E+03 -0.76295829735E+03  0.78688183753E+03  0.79962226479E+02 0.  0.
         25    2    1    2    0    0  0.26468411725E+02 -0.15663816740E+03 -0.88711796219E+01  0.20239104155E+03  0.12508934234E+03 0.  0.
        -24    2    1    2    0    0  0.10122552003E+02 -0.14665091312E+02  0.55606544148E+03  0.56148364286E+03  0.75746782264E+02 0.  0.
        -13    1    3    3    0    0  0.13739310707E+02  0.47168303079E+01 -0.27339449954E+02  0.30959048284E+02  0.00000000000E+00 0.  1.
         14    1    3    3    0    0 -0.50330274436E+02  0.16658642840E+03 -0.73561884740E+03  0.75592278925E+03  0.00000000000E+00 0. -1.
         13    1    5    5    0    0 -0.19301916921E+02 -0.38911196747E+01  0.41177401037E+02  0.45642996892E+02  0.00000000000E+00 0. -1.
        -14    1    5    5    0    0  0.29424468924E+02 -0.10773971638E+02  0.51488804044E+03  0.51584064596E+03  0.00000000000E+00 0.  1.
          5    1    4    4  501    0  0.48902089999E+02 -0.13964782975E+03 -0.46558179020E+02  0.15517109007E+03  0.41800000000E+01 0. -1.
         -5    1    4    4    0  501 -0.22433678274E+02 -0.16990337649E+02  0.37686999398E+02  0.47219951482E+02  0.41800000000E+01 0. -1.
</event>
<event>
11    1  0.8299058E-009  0.1318794E+03  0.7561462E-02  0.1116981E+00
         22   -1    0    0    0    0  0.00000000000E+00  0.00000000000E+00  0.74825790625E+03  0.74825790625E+03  0.00000000000E+00 0.  1.
         22   -1    0    0    0    0 -0.00000000000E+00 -0.00000000000E+00 -0.44242454972E+03  0.44242454972E+03  0.00000000000E+00 0.  1.
        -24    2    1    2    0    0 -0.38495568538E+02 -0.20265645318E+02 -0.41145902228E+03  0.42463868398E+03  0.95534704346E+02 0.  0.
         25    2    1    2    0    0 -0.28832809720E+01 -0.18193739215E+02  0.18013167608E+03  0.22007805764E+03  0.12509038842E+03 0.  0.
         24    2    1    2    0    0  0.41378849510E+02  0.38459384533E+02  0.53716070274E+03  0.54596571435E+03  0.79659319864E+02 0.  0.
        -11    1    5    5    0    0  0.39021323924E+02  0.57882405735E+02  0.48938842902E+03  0.49434205877E+03  0.00000000000E+00 0.  1.
         12    1    5    5    0    0  0.23575255854E+01 -0.19423021202E+02  0.47772273718E+02  0.51623655583E+02  0.00000000000E+00 0. -1.
         13    1    3    3    0    0  0.20238780813E+02 -0.32936026017E+02 -0.95683571231E+02  0.10319755744E+03  0.00000000000E+00 0. -1.
        -14    1    3    3    0    0 -0.58734349351E+02  0.12670380699E+02 -0.31577545105E+03  0.32144112653E+03  0.00000000000E+00 0.  1.
          5    1    4    4  501    0  0.22742639334E+02 -0.45143484348E+02  0.18214421422E+02  0.53892479723E+02  0.41800000000E+01 0.  1.
         -5    1    4    4    0  501 -0.25625920306E+02  0.26949745133E+02  0.16191725465E+03  0.16618557792E+03  0.41800000000E+01 0.  1.
</event>
<event>
11    1  0.8299058E-009  0.1481040E+03  0.7561462E-02  0.1098832E+00
         22   -1    0    0    0    0  0.00000000000E+00  0.00000000000E+00  0.92579397063E+02  0.92579397063E+02  0.00000000000E+00 0. -1.
         22   -1    0    0    0    0 -0.00000000000E+00 -0.00000000000E+00 -0.20993653170E+04  0.20993653170E+04  0.00000000000E+00 0. -1.
         24    2    1    2    0    0 -0.32027541974E+02 -0.24738612723E+01 -0.13938145021E+04  0.13964771174E+04  0.79984933849E+02 0.  0.
         25    2    1    2    0    0  0.42112980256E+02  0.80757089515E+02 -0.65786470363E+03  0.67581671677E+03  0.12508819201E+03 0.  0.
        -24    2    1    2    0    0 -0.10085438282E+02 -0.78283228243E+02  0.44893285798E+02  0.11965087991E+03  0.77916275989E+02 0.  0.
        -13    1    3    3    0    0 -0.25887371821E+02  0.84066336600E+01 -0.14114941795E+03  0.14374973285E+03  0.00000000000E+00 0.  1.
         14    1    3    3    0    0 -0.61401701534E+01 -0.10880494932E+02 -0.12526650841E+04  0.12527273845E+04  0.00000000000E+00 0. -1.
         11    1    5    5    0    0 -0.33887679213E+02 -0.70962244167E+02  0.13842271076E+02  0.79847500701E+02  0.00000000000E+00 0. -1.
        -12    1    5    5    0    0  0.23802240931E+02 -0.73209840762E+01  0.31051014722E+02  0.39803379209E+02  0.00000000000E+00 0.  1.
          5    1    4    4  501    0  0.69552227206E+02  0.21758884400E+02 -0.49552767904E+03  0.50087534822E+03  0.41800000000E+01 0. -1.
         -5    1    4    4    0  501 -0.27439246950E+02  0.58998205115E+02 -0.16233702458E+03  0.17494136855E+03  0.41800000000E+01 0. -1.
</event>
<event>
11    1  0.8299058E-009  0.3252456E+03  0.7561462E-02  0.9900388E-01
         22   -1    0    0    0    0  0.00000000000E+00  0.00000000000E+00  0.23663863066E+03  0.23663863066E+03  0.00000000000E+00 0. -1.
         22   -1    0    0    0    0 -0.00000000000E+00 -0.00000000000E+00 -0.77955851748E+03  0.77955851748E+03  0.00000000000E+00 0. -1.
         24    2    1    2    0    0 -0.26503288530E+03 -0.12644099401E+03 -0.40690867442E+03  0.50836341498E+03  0.81418284918E+02 0.  0.
         25    2    1    2    0    0  0.32336473133E+03  0.42773684380E+02 -0.14353559402E+03  0.37769049341E+03  0.12511316685E+03 0.  0.
        -24    2    1    2    0    0 -0.58331846031E+02  0.83667309630E+02  0.75243816271E+01  0.13014323975E+03  0.80484927597E+02 0.  0.
        -11    1    3    3    0    0 -0.10373944291E+02 -0.24666780518E+02 -0.63356345562E+02  0.68775688323E+02  0.00000000000E+00 0.  1.
         12    1    3    3    0    0 -0.25465894100E+03 -0.10177421349E+03 -0.34355232886E+03  0.43958772666E+03  0.00000000000E+00 0. -1.
         13    1    5    5    0    0 -0.64489601369E+02  0.95295162270E+02  0.16170964023E+00  0.11506564555E+03  0.00000000000E+00 0. -1.
        -14    1    5    5    0    0  0.61577553373E+01 -0.11627852640E+02  0.73626719868E+01  0.15077594191E+02  0.00000000000E+00 0.  1.
          5    1    4    4  501    0 -0.13605397482E+00 -0.16596299411E+02 -0.20009329688E+02  0.26330616008E+02  0.41800000000E+01 0.  1.
         -5    1    4    4    0  501  0.32350078530E+03  0.59369983791E+02 -0.12352626434E+03  0.35135987740E+03  0.41800000000E+01 0.  1.
</event>
<event>
11    1  0.8299058E-009  0.7083799E+03  0.7561462E-02  0.9020046E-01
         22   -1    0    0    0    0  0.00000000000E+00  0.00000000000E+00  0.30225787289E+04  0.30225787289E+04  0.00000000000E+00 0. -1.
         22   -1    0    0    0    0 -0.00000000000E+00 -0.00000000000E+00 -0.10401413526E+04  0.10401413526E+04  0.00000000000E+00 0.  1.
        -24    2    1    2    0    0 -0.59950970242E+03  0.21351372793E+03 -0.35462087077E+03  0.73304220960E+03  0.81209135916E+02 0.  0.
         25    2    1    2    0    0  0.74182874135E+03 -0.31788697528E+03 -0.15401029364E+03  0.83109629071E+03  0.12505943923E+03 0.  0.
         24    2    1    2    0    0 -0.14231903893E+03  0.10437324735E+03  0.24910685407E+04  0.24985815811E+04  0.79617583467E+02 0.  0.
        -11    1    5    5    0    0 -0.38072977281E+02  0.25481581633E+02  0.28646969045E+03  0.29010988633E+03  0.00000000000E+00 0.  1.
         12    1    5    5    0    0 -0.10424606165E+03  0.78891665713E+02  0.22045988502E+04  0.22084716948E+04  0.00000000000E+00 0. -1.
         13    1    3    3    0    0 -0.15645895116E+03  0.22165756451E+02 -0.70717424557E+02  0.17312330372E+03  0.00000000000E+00 0. -1.
        -14    1    3    3    0    0 -0.44305075126E+03  0.19134797148E+03 -0.28390344622E+03  0.55991890587E+03  0.00000000000E+00 0.  1.
          5    1    4    4  501    0  0.31055354838E+03 -0.13095821854E+03 -0.20053361052E+01  0.33706832421E+03  0.41800000000E+01 0. -1.
         -5    1    4    4    0  501  0.43127519297E+03 -0.18692875674E+03 -0.15200495753E+03  0.49402796650E+03  0.41800000000E+01 0. -1.
</event>
<event>
11    1  0.8299058E-009  0.1539396E+03  0.7561462E-02  0.1092920E+00
         22   -1    0    0    0    0  0.00000000000E+00  0.00000000000E+00  0.13315345422E+03  0.13315345422E+03  0.00000000000E+00 0. -1.
         22   -1    0    0    0    0 -0.00000000000E+00 -0.00000000000E+00 -0.28762036824E+04  0.28762036824E+04  0.00000000000E+00 0. -1.
        -24    2    1    2    0    0 -0.25901943115E+01  0.58594620323E+02 -0.26805722763E+04  0.26824720601E+04  0.82149780639E+02 0.  0.
         25    2    1    2    0    0  0.60868400377E+02  0.21133011592E+02 -0.12296643842E+03  0.18686906022E+03  0.12509090432E+03 0.  0.
         24    2    1    2    0    0 -0.58278206065E+02 -0.79727631915E+02  0.60488486527E+02  0.14001601625E+03  0.78694238749E+02 0.  0.
        -13    1    5    5    0    0 -0.58162030444E+02 -0.46493370926E+02  0.41143940243E+01  0.74574684469E+02  0.00000000000E+00 0.  1.
         14    1    5    5    0    0 -0.11617562097E+00 -0.33234260988E+02  0.56374092502E+02  0.65441331784E+02  0.00000000000E+00 0. -1.
         11    1    3    3    0    0 -0.37708216030E+01  0.73390425511E+02 -0.25500306367E+04  0.25510893010E+04  0.00000000000E+00 0. -1.
        -12    1    3    3    0    0  0.11806272915E+01 -0.14795805188E+02 -0.13054163961E+03  0.13138275916E+03  0.00000000000E+00 0.  1.
          5    1    4    4  501    0 -0.31424002328E+02 -0.61737664868E+01 -0.21817317790E+01  0.32369980978E+02  0.41800000000E+01 0.  1.
         -5    1    4    4    0  501  0.92292402705E+02  0.27306778079E+02 -0.12078470664E+03  0.15449907924E+03  0.41800000000E+01 0.  1.
</event>
<event>
11    1  0.8299058E-009  0.1275709E+03  0.7561462E-02  0.1122290E+00
         22   -1    0    0    0    0  0.00000000000E+00  0.00000000000E+00  0.31700561560E+03  0.31700561560E+03  0.00000000000E+00 0.  1.
         22   -1    0    0    0    0 -0.00000000000E+00 -0.00000000000E+00 -0.15057368727E+03  0.15057368727E+03  0.00000000000E+00 0.  1.
        -24    2    1    2    0    0 -0.45046844167E+01  0.25056412441E+02 -0.84550294065E+02  0.11953745482E+03  0.80575026484E+02 0.  0.
         25    2    1    2    0    0 -0.15619005654E+02 -0.24622174664E+02  0.63768072954E+02  0.14340040535E+03  0.12508838597E+03 0.  0.
         24    2    1    2    0    0  0.20123690071E+02 -0.43423777694E+00  0.18721414944E+03  0.20464144270E+03  0.80148804437E+02 0.  0.
        -13    1    5    5    0    0 -0.19366517500E+02 -0.62144661199E+01  0.14548117413E+03  0.14689606399E+03  0.00000000000E+00 0.  1.
         14    1    5    5    0    0  0.39490207571E+02  0.57802283429E+01  0.41732975316E+02  0.57745378711E+02  0.00000000000E+00 0. -1.
         11    1    3    3    0    0  0.94171798513E+01  0.20872656501E+02  0.91919631329E+01  0.24674749279E+02  0.00000000000E+00 0. -1.
        -12    1    3    3    0    0 -0.13921864268E+02  0.41837559407E+01 -0.93742257198E+02  0.94862705543E+02  0.00000000000E+00 0.  1.
          5    1    4    4  501    0 -0.67917843746E+02 -0.21755098262E+02  0.17888190709E+02  0.73644942571E+02  0.41800000000E+01 0. -1.
         -5    1    4    4    0  501  0.52298838091E+02 -0.28670764026E+01  0.45879882245E+02  0.69755462780E+02  0.41800000000E+01 0. -1.
</event>
<event>
11    1  0.8299058E-009  0.1483954E+03  0.7561462E-02  0.1098530E+00
         22   -1    0    0    0    0  0.00000000000E+00  0.00000000000E+00  0.11247144217E+04  0.11247144217E+04  0.00000000000E+00 0. -1.
         22   -1    0    0    0    0 -0.00000000000E+00 -0.00000000000E+00 -0.49652260456E+03  0.49652260456E+03  0.00000000000E+00 0. -1.
         24    2    1    2    0    0 -0.34360621997E+02  0.59790903683E+02 -0.46752899818E+03  0.48093048329E+03  0.89191709916E+02 0.  0.
         25    2    1    2    0    0 -0.16545121620E+02  0.18046218281E+02  0.20736195704E+03  0.24340863862E+03  0.12509747033E+03 0.  0.
        -24    2    1    2    0    0  0.50905743617E+02 -0.77837121965E+02  0.88835885829E+03  0.89689790436E+03  0.81205772306E+02 0.  0.
        -11    1    3    3    0    0 -0.25634017107E+02  0.16543370755E+02 -0.36159332798E+02  0.47310498807E+02  0.00000000000E+00 0.  1.
         12    1    3    3    0    0 -0.87266048907E+01  0.43247532929E+02 -0.43136966538E+03  0.43361998449E+03  0.00000000000E+00 0. -1.
         11    1    5    5    0    0  0.58556254884E+02 -0.90055364388E+02  0.72651198546E+03  0.73441028633E+03  0.00000000000E+00 0. -1.
        -12    1    5    5    0    0 -0.76505112665E+01  0.12218242424E+02  0.16184687282E+03  0.16248761803E+03  0.00000000000E+00 0.  1.
          5    1    4    4  501    0 -0.67060562461E+02 -0.12163216091E+02  0.10475902354E+03  0.12504794391E+03  0.41800000000E+01 0. -1.
         -5    1    4    4    0  501  0.50515440841E+02  0.30209434373E+02  0.10260293350E+03  0.11836069470E+03  0.41800000000E+01 0. -1.
</event>
<event>
11    1  0.8299058E-009  0.1671981E+03  0.7561462E-02  0.1080496E+00
         22   -1    0    0    0    0  0.00000000000E+00  0.00000000000E+00  0.26282228308E+03  0.26282228308E+03  0.00000000000E+00 0.  1.
         22   -1    0    0    0    0 -0.00000000000E+00 -0.00000000000E+00 -0.98853827188E+03  0.98853827188E+03  0.00000000000E+00 0. -1.
        -24    2    1    2    0    0 -0.47658117576E+02 -0.22575894908E+02 -0.52910409584E+03  0.53802550110E+03  0.82093412618E+02 0.  0.
         25    2    1    2    0    0  0.14962986048E+03 -0.17110705356E+02 -0.41411728788E+03  0.45806454739E+03  0.12509248605E+03 0.  0.
         24    2    1    2    0    0 -0.10197174290E+03  0.39686600264E+02  0.21750539493E+03  0.25527050647E+03  0.76688800078E+02 0.  0.
        -11    1    5    5    0    0 -0.44235290222E+02  0.54979971590E+02  0.14556519214E+03  0.16176768324E+03  0.00000000000E+00 0.  1.
         12    1    5    5    0    0 -0.57736452682E+02 -0.15293371326E+02  0.71940202790E+02  0.93502823232E+02  0.00000000000E+00 0. -1.
         11    1    3    3    0    0 -0.63067489037E+02 -0.39087617513E+02 -0.43233321596E+03  0.43865403183E+03  0.00000000000E+00 0. -1.
        -12    1    3    3    0    0  0.15409371461E+02  0.16511722605E+02 -0.96770879881E+02  0.99371469272E+02  0.00000000000E+00 0.  1.
          5    1    4    4  501    0  0.10305320910E+03  0.24932991232E+02 -0.13373396226E+03  0.17071573747E+03  0.41800000000E+01 0. -1.
         -5    1    4    4    0  501  0.46576651381E+02 -0.42043696587E+02 -0.28038332562E+03  0.28734880992E+03  0.41800000000E+01 0. -1.
</event>
<event>
11    1  0.8299058E-009  0.5047982E+03  0.7561462E-02  0.9382863E-01
         22   -1    0    0    0    0  0.00000000000E+00  0.00000000000E+00  0.10839668249E+04  0.10839668249E+04  0.00000000000E+00 0.  1.
         22   -1    0    0    0    0 -0.00000000000E+00 -0.00000000000E+00 -0.24920971353E+04  0.24920971353E+04  0.00000000000E+00 0.  1.
        -24    2    1    2    0    0 -0.17630329688E+03  0.43877149516E+03 -0.20087802594E+04  0.20647431873E+04  0.66053170723E+02 0.  0.
         25    2    1    2    0    0  0.25449033276E+03 -0.56350276439E+03 -0.22431474771E+03  0.66952567230E+03  0.12508726911E+03 0.  0.
         24    2    1    2    0    0 -0.78187035880E+02  0.12473126923E+03  0.82496469680E+03  0.84179510063E+03  0.79882027867E+02 0.  0.
        -11    1    5    5    0    0 -0.71934423708E+02  0.12699642695E+03  0.62876882710E+03  0.64548655424E+03  0.00000000000E+00 0.  1.
         12    1    5    5    0    0 -0.62526121719E+01 -0.22651577222E+01  0.19619586969E+03  0.19630854638E+03  0.00000000000E+00 0. -1.
         13    1    3    3    0    0 -0.77546020810E+02  0.27681470833E+03 -0.12454682264E+04  0.12782139379E+04  0.00000000000E+00 0. -1.
        -14    1    3    3    0    0 -0.98757276070E+02  0.16195678683E+03 -0.76331203302E+03  0.78652924938E+03  0.00000000000E+00 0.  1.
          5    1    4    4  501    0  0.16611555994E+03 -0.25043679619E+03 -0.65950617555E+02  0.30770103103E+03  0.41800000000E+01 0.  1.
         -5    1    4    4    0  501  0.88374772817E+02 -0.31306596820E+03 -0.15836413015E+03  0.36182464127E+03  0.41800000000E+01 0.  1.
</event>
<event>
11    1  0.8299058E-009  0.1532403E+03  0.7561462E-02  0.1093613E+00
         22   -1    0    0    0    0  0.00000000000E+00  0.00000000000E+00  0.27241271533E+03  0.27241271533E+03  0.00000000000E+00 0. -1.
         22   -1    0    0    0    0 -0.00000000000E+00 -0.00000000000E+00 -0.13794418964E+04  0.13794418964E+04  0.00000000000E+00 0.  1.
        -24    2    1    2    0    0 -0.87291444589E+02  0.11122180687E+02 -0.13072328657E+04  0.13126592106E+04  0.80454575776E+02 0.  0.
         25    2    1    2    0    0  0.12378914626E+03  0.26411254533E+02  0.11839724123E+03  0.21374890824E+03  0.12509748976E+03 0.  0.
         24    2    1    2    0    0 -0.36497701670E+02 -0.37533435220E+02  0.81806443422E+02  0.12544649287E+03  0.79395764381E+02 0.  0.
        -13    1    5    5    0    0  0.11310707312E+02  0.16382041207E+02  0.58539140863E+01  0.20750221303E+02  0.00000000000E+00 0.  1.
         14    1    5    5    0    0 -0.47808408982E+02 -0.53915476427E+02  0.75952529335E+02  0.10469627157E+03  0.00000000000E+00 0. -1.
         13    1    3    3    0    0 -0.21876030590E+02 -0.31286774987E+02 -0.30109505012E+03  0.30350560491E+03  0.00000000000E+00 0. -1.
        -14    1    3    3    0    0 -0.65415414000E+02  0.42408955675E+02 -0.10061378156E+04  0.10091536057E+04  0.00000000000E+00 0.  1.
          5    1    4    4  501    0  0.50657035396E+02  0.28294553716E+02 -0.16296737930E+02  0.60413351772E+02  0.41800000000E+01 0.  1.
         -5    1    4    4    0  501  0.73132110863E+02 -0.18832991830E+01  0.13469397916E+03  0.15333555647E+03  0.41800000000E+01 0.  1.
</event>
<event>
11    1  0.8299058E-009  0.1406402E+03  0.7561462E-02  0.1106846E+00
         22   -1    0    0    0    0  0.00000000000E+00  0.00000000000E+00  0.13108612519E+04  0.13108612519E+04  0.00000000000E+00 0. -1.
         22   -1    0    0    0    0 -0.00000000000E+00 -0.00000000000E+00 -0.41792940461E+03  0.41792940461E+03  0.00000000000E+00 0.  1.
         24    2    1    2    0    0  0.47125232854E+02 -0.43951201019E+02 -0.37398309016E+03  0.38769978110E+03  0.79342755781E+02 0.  0.
         25    2    1    2    0    0 -0.67611463543E+02  0.14555046237E+02  0.10879471814E+03  0.17964863621E+03  0.12511667524E+03 0.  0.
        -24    2    1    2    0    0  0.20486230689E+02  0.29396154782E+02  0.11581202193E+04  0.11614422392E+04  0.80136215671E+02 0.  0.
        -11    1    3    3    0    0  0.21199993398E+02 -0.14528500904E+00 -0.28013294962E+03  0.28093403192E+03  0.00000000000E+00 0.  1.
         12    1    3    3    0    0  0.25925239456E+02 -0.43805916010E+02 -0.93850140545E+02  0.10676574918E+03  0.00000000000E+00 0. -1.
         11    1    5    5    0    0 -0.27019977470E+02  0.41702529320E+01  0.62928533891E+03  0.62987896294E+03  0.00000000000E+00 0. -1.
        -12    1    5    5    0    0  0.47506208159E+02  0.25225901850E+02  0.52883488039E+03  0.53156327625E+03  0.00000000000E+00 0.  1.
          5    1    4    4  501    0 -0.73800319861E+02  0.29702896322E+02  0.11014995652E+02  0.80421090460E+02  0.41800000000E+01 0. -1.
         -5    1    4    4    0  501  0.61888563188E+01 -0.15147850085E+02  0.97779722493E+02  0.99227545750E+02  0.41800000000E+01 0. -1.
</event>
<event>
11    1  0.8299058E-009  0.1373792E+03  0.7561462E-02  0.1110521E+00
         22   -1    0    0    0    0  0.00000000000E+00  0.00000000000E+00  0.13616561715E+04  0.13616561715E+04  0.00000000000E+00 0. -1.
         22   -1    0    0    0    0 -0.00000000000E+00 -0.00000000000E+00 -0.11798501415E+04  0.11798501415E+04  0.00000000000E+00 0.  1.
        -24    2    1    2    0    0  0.15557413987E+02  0.52128498025E+02 -0.74645095783E+03  0.75279084958E+03  0.80904989467E+02 0.  0.
         25    2    1    2    0    0 -0.54754144699E+02 -0.49957945888E+02 -0.41632326661E+03  0.44098174007E+03  0.12508405188E+03 0.  0.
         24    2    1    2    0    0  0.39196730712E+02 -0.21705521366E+01  0.13445802544E+04  0.13477337234E+04  0.83360862870E+02 0.  0.
        -13    1    5    5    0    0  0.22127393684E+02  0.42813651079E+01  0.82544028543E+02  0.85565578865E+02  0.00000000000E+00 0.  1.
         14    1    5    5    0    0  0.17069337028E+02 -0.64519172445E+01  0.12620362259E+04  0.12621681445E+04  0.00000000000E+00 0. -1.
         11    1    3    3    0    0  0.39034574207E+01  0.31124513229E+01 -0.36506695075E+00  0.50057573803E+01  0.00000000000E+00 0. -1.
        -12    1    3    3    0    0  0.11653956566E+02  0.49016046702E+02 -0.74608589088E+03  0.74778509220E+03  0.00000000000E+00 0.  1.
          5    1    4    4  501    0 -0.50230833660E+02 -0.33014832653E+01 -0.48057376172E+02  0.69721017251E+02  0.41800000000E+01 0. -1.
         -5    1    4    4    0  501 -0.45233110382E+01 -0.46656462623E+02 -0.36826589044E+03  0.37126072282E+03  0.41800000000E+01 0. -1.
</event>
<event>
11    1  0.8299058E-009  0.1780027E+03  0.7561462E-02  0.1071270E+00
         22   -1    0    0    0    0  0.00000000000E+00  0.00000000000E+00  0.50080448973E+03  0.50080448973E+03  0.00000000000E+00 0.  1.
         22   -1    0    0    0    0 -0.00000000000E+00 -0.00000000000E+00 -0.45256400234E+03  0.45256400234E+03  0.00000000000E+00 0. -1.
         24    2    1    2    0    0  0.12121146262E+03 -0.35194193524E+02 -0.22415872238E+03  0.26930278644E+03  0.79661835525E+02 0.  0.
         25    2    1    2    0    0 -0.78233404527E+02  0.13614644569E+03 -0.14320210954E+03  0.24660140265E+03  0.12509631231E+03 0.  0.
        -24    2    1    2    0    0 -0.42978058091E+02 -0.10095225216E+03  0.41560131932E+03  0.43746430298E+03  0.81314753090E+02 0.  0.
        -13    1    3    3    0    0 -0.69504922691E+01 -0.26375501507E+01  0.16597052541E+01  0.76171277468E+01  0.00000000000E+00 0.  1.
         14    1    3    3    0    0  0.12816195489E+03 -0.32556643374E+02 -0.22581842763E+03  0.26168565869E+03  0.00000000000E+00 0. -1.
         11    1    5    5    0    0  0.17504892918E+02 -0.47985910439E+02  0.10706568585E+03  0.11862600880E+03  0.00000000000E+00 0. -1.
        -12    1    5    5    0    0 -0.60482951009E+02 -0.52966341724E+02  0.30853563347E+03  0.31883829418E+03  0.00000000000E+00 0.  1.
          5    1    4    4  501    0 -0.15065027346E+02 -0.19037311792E+02  0.21830666426E+01  0.24730800011E+02  0.41800000000E+01 0.  1.
         -5    1    4    4    0  501 -0.63168377181E+02  0.15518375748E+03 -0.14538517619E+03  0.22187060264E+03  0.41800000000E+01 0.  1.
</event>
<event>
11    1  0.8299058E-009  0.1339343E+03  0.7561462E-02  0.1114527E+00
         22   -1    0    0    0    0  0.00000000000E+00  0.00000000000E+00  0.56297084895E+03  0.56297084895E+03  0.00000000000E+00 0.  1.
         22   -1    0    0    0    0 -0.00000000000E+00 -0.00000000000E+00 -0.10677866625E+04  0.10677866625E+04  0.00000000000E+00 0. -1.
        -24    2    1    2    0    0 -0.14593482819E+01  0.18309470128E+02 -0.91334539662E+03  0.91702149155E+03  0.79945206582E+02 0.  0.
         25    2    1    2    0    0 -0.26654986951E+02 -0.56570343628E+02 -0.11557210485E+03  0.18142764408E+03  0.12509351107E+03 0.  0.
         24    2    1    2    0    0  0.28114335233E+02  0.38260873500E+02  0.52410168788E+03  0.53230837584E+03  0.80095676966E+02 0.  0.
        -13    1    5    5    0    0  0.43916857212E+02  0.37260563367E+02  0.50100908246E+03  0.50430857680E+03  0.00000000000E+00 0.  1.
         14    1    5    5    0    0 -0.15802521979E+02  0.10003101330E+01  0.23092605420E+02  0.27999799041E+02  0.00000000000E+00 0. -1.
         11    1    3    3    0    0  0.38574600849E+01  0.52512358193E+01 -0.88795686240E+03  0.88798076835E+03  0.00000000000E+00 0. -1.
        -12    1    3    3    0    0 -0.53168083668E+01  0.13058234308E+02 -0.25388534213E+02  0.29040723200E+02  0.00000000000E+00 0.  1.
          5    1    4    4  501    0  0.40534446217E+01 -0.67964760090E+02 -0.77379056738E+01  0.68651195267E+02  0.41800000000E+01 0.  1.
         -5    1    4    4    0  501 -0.30708431572E+02  0.11394416462E+02 -0.10783419917E+03  0.11277644882E+03  0.41800000000E+01 0.  1.
</event>
<event>
11    1  0.8299058E-009  0.1870494E+03  0.7561462E-02  0.1064079E+00
         22   -1    0    0    0    0  0.00000000000E+00  0.00000000000E+00  0.75013502545E+03  0.75013502545E+03  0.00000000000E+00 0. -1.
         22   -1    0    0    0    0 -0.00000000000E+00 -0.00000000000E+00 -0.76136381277E+03  0.76136381277E+03  0.00000000000E+00 0.  1.
         24    2    1    2    0    0  0.13729370432E+03 -0.59000178080E+02 -0.55125581770E+03  0.57697234021E+03  0.81752813780E+02 0.  0.
         25    2    1    2    0    0 -0.83582584720E+02  0.78296529720E+02 -0.15638620258E+03  0.23069674485E+03  0.12509176109E+03 0.  0.
        -24    2    1    2    0    0 -0.53711119605E+02 -0.19296351640E+02  0.69641323295E+03  0.70382975315E+03  0.84425688254E+02 0.  0.
        -11    1    3    3    0    0  0.54155060533E+02 -0.39651735770E+02 -0.37704854484E+03  0.38297602522E+03  0.00000000000E+00 0.  1.
         12    1    3    3    0    0  0.83138643792E+02 -0.19348442311E+02 -0.17420727286E+03  0.19399631499E+03  0.00000000000E+00 0. -1.
         11    1    5    5    0    0 -0.47282435266E+02  0.81939839906E+01  0.62785437343E+03  0.62968554398E+03  0.00000000000E+00 0. -1.
        -12    1    5    5    0    0 -0.64286843384E+01 -0.27490335631E+02  0.68558859522E+02  0.74144209176E+02  0.00000000000E+00 0.  1.
          5    1    4    4  501    0 -0.32292658149E+02  0.58490622184E+02 -0.16198549010E+03  0.17527332957E+03  0.41800000000E+01 0. -1.
         -5    1    4    4    0  501 -0.51289926571E+02  0.19805907536E+02  0.55992875247E+01  0.55423415284E+02  0.41800000000E+01 0. -1.
</event>
<event>
11    1  0.8299058E-009  0.1437475E+03  0.7561462E-02  0.1103444E+00
         22   -1    0    0    0    0  0.00000000000E+00  0.00000000000E+00  0.99312060188E+02  0.99312060188E+02  0.00000000000E+00 0. -1.
         22   -1    0    0    0    0 -0.00000000000E+00 -0.00000000000E+00 -0.49458689687E+03  0.49458689687E+03  0.00000000000E+00 0.  1.
         24    2    1    2    0    0 -0.56855818545E+02  0.22957501382E+02 -0.22259369559E+03  0.24544727630E+03  0.83287340897E+02 0.  0.
         25    2    1    2    0    0  0.97432950091E+02 -0.40075161722E+01 -0.19729611375E+03  0.25314503402E+03  0.12508961506E+03 0.  0.
        -24    2    1    2    0    0 -0.40577131545E+02 -0.18949985210E+02  0.24614972662E+02  0.95306646742E+02  0.80447837075E+02 0.  0.
        -11    1    3    3    0    0 -0.47384199466E+02  0.50214201921E+02 -0.18870137929E+03  0.20093516114E+03  0.00000000000E+00 0.  1.
         12    1    3    3    0    0 -0.94716190792E+01 -0.27256700539E+02 -0.33892316294E+02  0.44512115160E+02  0.00000000000E+00 0. -1.
         11    1    5    5    0    0 -0.36714358139E+02  0.16492837018E+01  0.50211604930E+02  0.62224348128E+02  0.00000000000E+00 0. -1.
        -12    1    5    5    0    0 -0.38627734066E+01 -0.20599268912E+02 -0.25596632268E+02  0.33082298613E+02  0.00000000000E+00 0.  1.
          5    1    4    4  501    0  0.25573005933E+02 -0.37873224350E+02 -0.63954449307E+01  0.46332859516E+02  0.41800000000E+01 0.  1.
         -5    1    4    4    0  501  0.71859944157E+02  0.33865708177E+02 -0.19090066882E+03  0.20681217450E+03  0.41800000000E+01 0.  1.
</event>
<event>
11    1  0.8299058E-009  0.1383160E+03  0.7561462E-02  0.1109454E+00
         22   -1    0    0    0    0  0.00000000000E+00  0.00000000000E+00  0.28919510483E+04  0.28919510483E+04  0.00000000000E+00 0. -1.
         22   -1    0    0    0    0 -0.00000000000E+00 -0.00000000000E+00 -0.81233742188E+02  0.81233742188E+02  0.00000000000E+00 0. -1.
        -24    2    1    2    0    0 -0.14830339904E+02 -0.33943179894E+02 -0.30240651214E+02  0.94520543408E+02  0.81532556057E+02 0.  0.
         25    2    1    2    0    0  0.28183449030E+02  0.89481218593E+02  0.32415724779E+03  0.35989829075E+03  0.12509061959E+03 0.  0.
         24    2    1    2    0    0 -0.13353109126E+02 -0.55538038699E+02  0.25168007095E+04  0.25187659563E+04  0.81445392663E+02 0.  0.
        -13    1    5    5    0    0  0.19400019420E+02 -0.42092778948E+01  0.16688528320E+03  0.16806182352E+03  0.00000000000E+00 0.  1.
         14    1    5    5    0    0 -0.32753128546E+02 -0.51328760804E+02  0.23499154263E+04  0.23507041328E+04  0.00000000000E+00 0. -1.
         13    1    3    3    0    0 -0.22792680466E+02 -0.18360522275E+02 -0.56112236828E+02  0.63286635105E+02  0.00000000000E+00 0. -1.
        -14    1    3    3    0    0  0.79623405614E+01 -0.15582657619E+02  0.25871585614E+02  0.31233908303E+02  0.00000000000E+00 0.  1.
          5    1    4    4  501    0  0.49036664123E+02 -0.11402614133E+02  0.76931461441E+02  0.92035515953E+02  0.41800000000E+01 0.  1.
         -5    1    4    4    0  501 -0.20853215093E+02  0.10088383273E+03  0.24722578635E+03  0.26786277479E+03  0.41800000000E+01 0.  1.
</event>
<event>
11    1  0.8299058E-009  0.1443861E+03  0.7561462E-02  0.1102757E+00
         22   -1    0    0    0    0  0.00000000000E+00  0.00000000000E+00  0.11865424486E+04  0.11865424486E+04  0.00000000000E+00 0.  1.
         22   -1    0    0    0    0 -0.00000000000E+00 -0.00000000000E+00 -0.37038811526E+03  0.37038811526E+03  0.00000000000E+00 0. -1.
        -24    2    1    2    0    0 -0.61888511720E+02  0.37207964912E+02 -0.31814743203E+03  0.33710366595E+03  0.84890945064E+02 0.  0.
         25    2    1    2    0    0  0.27269729355E+02 -0.88170555713E+02  0.11006606473E+03  0.19047521006E+03  0.12509429247E+03 0.  0.
         24    2    1    2    0    0  0.34618782365E+02  0.50962590801E+02  0.10242357006E+04  0.10293516878E+04  0.81917525942E+02 0.  0.
        -11    1    5    5    0    0  0.40895157632E+02  0.70737287867E+02  0.80435019624E+03  0.80848958930E+03  0.00000000000E+00 0.  1.
         12    1    5    5    0    0 -0.62763752671E+01 -0.19774697066E+02  0.21988550437E+03  0.22086209852E+03  0.00000000000E+00 0. -1.
         11    1    3    3    0    0 -0.49163158386E+02  0.50539916381E+02 -0.30819607672E+03  0.31615837961E+03  0.00000000000E+00 0. -1.
        -12    1    3    3    0    0 -0.12725353334E+02 -0.13331951469E+02 -0.99513553087E+01  0.20945286342E+02  0.00000000000E+00 0.  1.
          5    1    4    4  501    0 -0.47390264220E+02 -0.49066060204E+02  0.67120419621E+02  0.95791119300E+02  0.41800000000E+01 0.  1.
         -5    1    4    4    0  501  0.74659993575E+02 -0.39104495509E+02  0.42945645112E+02  0.94684090763E+02  0.41800000000E+01 0.  1.
</event>
<event>
11    1  0.8299058E-009  0.1389222E+03  0.7561462E-02  0.1108768E+00
         22   -1    0    0    0    0  0.00000000000E+00  0.00000000000E+00  0.73029285686E+03  0.73029285686E+03  0.00000000000E+00 0.  1.
         22   -1    0    0    0    0 -0.00000000000E+00 -0.00000000000E+00 -0.45282734608E+03  0.45282734608E+03  0.00000000000E+00 0. -1.
         24    2    1    2    0    0  0.41470154043E+02  0.10222221657E+02 -0.28796053900E+03  0.30158905090E+03  0.78806193336E+02 0.  0.
         25    2    1    2    0    0 -0.99816692461E+02  0.16964303199E+01 -0.11298579385E+03  0.19590616134E+03  0.12508870641E+03 0.  0.
        -24    2    1    2    0    0  0.58346538417E+02 -0.11918651977E+02  0.67841184363E+03  0.68562499070E+03  0.79326070609E+02 0.  0.
        -11    1    3    3    0    0  0.16258285382E+02 -0.18533348635E+02 -0.22467299523E+02  0.33355605272E+02  0.00000000000E+00 0.  1.
         12    1    3    3    0    0  0.25211868661E+02  0.28755570292E+02 -0.26549323948E+03  0.26823344563E+03  0.00000000000E+00 0. -1.
         13    1    5    5    0    0 -0.91433402795E+01 -0.24483734122E+02  0.10898471981E+03  0.11207463165E+03  0.00000000000E+00 0. -1.
        -14    1    5    5    0    0  0.67489878697E+02  0.12565082145E+02  0.56942712382E+03  0.57355035905E+03  0.00000000000E+00 0.  1.
          5    1    4    4  501    0  0.14432574894E+02  0.28429093218E+02 -0.57869920445E+02  0.66203569780E+02  0.41800000000E+01 0.  1.
         -5    1    4    4    0  501 -0.11424926735E+03 -0.26732662899E+02 -0.55115873401E+02  0.12970259156E+03  0.41800000000E+01 0.  1.
</event>
<event>
11    1  0.8299058E-009  0.1280840E+03  0.7561462E-02  0.1121646E+00
         22   -1    0    0    0    0  0.00000000000E+00  0.00000000000E+00  0.28757035738E+03  0.28757035738E+03  0.00000000000E+00 0. -1.
         22   -1    0    0    0    0 -0.00000000000E+00 -0.00000000000E+00 -0.62939291266E+03  0.62939291266E+03  0.00000000000E+00 0.  1.
        -24    2    1    2    0    0  0.28706402402E+01 -0.10139001874E+02 -0.46638952365E+03  0.47345446509E+03  0.80801626253E+02 0.  0.
         25    2    1    2    0    0 -0.28002178299E+02  0.20620799595E+02 -0.12448315086E+03  0.17986908582E+03  0.12508994293E+03 0.  0.
         24    2    1    2    0    0  0.25131538059E+02 -0.10481797721E+02  0.24905011924E+03  0.26363971913E+03  0.82088228877E+02 0.  0.
        -13    1    5    5    0    0  0.11278386430E+02 -0.41480618434E+02  0.76221657376E+02  0.87507626863E+02  0.00000000000E+00 0.  1.
         14    1    5    5    0    0  0.13853151628E+02  0.30998820712E+02  0.17282846186E+03  0.17613209226E+03  0.00000000000E+00 0. -1.
         13    1    3    3    0    0 -0.10751060819E+02 -0.27703037744E+01 -0.56545698551E+01  0.12459295806E+02  0.00000000000E+00 0. -1.
        -14    1    3    3    0    0  0.13621701059E+02 -0.73686980996E+01 -0.46073495380E+03  0.46099516928E+03  0.00000000000E+00 0.  1.
          5    1    4    4  501    0 -0.62990010488E+02  0.25961243910E+02 -0.22552351366E+02  0.71887471501E+02  0.41800000000E+01 0.  1.
         -5    1    4    4    0  501  0.34987832189E+02 -0.53404443149E+01 -0.10193079949E+03  0.10798161432E+03  0.41800000000E+01 0.  1.
</event>
<event>
11    1  0.8299058E-009  0.1642458E+03  0.7561462E-02  0.1083151E+00
         22   -1    0    0    0    0  0.00000000000E+00  0.00000000000E+00  0.61236091667E+03  0.61236091667E+03  0.00000000000E+00 0. -1.
         22   -1    0    0    0    0 -0.00000000000E+00 -0.00000000000E+00 -0.92840049216E+03  0.92840049216E+03  0.00000000000E+00 0.  1.
        -24    2    1    2    0    0  0.29921997125E+01  0.29200283962E+02 -0.67693267718E+03  0.68229216114E+03  0.80144456322E+02 0.  0.
         25    2    1    2    0    0 -0.53514607646E+02  0.65268483752E+02 -0.21814303366E+03  0.26525066969E+03  0.12509095265E+03 0.  0.
         24    2    1    2    0    0  0.50522407934E+02 -0.94468767715E+02  0.57903613535E+03  0.59321857799E+03  0.71753560578E+02 0.  0.
        -13    1    5    5    0    0 -0.10696309514E+02 -0.23301337058E+02  0.24195647613E+03  0.24331111706E+03  0.00000000000E+00 0.  1.
         14    1    5    5    0    0  0.61218717448E+02 -0.71167430657E+02  0.33707965922E+03  0.34990746093E+03  0.00000000000E+00 0. -1.
         13    1    3    3    0    0 -0.25811927025E+02 -0.78545735075E+01 -0.10408419195E+03  0.10752427129E+03  0.00000000000E+00 0. -1.
        -14    1    3    3    0    0  0.28804126737E+02  0.37054857470E+02 -0.57284848523E+03  0.57476788985E+03  0.00000000000E+00 0.  1.
          5    1    4    4  501    0  0.26839260324E+02  0.26180708364E+01 -0.12228675388E+03  0.12529454403E+03  0.41800000000E+01 0.  1.
         -5    1    4    4    0  501 -0.80353867970E+02  0.62650412916E+02 -0.95856279782E+02  0.13995612566E+03  0.41800000000E+01 0.  1.
</event>
<event>
11    1  0.8299058E-009  0.2996848E+03  0.7561462E-02  0.1000325E+00
         22   -1    0    0    0    0  0.00000000000E+00  0.00000000000E+00  0.50165728510E+03  0.50165728510E+03  0.00000000000E+00 0.  1.
         22   -1    0    0    0    0 -0.00000000000E+00 -0.00000000000E+00 -0.49673364571E+03  0.49673364571E+03  0.00000000000E+00 0. -1.
         24    2    1    2    0    0 -0.32982466174E+02  0.10827861461E+03 -0.26142690491E+03  0.29627172591E+03  0.81368344609E+02 0.  0.
         25    2    1    2    0    0  0.24867124404E+03 -0.23093647885E+03  0.53411640402E+02  0.36560755483E+03  0.12508811271E+03 0.  0.
        -24    2    1    2    0    0 -0.21568877787E+03  0.12265786424E+03  0.21293890390E+03  0.33651165007E+03  0.79564522770E+02 0.  0.
        -13    1    3    3    0    0  0.20494334635E+02  0.67823299555E+02 -0.15586201106E+03  0.17121035076E+03  0.00000000000E+00 0.  1.
         14    1    3    3    0    0 -0.53476800809E+02  0.40455315056E+02 -0.10556489385E+03  0.12506137515E+03  0.00000000000E+00 0. -1.
         11    1    5    5    0    0 -0.53357844810E+02  0.25118795141E+01  0.19513873116E+02  0.56869678964E+02  0.00000000000E+00 0. -1.
        -12    1    5    5    0    0 -0.16233093306E+03  0.12014598472E+03  0.19342503078E+03  0.27964197111E+03  0.00000000000E+00 0.  1.
          5    1    4    4  501    0  0.11992628739E+03 -0.18030904666E+03 -0.17988077384E+01  0.21659726411E+03  0.41800000000E+01 0.  1.
         -5    1    4    4    0  501  0.12874495666E+03 -0.50627432190E+02  0.55210448140E+02  0.14901029071E+03  0.41800000000E+01 0.  1.
</event>
<event>
11    1  0.8299058E-009  0.1708601E+03  0.7561462E-02  0.1077286E+00
         22   -1    0    0    0    0  0.00000000000E+00  0.00000000000E+00  0.49304110026E+03  0.49304110026E+03  0.00000000000E+00 0.  1.
         22   -1    0    0    0    0 -0.00000000000E+00 -0.00000000000E+00 -0.21397327122E+03  0.21397327122E+03  0.00000000000E+00 0. -1.
        -24    2    1    2    0    0 -0.77089650373E+02  0.74750178511E+02 -0.77694443335E+02  0.15792776687E+03  0.85874033560E+02 0.  0.
         25    2    1    2    0    0  0.10978985131E+03 -0.84366738420E+02  0.46631255374E+01  0.18665537444E+03  0.12508767352E+03 0.  0.
         24    2    1    2    0    0 -0.32700200933E+02  0.96165599091E+01  0.35209914684E+03  0.36243123018E+03  0.78872086590E+02 0.  0.
        -13    1    5    5    0    0  0.57812454244E+01  0.10201424282E+02  0.28374581113E+03  0.28398798776E+03  0.00000000000E+00 0.  1.
         14    1    5    5    0    0 -0.38481446358E+02 -0.58486437317E+00  0.68353335705E+02  0.78443242425E+02  0.00000000000E+00 0. -1.
         13    1    3    3    0    0 -0.62261754798E+02  0.11073548952E+02 -0.66188635054E+02  0.91542804235E+02  0.00000000000E+00 0. -1.
        -14    1    3    3    0    0 -0.14827895576E+02  0.63676629559E+02 -0.11505808280E+02  0.66384962630E+02  0.00000000000E+00 0.  1.
          5    1    4    4  501    0  0.16523648437E+02  0.25145526052E+02  0.27466404772E+02  0.40953683951E+02  0.41800000000E+01 0. -1.
         -5    1    4    4    0  501  0.93266202870E+02 -0.10951226447E+03 -0.22803279234E+02  0.14570169049E+03  0.41800000000E+01 0. -1.
</event>
<event>
11    1  0.8299058E-009  0.1615930E+03  0.7561462E-02  0.1085589E+00
         22   -1    0    0    0    0  0.00000000000E+00  0.00000000000E+00  0.11451282886E+04  0.11451282886E+04  0.00000000000E+00 0.  1.
         22   -1    0    0    0    0 -0.00000000000E+00 -0.00000000000E+00 -0.29310564915E+03  0.29310564915E+03  0.00000000000E+00 0.  1.
        -24    2    1    2    0    0 -0.22594695248E+02  0.32644494819E+02 -0.26544131093E+03  0.28055339524E+03  0.81700273806E+02 0.  0.
         25    2    1    2    0    0 -0.82163474804E+02  0.10457651829E+02  0.40899645346E+03  0.43564410548E+03  0.12508992216E+03 0.  0.
         24    2    1    2    0    0  0.10475817005E+03 -0.43102146647E+02  0.70846749696E+03  0.72203643706E+03  0.81107046298E+02 0.  0.
        -13    1    5    5    0    0  0.45375458116E+02  0.10507590344E+02  0.42345182411E+03  0.42600562085E+03  0.00000000000E+00 0.  1.
         14    1    5    5    0    0  0.59382711937E+02 -0.53609736991E+02  0.28501567285E+03  0.29603081621E+03  0.00000000000E+00 0. -1.
         11    1    3    3    0    0 -0.23533048019E+02  0.18513650295E+02 -0.23148946279E+02  0.37847500713E+02  0.00000000000E+00 0. -1.
        -12    1    3    3    0    0  0.93835277164E+00  0.14130844523E+02 -0.24229236465E+03  0.24270589453E+03  0.00000000000E+00 0.  1.
          5    1    4    4  501    0 -0.10403412575E+03  0.39653397496E+02  0.33495491761E+03  0.35299824431E+03  0.41800000000E+01 0.  1.
         -5    1    4    4    0  501  0.21870650950E+02 -0.29195745667E+02  0.74041535848E+02  0.82645861171E+02  0.41800000000E+01 0.  1.
</event>
<event>
11    1  0.8299058E-009  0.1494074E+03  0.7561462E-02  0.1097486E+00
         22   -1    0    0    0    0  0.00000000000E+00  0.00000000000E+00  0.13753228453E+04  0.13753228453E+04  0.00000000000E+00 0. -1.
         22   -1    0    0    0    0 -0.00000000000E+00 -0.00000000000E+00 -0.68347258717E+03  0.68347258717E+03  0.00000000000E+00 0.  1.
        -24    2    1    2    0    0  0.79589759554E+02 -0.35488768828E+02 -0.52897180874E+03  0.54193098996E+03  0.79271942733E+02 0.  0.
         25    2    1    2    0    0 -0.45682861135E+02  0.31994453568E+02 -0.11471419946E+03  0.17865295150E+03  0.12508781180E+03 0.  0.
         24    2    1    2    0    0 -0.33906898418E+02  0.34943152600E+01  0.13355362664E+04  0.13382114910E+04  0.77401472850E+02 0.  0.
        -11    1    5    5    0    0 -0.29598913650E+02 -0.11360377271E+02  0.19423748316E+03  0.19680791073E+03  0.00000000000E+00 0.  1.
         12    1    5    5    0    0 -0.43079847684E+01  0.14854692531E+02  0.11412987832E+04  0.11414035803E+04  0.00000000000E+00 0. -1.
         13    1    3    3    0    0  0.49825909667E+02 -0.45200118936E+02 -0.19078855658E+03  0.20230161974E+03  0.00000000000E+00 0. -1.
        -14    1    3    3    0    0  0.29763849887E+02  0.97113501083E+01 -0.33818325216E+03  0.33962937023E+03  0.00000000000E+00 0.  1.
          5    1    4    4  501    0 -0.82593561697E+02  0.88194331470E+01 -0.10474770855E+03  0.13374989227E+03  0.41800000000E+01 0. -1.
         -5    1    4    4    0  501  0.36910700562E+02  0.23175020421E+02 -0.99664909072E+01  0.44903059233E+02  0.41800000000E+01 0. -1.
</event>
<event>
11    1  0.8299058E-009  0.1347971E+03  0.7561462E-02  0.1113512E+00
         22   -1    0    0    0    0  0.00000000000E+00  0.00000000000E+00  0.11396657922E+04  0.11396657922E+04  0.00000000000E+00 0.  1.
         22   -1    0    0    0    0 -0.00000000000E+00 -0.00000000000E+00 -0.40722857676E+03  0.40722857676E+03  0.00000000000E+00 0. -1.
        -24    2    1    2    0    0  0.44153153386E+02 -0.20326365015E+02 -0.34673103020E+03  0.35946145579E+03  0.81409267487E+02 0.  0.
         25    2    1    2    0    0 -0.63115541402E+02  0.45860094437E+02  0.51596301399E+02  0.15619385843E+03  0.12509046033E+03 0.  0.
         24    2    1    2    0    0  0.18962388015E+02 -0.25533729422E+02  0.10275719443E+04  0.10312390547E+04  0.80860026677E+02 0.  0.
        -11    1    5    5    0    0  0.79515665799E+01 -0.22595917471E+02  0.10100697750E+04  0.10103537763E+04  0.00000000000E+00 0.  1.
         12    1    5    5    0    0  0.11010821435E+02 -0.29378119513E+01  0.17502169296E+02  0.20885278495E+02  0.00000000000E+00 0. -1.
         11    1    3    3    0    0  0.46683864242E+02 -0.38162657276E+02 -0.32791188567E+03  0.33340962246E+03  0.00000000000E+00 0. -1.
        -12    1    3    3    0    0 -0.25307108559E+01  0.17836292260E+02 -0.18819144530E+02  0.26051833330E+02  0.00000000000E+00 0.  1.
          5    1    4    4  501    0  0.23185762607E+02  0.46844952017E+02  0.45749467818E+02  0.69588183787E+02  0.41800000000E+01 0. -1.
         -5    1    4    4    0  501 -0.86301304009E+02 -0.98485757972E+00  0.58468335804E+01  0.86605674646E+02  0.41800000000E+01 0. -1.
</event>
<event>
11    1  0.1228614E-008  0.1571235E+03  0.7561462E-02  0.1089814E+00
         22   -1    0    0    0    0  0.00000000000E+00  0.00000000000E+00  0.26372138724E+03  0.26372138724E+03  0.00000000000E+00 0. -1.
         22   -1    0    0    0    0 -0.00000000000E+00 -0.00000000000E+00 -0.15373303919E+04  0.15373303919E+04  0.00000000000E+00 0. -1.
        -24    2    1    2    0    0  0.27938074738E+02  0.10844879791E+03 -0.11640908800E+04  0.11722311902E+04  0.80478000808E+02 0.  0.
         25    2    1    2    0    0 -0.68254649358E+02 -0.13402289590E+02 -0.33716342787E+03  0.36628710733E+03  0.12509496144E+03 0.  0.
         24    2    1    2    0    0  0.40316574620E+02 -0.95046508325E+02  0.22764530323E+03  0.26253348159E+03  0.80263191685E+02 0.  0.
        -11    1    5    5    0    0 -0.10275362238E+01 -0.40386220410E+02  0.22499067301E+02  0.46241871276E+02  0.00000000000E+00 0.  1.
         12    1    5    5    0    0  0.41344110843E+02 -0.54660287914E+02  0.20514623593E+03  0.21629161031E+03  0.00000000000E+00 0. -1.
         13    1    3    3    0    0  0.12713642801E+02  0.11391929823E+03 -0.11061801180E+04  0.11121032761E+04  0.00000000000E+00 0. -1.
        -14    1    3    3    0    0  0.15224431937E+02 -0.54705003166E+01 -0.57910761997E+02  0.60127914122E+02  0.00000000000E+00 0.  1.
          5    1    4    4  501    0  0.43469800318E+01 -0.77916285332E+01  0.84997520074E+01  0.13012451529E+02  0.41800000000E+01 0.  1.
         -5    1    4    4    0  501 -0.72601629390E+02 -0.56106610565E+01 -0.34566317988E+03  0.35327465580E+03  0.41800000000E+01 0.  1.
</event>
<event>
11    1  0.8299058E-009  0.1999611E+03  0.7561462E-02  0.1054551E+00
         22   -1    0    0    0    0  0.00000000000E+00  0.00000000000E+00  0.94066308800E+03  0.94066308800E+03  0.00000000000E+00 0.  1.
         22   -1    0    0    0    0 -0.00000000000E+00 -0.00000000000E+00 -0.30573795859E+03  0.30573795859E+03  0.00000000000E+00 0. -1.
        -24    2    1    2    0    0 -0.12100209237E+02 -0.24682399000E+02 -0.22542541988E+03  0.24355302930E+03  0.88010353213E+02 0.  0.
         25    2    1    2    0    0  0.15435760956E+03  0.81281537630E+02  0.12714457820E+03  0.24949033266E+03  0.12508685917E+03 0.  0.
         24    2    1    2    0    0 -0.14225740032E+03 -0.56599138630E+02  0.73320597109E+03  0.75335768462E+03  0.80722825178E+02 0.  0.
        -11    1    5    5    0    0 -0.12254317735E+03 -0.54685247476E+02  0.71120652323E+03  0.72375550104E+03  0.00000000000E+00 0.  1.
         12    1    5    5    0    0 -0.19714222972E+02 -0.19138911544E+01  0.21999447859E+02  0.29602183582E+02  0.00000000000E+00 0. -1.
         11    1    3    3    0    0  0.17726317539E+02 -0.49991005636E+02 -0.13350597975E+03  0.14365642905E+03  0.00000000000E+00 0. -1.
        -12    1    3    3    0    0 -0.29826526776E+02  0.25308606636E+02 -0.91919440128E+02  0.99896600256E+02  0.00000000000E+00 0.  1.
          5    1    4    4  501    0  0.20530561070E+02  0.75978756402E+02  0.63163113658E+02  0.10100161726E+03  0.41800000000E+01 0.  1.
         -5    1    4    4    0  501  0.13382704849E+03  0.53027812280E+01  0.63981464542E+02  0.14848871540E+03  0.41800000000E+01 0.  1.
</event>
<event>
11    1  0.8299058E-009  0.1497054E+03  0.7561462E-02  0.1097180E+00
         22   -1    0    0    0    0  0.00000000000E+00  0.00000000000E+00  0.16855254258E+03  0.16855254258E+03  0.00000000000E+00 0. -1.
         22   -1    0    0    0    0 -0.00000000000E+00 -0.00000000000E+00 -0.74661434529E+03  0.74661434529E+03  0.00000000000E+00 0. -1.
         24    2    1    2    0    0  0.80516751833E+02 -0.48461232471E+02 -0.58664570179E+03  0.59890983281E+03  0.75553755873E+02 0.  0.
         25    2    1    2    0    0 -0.20964645902E+02  0.10841392457E+02 -0.10143000398E+03  0.16276710142E+03  0.12509209179E+03 0.  0.
        -24    2    1    2    0    0 -0.59552105931E+02  0.37619840014E+02  0.11001390307E+03  0.15348995364E+03  0.80587848447E+02 0.  0.
        -13    1    3    3    0    0  0.49886573540E+02  0.33126852317E+01 -0.14935855170E+03  0.15750435254E+03  0.00000000000E+00 0.  1.
         14    1    3    3    0    0  0.30630178293E+02 -0.51773917703E+02 -0.43728715010E+03  0.44140548028E+03  0.00000000000E+00 0. -1.
         13    1    5    5    0    0 -0.26728177750E+01  0.44225078842E+02  0.72722083440E+02  0.85155757136E+02  0.00000000000E+00 0. -1.
        -14    1    5    5    0    0 -0.56879288156E+02 -0.66052388276E+01  0.37291819629E+02  0.68334196508E+02  0.00000000000E+00 0.  1.
          5    1    4    4  501    0 -0.64088217394E+02 -0.19780820106E+02 -0.29510426242E+02  0.73395627321E+02  0.41800000000E+01 0.  1.
         -5    1    4    4    0  501  0.43123571492E+02  0.30622212563E+02 -0.71919577742E+02  0.89371474102E+02  0.41800000000E+01 0.  1.
</event>
<event>
11    1  0.8299058E-009  0.4044951E+03  0.7561462E-02  0.9636587E-01
         22   -1    0    0    0    0  0.00000000000E+00  0.00000000000E+00  0.24892749153E+04  0.24892749153E+04  0.00000000000E+00 0.  1.
         22   -1    0    0    0    0 -0.00000000000E+00 -0.00000000000E+00 -0.24074537113E+04  0.24074537113E+04  0.00000000000E+00 0.  1.
        -24    2    1    2    0    0 -0.24868563966E+03 -0.29001182231E+03 -0.21911337183E+04  0.22256266002E+04  0.79971167642E+02 0.  0.
         25    2    1    2    0    0  0.28736751849E+03  0.30951609121E+03  0.46685312406E+02  0.44295138820E+03  0.12508442152E+03 0.  0.
         24    2    1    2    0    0 -0.38681878834E+02 -0.19504268902E+02  0.22262696099E+04  0.22281506383E+04  0.80636138214E+02 0.  0.
        -11    1    5    5    0    0 -0.63802266126E+02 -0.18254787621E+02  0.15921290146E+04  0.15935114576E+04  0.00000000000E+00 0.  1.
         12    1    5    5    0    0  0.25120387293E+02 -0.12494812809E+01  0.63414059529E+03  0.63463918068E+03  0.00000000000E+00 0. -1.
         11    1    3    3    0    0 -0.99493933000E+01 -0.52927125670E+02 -0.30575780503E+03  0.31046433997E+03  0.00000000000E+00 0. -1.
        -12    1    3    3    0    0 -0.23873624636E+03 -0.23708469664E+03 -0.18853759132E+04  0.19151622602E+04  0.00000000000E+00 0.  1.
          5    1    4    4  501    0  0.25311328172E+03  0.31632142824E+03  0.46236966222E+02  0.40777556179E+03  0.41800000000E+01 0.  1.
         -5    1    4    4    0  501  0.34254236775E+02 -0.68053370289E+01  0.44834618454E+00  0.35175826407E+02  0.41800000000E+01 0.  1.
</event>
<event>
11    1  0.8299058E-009  0.1803898E+03  0.7561462E-02  0.1069328E+00
         22   -1    0    0    0    0  0.00000000000E+00  0.00000000000E+00  0.10830471985E+03  0.10830471985E+03  0.00000000000E+00 0. -1.
         22   -1    0    0    0    0 -0.00000000000E+00 -0.00000000000E+00 -0.10387454696E+04  0.10387454696E+04  0.00000000000E+00 0. -1.
        -24    2    1    2    0    0  0.38975432537E+02  0.12791258627E+03 -0.80762551808E+03  0.82272343342E+03  0.82061905804E+02 0.  0.
         25    2    1    2    0    0 -0.35402419555E+02 -0.10640230751E+03 -0.16039061079E+03  0.23226914148E+03  0.12509605790E+03 0.  0.
         24    2    1    2    0    0 -0.35730129822E+01 -0.21510278759E+02  0.37575379088E+02  0.92057614581E+02  0.81161793811E+02 0.  0.
        -11    1    5    5    0    0 -0.62360102510E+01  0.94659607130E+01 -0.22061378832E+02  0.24803158509E+02  0.00000000000E+00 0.  1.
         12    1    5    5    0    0  0.26629972688E+01 -0.30976239472E+02  0.59636757920E+02  0.67254456071E+02  0.00000000000E+00 0. -1.
         13    1    3    3    0    0  0.26213899918E+02  0.13801325205E+03 -0.73366219153E+03  0.74699065427E+03  0.00000000000E+00 0. -1.
        -14    1    3    3    0    0  0.12761532619E+02 -0.10100665774E+02 -0.73963326551E+02  0.75732779154E+02  0.00000000000E+00 0.  1.
          5    1    4    4  501    0 -0.83592436142E+00 -0.32164307729E+02 -0.14532020575E+03  0.14889820704E+03  0.41800000000E+01 0.  1.
         -5    1    4    4    0  501 -0.34566495194E+02 -0.74237999784E+02 -0.15070405045E+02  0.83370934445E+02  0.41800000000E+01 0.  1.
</event>
<event>
11    1  0.8299058E-009  0.1390109E+03  0.7561462E-02  0.1108668E+00
         22   -1    0    0    0    0  0.00000000000E+00  0.00000000000E+00  0.23985868229E+04  0.23985868229E+04  0.00000000000E+00 0. -1.
         22   -1    0    0    0    0 -0.00000000000E+00 -0.00000000000E+00 -0.59016739054E+03  0.59016739054E+03  0.00000000000E+00 0. -1.
         24    2    1    2    0    0  0.54592549952E+02  0.28820734241E+02 -0.56532578886E+03  0.57435678938E+03  0.80507718381E+02 0.  0.
         25    2    1    2    0    0  0.93306516958E+01 -0.23876145088E+02  0.19466769061E+03  0.23280924723E+03  0.12508998545E+03 0.  0.
        -24    2    1    2    0    0 -0.63923201648E+02 -0.49445891532E+01  0.21790775306E+04  0.21815881769E+04  0.82688960458E+02 0.  0.
        -11    1    3    3    0    0 -0.17597708344E+02  0.17999157312E+02 -0.21763145993E+03  0.21908240767E+03  0.00000000000E+00 0.  1.
         12    1    3    3    0    0  0.72190258296E+02  0.10821576929E+02 -0.34769432894E+03  0.35527438171E+03  0.00000000000E+00 0. -1.
         13    1    5    5    0    0 -0.81836737118E+02 -0.16167359467E+02  0.17709774683E+04  0.17729410109E+04  0.00000000000E+00 0. -1.
        -14    1    5    5    0    0  0.17913535470E+02  0.11222770313E+02  0.40810006238E+03  0.40864716596E+03  0.00000000000E+00 0.  1.
          5    1    4    4  501    0  0.57498215860E+02 -0.28711602067E+01  0.15902335237E+03  0.16917501999E+03  0.41800000000E+01 0. -1.
         -5    1    4    4    0  501 -0.48167564165E+02 -0.21004984881E+02  0.35644338238E+02  0.63634227236E+02  0.41800000000E+01 0. -1.
</event>
<event>
11    1  0.8299058E-009  0.1715184E+03  0.7561462E-02  0.1076718E+00
         22   -1    0    0    0    0  0.00000000000E+00  0.00000000000E+00  0.81948873085E+03  0.81948873085E+03  0.00000000000E+00 0.  1.
         22   -1    0    0    0    0 -0.00000000000E+00 -0.00000000000E+00 -0.36432280587E+03  0.36432280587E+03  0.00000000000E+00 0. -1.
        -24    2    1    2    0    0 -0.11813039714E+03 -0.46880064319E+01 -0.32407835299E+03  0.35394530176E+03  0.79206878688E+02 0.  0.
         25    2    1    2    0    0  0.99460832037E+02  0.18039213087E+02  0.27114903562E+03  0.31525851808E+03  0.12509301893E+03 0.  0.
         24    2    1    2    0    0  0.18669565108E+02 -0.13351206655E+02  0.50809524235E+03  0.51460771687E+03  0.78316789941E+02 0.  0.
        -13    1    5    5    0    0  0.30314815732E+02  0.26358071202E+02  0.25996993013E+03  0.26305531840E+03  0.00000000000E+00 0.  1.
         14    1    5    5    0    0 -0.11645250625E+02 -0.39709277857E+02  0.24812531222E+03  0.25155239847E+03  0.00000000000E+00 0. -1.
         13    1    3    3    0    0 -0.82156870610E+02 -0.36203785280E+02 -0.16514089698E+03  0.18796803269E+03  0.00000000000E+00 0. -1.
        -14    1    3    3    0    0 -0.35973526535E+02  0.31515778848E+02 -0.15893745601E+03  0.16597726908E+03  0.00000000000E+00 0.  1.
          5    1    4    4  501    0 -0.87609765787E+01  0.45034992354E+02  0.53078119786E+02  0.70282746439E+02  0.41800000000E+01 0. -1.
         -5    1    4    4    0  501  0.10822180862E+03 -0.26995779267E+02  0.21807091583E+03  0.24497577164E+03  0.41800000000E+01 0. -1.
</event>
<event>
11    1  0.8299058E-009  0.1719870E+03  0.7561462E-02  0.1076315E+00
         22   -1    0    0    0    0  0.00000000000E+00  0.00000000000E+00  0.34712049760E+03  0.34712049760E+03  0.00000000000E+00 0.  1.
         22   -1    0    0    0    0 -0.00000000000E+00 -0.00000000000E+00 -0.46731445233E+03  0.46731445233E+03  0.00000000000E+00 0. -1.
         24    2    1    2    0    0  0.53573282357E+02  0.12169308663E+03 -0.30497497921E+03  0.34234168345E+03  0.80677049840E+02 0.  0.
         25    2    1    2    0    0  0.33955250738E+02 -0.94609204057E+02 -0.81033602515E+02  0.17978331186E+03  0.12510689006E+03 0.  0.
        -24    2    1    2    0    0 -0.87528533095E+02 -0.27083882573E+02  0.26581462700E+03  0.29230995462E+03  0.79955693011E+02 0.  0.
        -13    1    3    3    0    0  0.11910058817E+02 -0.63670275541E+01 -0.71916514545E+02  0.73173585434E+02  0.00000000000E+00 0.  1.
         14    1    3    3    0    0  0.41663223540E+02  0.12806011418E+03 -0.23305846466E+03  0.26916809802E+03  0.00000000000E+00 0. -1.
         13    1    5    5    0    0 -0.74792846862E+02 -0.48340830871E+02  0.15503114090E+03  0.17878887135E+03  0.00000000000E+00 0. -1.
        -14    1    5    5    0    0 -0.12735686233E+02  0.21256948298E+02  0.11078348610E+03  0.11352108327E+03  0.00000000000E+00 0.  1.
          5    1    4    4  501    0  0.41852131167E+02 -0.10894013050E+02 -0.85041094248E+02  0.95497332499E+02  0.41800000000E+01 0. -1.
         -5    1    4    4    0  501 -0.78968804295E+01 -0.83715191008E+02  0.40074917333E+01  0.84285979356E+02  0.41800000000E+01 0. -1.
</event>
<event>
11    1  0.8299058E-009  0.1399133E+03  0.7561462E-02  0.1107655E+00
         22   -1    0    0    0    0  0.00000000000E+00  0.00000000000E+00  0.24090244177E+03  0.24090244177E+03  0.00000000000E+00 0.  1.
         22   -1    0    0    0    0 -0.00000000000E+00 -0.00000000000E+00 -0.44903137421E+03  0.44903137421E+03  0.00000000000E+00 0.  1.
         24    2    1    2    0    0 -0.17694610847E+02 -0.27800871895E+02 -0.30302838108E+03  0.31736111257E+03  0.88350938301E+02 0.  0.
         25    2    1    2    0    0  0.77981951938E+02  0.15994482658E+02 -0.81271488042E+02  0.16907983632E+03  0.12508368390E+03 0.  0.
        -24    2    1    2    0    0 -0.60287341090E+02  0.11806389236E+02  0.17617093668E+03  0.20349286709E+03  0.81235421477E+02 0.  0.
        -13    1    3    3    0    0 -0.12805995144E+02 -0.56821650942E+02 -0.13895307566E+03  0.15066735135E+03  0.00000000000E+00 0.  1.
         14    1    3    3    0    0 -0.48886157038E+01  0.29020779048E+02 -0.16407530542E+03  0.16669376122E+03  0.00000000000E+00 0. -1.
         11    1    5    5    0    0 -0.56618725076E+01 -0.22186403661E+02  0.94184180434E+01  0.24758834911E+02  0.00000000000E+00 0. -1.
        -12    1    5    5    0    0 -0.54625468583E+02  0.33992792897E+02  0.16675251864E+03  0.17873403218E+03  0.00000000000E+00 0.  1.
          5    1    4    4  501    0  0.73315361870E+02  0.61441141201E+02 -0.30129248382E+02  0.10037629265E+03  0.41800000000E+01 0. -1.
         -5    1    4    4    0  501  0.46665900672E+01 -0.45446658542E+02 -0.51142239661E+02  0.68703543672E+02  0.41800000000E+01 0. -1.
</event>
<event>
11    1  0.8299058E-009  0.2456240E+03  0.7561462E-02  0.1026257E+00
         22   -1    0    0    0    0  0.00000000000E+00  0.00000000000E+00  0.12752514248E+04  0.12752514248E+04  0.00000000000E+00 0. -1.
         22   -1    0    0    0    0 -0.00000000000E+00 -0.00000000000E+00 -0.13135060003E+03  0.13135060003E+03  0.00000000000E+00 0.  1.
        -24    2    1    2    0    0 -0.40770856653E+01 -0.16224153024E+02 -0.52982755124E+02  0.96779936765E+02  0.79242274392E+02 0.  0.
         25    2    1    2    0    0 -0.13874899363E+03 -0.14465728148E+03  0.28866778178E+03  0.37303171882E+03  0.12508622103E+03 0.  0.
         24    2    1    2    0    0  0.14282607930E+03  0.16088143450E+03  0.90821579815E+03  0.93679036928E+03  0.80237990151E+02 0.  0.
        -11    1    5    5    0    0  0.55025084855E+01  0.42309175982E+02  0.26753610762E+03  0.27091680060E+03  0.00000000000E+00 0.  1.
         12    1    5    5    0    0  0.13732357081E+03  0.11857225852E+03  0.64067969054E+03  0.66587356867E+03  0.00000000000E+00 0. -1.
         11    1    3    3    0    0 -0.33649430381E+02 -0.84285220386E+00  0.61127230481E+00  0.33665534581E+02  0.00000000000E+00 0. -1.
        -12    1    3    3    0    0  0.29572344716E+02 -0.15381300820E+02 -0.53594027429E+02  0.63114402183E+02  0.00000000000E+00 0.  1.
          5    1    4    4  501    0 -0.40817414007E+01 -0.80064704609E+02  0.61485078514E+02  0.10111827143E+03  0.41800000000E+01 0.  1.
         -5    1    4    4    0  501 -0.13466725223E+03 -0.64592576867E+02  0.22718270327E+03  0.27191344739E+03  0.41800000000E+01 0.  1.
</event>
<event>
11    1  0.8299058E-009  0.1354402E+03  0.7561462E-02  0.1112760E+00
         22   -1    0    0    0    0  0.00000000000E+00  0.00000000000E+00  0.11187032209E+04  0.11187032209E+04  0.00000000000E+00 0. -1.
         22   -1    0    0    0    0 -0.00000000000E+00 -0.00000000000E+00 -0.48010313386E+02  0.48010313386E+02  0.00000000000E+00 0.  1.
        -24    2    1    2    0    0  0.47622299892E+02 -0.54362129109E+01  0.89077457763E+02  0.12955047148E+03  0.80938836909E+02 0.  0.
         25    2    1    2    0    0 -0.58476783956E+02 -0.25288157500E+02  0.16805399076E+03  0.21899045996E+03  0.12512255022E+03 0.  0.
         24    2    1    2    0    0  0.10854484064E+02  0.30724370411E+02  0.81356145899E+03  0.81817260285E+03  0.80388766215E+02 0.  0.
        -11    1    5    5    0    0 -0.27867148984E+02 -0.74670463188E+00  0.48939421698E+03  0.49018755102E+03  0.00000000000E+00 0.  1.
         12    1    5    5    0    0  0.38721633047E+02  0.31471075043E+02  0.32416724201E+03  0.32798505183E+03  0.00000000000E+00 0. -1.
         11    1    3    3    0    0  0.27883566817E+02 -0.42132522948E+02  0.61458768784E+02  0.79560185072E+02  0.00000000000E+00 0. -1.
        -12    1    3    3    0    0  0.19738733076E+02  0.36696310037E+02  0.27618688980E+02  0.49990286403E+02  0.00000000000E+00 0.  1.
          5    1    4    4  501    0 -0.45581392998E+02 -0.32416520043E+02  0.18665224061E+03  0.19489747429E+03  0.41800000000E+01 0. -1.
         -5    1    4    4    0  501 -0.12895390958E+02  0.71283625429E+01 -0.18598249858E+02  0.24092985666E+02  0.41800000000E+01 0. -1.
</event>
<event>
11    1  0.8299058E-009  0.1883921E+03  0.7561462E-02  0.1063050E+00
         22   -1    0    0    0    0  0.00000000000E+00  0.00000000000E+00  0.54790761838E+03  0.54790761838E+03  0.00000000000E+00 0.  1.
         22   -1    0    0    0    0 -0.00000000000E+00 -0.00000000000E+00 -0.42980627449E+03  0.42980627449E+03  0.00000000000E+00 0.  1.
         24    2    1    2    0    0 -0.62273020847E+02 -0.12365302143E+02 -0.30002416911E+03  0.31689520347E+03  0.79857611449E+02 0.  0.
         25    2    1    2    0    0  0.47002200383E+02  0.15142943779E+03 -0.85483044850E+01  0.20213821899E+03  0.12508678825E+03 0.  0.
        -24    2    1    2    0    0  0.15270820464E+02 -0.13906413565E+03  0.42667381748E+03  0.45868047042E+03  0.93622623510E+02 0.  0.
        -11    1    3    3    0    0 -0.40460694490E+02  0.23404454947E+02 -0.23456422426E+03  0.23917611004E+03  0.00000000000E+00 0.  1.
         12    1    3    3    0    0 -0.21812326356E+02 -0.35769757090E+02 -0.65459944851E+02  0.77719093428E+02  0.00000000000E+00 0. -1.
         13    1    5    5    0    0  0.18404304309E+02  0.84413288868E+01  0.64667827798E+02  0.67763577256E+02  0.00000000000E+00 0. -1.
        -14    1    5    5    0    0 -0.31334838449E+01 -0.14750546453E+03  0.36200598969E+03  0.39091689316E+03  0.00000000000E+00 0.  1.
          5    1    4    4  501    0  0.59547859632E+02  0.16918164220E+03 -0.35223268026E+01  0.17943872166E+03  0.41800000000E+01 0.  1.
         -5    1    4    4    0  501 -0.12545659249E+02 -0.17752204409E+02 -0.50259776825E+01  0.22699497330E+02  0.41800000000E+01 0.  1.
</event>
<event>
11    1  0.8299058E-009  0.1444214E+03  0.7561462E-02  0.1102719E+00
         22   -1    0    0    0    0  0.00000000000E+00  0.00000000000E+00  0.11545424573E+04  0.11545424573E+04  0.00000000000E+00 0. -1.
         22   -1    0    0    0    0 -0.00000000000E+00 -0.00000000000E+00 -0.30954749848E+03  0.30954749848E+03  0.00000000000E+00 0.  1.
        -24    2    1    2    0    0 -0.66326861366E+02  0.23754650605E+02 -0.16057430176E+03  0.19276675536E+03  0.80071091058E+02 0.  0.
         25    2    1    2    0    0  0.64975830531E+02 -0.43739735506E+02 -0.89803422353E+02  0.17276276808E+03  0.12508915362E+03 0.  0.
         24    2    1    2    0    0  0.13510308358E+01  0.19985084901E+02  0.10953726830E+04  0.10985604324E+04  0.81194088975E+02 0.  0.
        -11    1    5    5    0    0 -0.35990736524E+02  0.16403589467E+02  0.34676406473E+03  0.34901250328E+03  0.00000000000E+00 0.  1.
         12    1    5    5    0    0  0.37341767360E+02  0.35814954337E+01  0.74860861823E+03  0.74954792908E+03  0.00000000000E+00 0. -1.
         11    1    3    3    0    0  0.10604502856E+02 -0.10849757387E+02 -0.53230248082E+01  0.16078162497E+02  0.00000000000E+00 0. -1.
        -12    1    3    3    0    0 -0.76931364222E+02  0.34604407992E+02 -0.15525127695E+03  0.17668859287E+03  0.00000000000E+00 0.  1.
          5    1    4    4  501    0 -0.23704914222E+02 -0.48119886345E+02 -0.56016163984E+02  0.77670647272E+02  0.41800000000E+01 0. -1.
         -5    1    4    4    0  501  0.88680744753E+02  0.43801508389E+01 -0.33787258369E+02  0.95092120806E+02  0.41800000000E+01 0. -1.
</event>
<event>
11    1  0.8299058E-009  0.1493973E+03  0.7561462E-02  0.1097496E+00
         22   -1    0    0    0    0  0.00000000000E+00  0.00000000000E+00  0.38240500724E+03  0.38240500724E+03  0.00000000000E+00 0. -1.
         22   -1    0    0    0    0 -0.00000000000E+00 -0.00000000000E+00 -0.41558170990E+03  0.41558170990E+03  0.00000000000E+00 0. -1.
         24    2    1    2    0    0  0.51612402893E+00  0.80662131205E+02 -0.36192916380E+03  0.37932445824E+03  0.79922958004E+02 0.  0.
         25    2    1    2    0    0  0.16193110668E+02 -0.10834821033E+03  0.19658513735E+03  0.25747736228E+03  0.12508926551E+03 0.  0.
        -24    2    1    2    0    0 -0.16709234697E+02  0.27686079129E+02  0.13216732380E+03  0.16118489661E+03  0.86409790608E+02 0.  0.
        -11    1    3    3    0    0 -0.23572998362E+02  0.25591364188E+02 -0.45724137361E+02  0.57456948320E+02  0.00000000000E+00 0.  1.
         12    1    3    3    0    0  0.24089122391E+02  0.55070767016E+02 -0.31620502644E+03  0.32186750992E+03  0.00000000000E+00 0. -1.
         13    1    5    5    0    0  0.12849346311E+02  0.50469759062E+02  0.95989766818E+02  0.10920777268E+03  0.00000000000E+00 0. -1.
        -14    1    5    5    0    0 -0.29558581008E+02 -0.22783679933E+02  0.36177556980E+02  0.51977123925E+02  0.00000000000E+00 0.  1.
          5    1    4    4  501    0  0.38402522294E+02 -0.11014608220E+02  0.13325033751E+03  0.13917327387E+03  0.41800000000E+01 0. -1.
         -5    1    4    4    0  501 -0.22209411626E+02 -0.97333602113E+02  0.63334799837E+02  0.11830408841E+03  0.41800000000E+01 0. -1.
</event>
<event>
11    1  0.8299058E-009  0.2483975E+03  0.7561462E-02  0.1024756E+00
         22   -1    0    0    0    0  0.00000000000E+00  0.00000000000E+00  0.16870052953E+03  0.16870052953E+03  0.00000000000E+00 0.  1.
         22   -1    0    0    0    0 -0.00000000000E+00 -0.00000000000E+00 -0.16939461289E+04  0.16939461289E+04  0.00000000000E+00 0. -1.
        -24    2    1    2    0    0 -0.40462722393E+02  0.28104055706E+02 -0.12653949812E+04  0.12689723921E+04  0.81482536737E+02 0.  0.
         25    2    1    2    0    0 -0.48361873821E+02 -0.22054231871E+03 -0.26061026021E+03  0.36680098330E+03  0.12508984146E+03 0.  0.
         24    2    1    2    0    0  0.88824596215E+02  0.19243826301E+03  0.75964195341E+00  0.22687328305E+03  0.80923516637E+02 0.  0.
        -13    1    5    5    0    0  0.69528157755E+02  0.96130458504E+02  0.33602442745E+02  0.12330593632E+03  0.00000000000E+00 0.  1.
         14    1    5    5    0    0  0.19296438459E+02  0.96307804501E+02 -0.32842800792E+02  0.10356734673E+03  0.00000000000E+00 0. -1.
         13    1    3    3    0    0  0.27775393879E+01  0.24120432615E+02 -0.97928589204E+03  0.97958683553E+03  0.00000000000E+00 0. -1.
        -14    1    3    3    0    0 -0.43240261781E+02  0.39836230907E+01 -0.28610908912E+03  0.28938555660E+03  0.00000000000E+00 0.  1.
          5    1    4    4  501    0  0.17800749123E+02 -0.12128768653E+03 -0.68109874348E+02  0.14029966842E+03  0.41800000000E+01 0. -1.
         -5    1    4    4    0  501 -0.66162622944E+02 -0.99254632177E+02 -0.19250038587E+03  0.22650131488E+03  0.41800000000E+01 0. -1.
</event>
<event>
11    1  0.8299058E-009  0.1380223E+03  0.7561462E-02  0.1109787E+00
         22   -1    0    0    0    0  0.00000000000E+00  0.00000000000E+00  0.11133903603E+03  0.11133903603E+03  0.00000000000E+00 0.  1.
         22   -1    0    0    0    0 -0.00000000000E+00 -0.00000000000E+00 -0.14598747023E+04  0.14598747023E+04  0.00000000000E+00 0.  1.
        -24    2    1    2    0    0 -0.42195497192E+02  0.40515699504E+02 -0.13303526210E+04  0.13340155677E+04  0.79608145194E+02 0.  0.
         25    2    1    2    0    0  0.61761396885E+02 -0.12379845672E+02 -0.42598734141E+02  0.14639200344E+03  0.12509290866E+03 0.  0.
         24    2    1    2    0    0 -0.19565899693E+02 -0.28135853833E+02  0.24415688935E+02  0.90806167127E+02  0.80468524408E+02 0.  0.
        -13    1    5    5    0    0  0.28472471870E+01 -0.19204559686E+02  0.51200035679E+02  0.54757333599E+02  0.00000000000E+00 0.  1.
         14    1    5    5    0    0 -0.22413146880E+02 -0.89312941468E+01 -0.26784346744E+02  0.36048833528E+02  0.00000000000E+00 0. -1.
         11    1    3    3    0    0 -0.12278380071E+02 -0.14125009426E+02 -0.81962171668E+02  0.84071826987E+02  0.00000000000E+00 0. -1.
        -12    1    3    3    0    0 -0.29917117120E+02  0.54640708930E+02 -0.12483904494E+04  0.12499437407E+04  0.00000000000E+00 0.  1.
          5    1    4    4  501    0  0.39524376853E+02 -0.60850251747E+02 -0.55403829326E+02  0.91389201809E+02  0.41800000000E+01 0. -1.
         -5    1    4    4    0  501  0.22237020032E+02  0.48470406075E+02  0.12805095185E+02  0.55002801635E+02  0.41800000000E+01 0. -1.
</event>
<event>
11    1  0.8299058E-009  0.1725033E+03  0.7561462E-02  0.1075873E+00
         22   -1    0    0    0    0  0.00000000000E+00  0.00000000000E+00  0.32737463601E+03  0.32737463601E+03  0.00000000000E+00 0. -1.
         22   -1    0    0    0    0 -0.00000000000E+00 -0.00000000000E+00 -0.38974940359E+03  0.38974940359E+03  0.00000000000E+00 0. -1.
        -24    2    1    2    0    0 -0.90657430286E+02  0.82123167837E+02 -0.22176572524E+03  0.26582929569E+03  0.80760096552E+02 0.  0.
         25    2    1    2    0    0  0.11342988561E+03 -0.34047866407E+02 -0.82583245471E+02  0.19102934430E+03  0.12508645728E+03 0.  0.
         24    2    1    2    0    0 -0.22772455326E+02 -0.48075301430E+02  0.24197420313E+03  0.26026539961E+03  0.79729191167E+02 0.  0.
        -13    1    5    5    0    0 -0.35978711580E+02 -0.62632596201E+02  0.15365636632E+03  0.16978689203E+03  0.00000000000E+00 0.  1.
         14    1    5    5    0    0  0.13206256254E+02  0.14557294771E+02  0.88317836812E+02  0.90478507583E+02  0.00000000000E+00 0. -1.
         11    1    3    3    0    0 -0.93852207887E+02  0.48803716496E+02 -0.12676472370E+03  0.16510401220E+03  0.00000000000E+00 0. -1.
        -12    1    3    3    0    0  0.31947776003E+01  0.33319451341E+02 -0.95001001534E+02  0.10072528349E+03  0.00000000000E+00 0.  1.
          5    1    4    4  501    0 -0.25662525178E+02 -0.81354085997E+01 -0.28703697987E+02  0.39574294052E+02  0.41800000000E+01 0. -1.
         -5    1    4    4    0  501  0.13909241079E+03 -0.25912457807E+02 -0.53879547484E+02  0.15145505025E+03  0.41800000000E+01 0. -1.
</event>
<event>
11    1  0.8299058E-009  0.1851388E+03  0.7561462E-02  0.1065560E+00
         22   -1    0    0    0    0  0.00000000000E+00  0.00000000000E+00  0.19516724766E+03  0.19516724766E+03  0.00000000000E+00 0. -1.
         22   -1    0    0    0    0 -0.00000000000E+00 -0.00000000000E+00 -0.14175077639E+04  0.14175077639E+04  0.00000000000E+00 0. -1.
         24    2    1    2    0    0 -0.17634145804E+02  0.23131144256E+02 -0.10961089542E+04  0.10995629223E+04  0.82083906806E+02 0.  0.
         25    2    1    2    0    0  0.93085829989E+02 -0.13260785565E+03 -0.24359491327E+03  0.31817722726E+03  0.12509376905E+03 0.  0.
        -24    2    1    2    0    0 -0.75451684186E+02  0.10947671139E+03  0.11736335116E+03  0.19493486203E+03  0.80915618129E+02 0.  0.
        -11    1    3    3    0    0  0.10501578562E+01  0.38445703538E+02 -0.23588575352E+03  0.23900055161E+03  0.00000000000E+00 0.  1.
         12    1    3    3    0    0 -0.18684303660E+02 -0.15314559282E+02 -0.86022320063E+03  0.86056237068E+03  0.00000000000E+00 0. -1.
         13    1    5    5    0    0 -0.51477451634E+02  0.11850006889E+03  0.90019019263E+02  0.15746624458E+03  0.00000000000E+00 0. -1.
        -14    1    5    5    0    0 -0.23974232552E+02 -0.90233574977E+01  0.27344331893E+02  0.37468617450E+02  0.00000000000E+00 0.  1.
          5    1    4    4  501    0  0.12030612951E+03 -0.80218938784E+02 -0.18557335896E+03  0.23529468097E+03  0.41800000000E+01 0.  1.
         -5    1    4    4    0  501 -0.27220299517E+02 -0.52388916862E+02 -0.58021554312E+02  0.82882546296E+02  0.41800000000E+01 0.  1.
</event>
<event>
11    1  0.8299058E-009  0.1414322E+03  0.7561462E-02  0.1105970E+00
         22   -1    0    0    0    0  0.00000000000E+00  0.00000000000E+00  0.95733136062E+03  0.95733136062E+03  0.00000000000E+00 0. -1.
         22   -1    0    0    0    0 -0.00000000000E+00 -0.00000000000E+00 -0.14121800505E+04  0.14121800505E+04  0.00000000000E+00 0.  1.
        -24    2    1    2    0    0 -0.48448593859E+02 -0.47098106641E+02 -0.12257348024E+04  0.12302372731E+04  0.80575706793E+02 0.  0.
         25    2    1    2    0    0  0.63471106053E+01  0.60305542709E+02 -0.15536641493E+03  0.20847787338E+03  0.12508899434E+03 0.  0.
         24    2    1    2    0    0  0.42101483254E+02 -0.13207436068E+02  0.92625252751E+03  0.93079626455E+03  0.80566557060E+02 0.  0.
        -13    1    5    5    0    0  0.34832382663E+01  0.10873299834E+02  0.17440705797E+02  0.20845618648E+02  0.00000000000E+00 0.  1.
         14    1    5    5    0    0  0.38618244988E+02 -0.24080735902E+02  0.90881182171E+03  0.90995064590E+03  0.00000000000E+00 0. -1.
         13    1    3    3    0    0  0.15251303762E+02  0.30847760564E+01 -0.72303909369E+02  0.73959268653E+02  0.00000000000E+00 0. -1.
        -14    1    3    3    0    0 -0.63699897621E+02 -0.50182882697E+02 -0.11534308930E+04  0.11562780045E+04  0.00000000000E+00 0.  1.
          5    1    4    4  501    0  0.18534054311E+02  0.97602333906E+02 -0.11504525113E+03  0.15206120136E+03  0.41800000000E+01 0.  1.
         -5    1    4    4    0  501 -0.12186943706E+02 -0.37296791197E+02 -0.40321163807E+02  0.56416672015E+02  0.41800000000E+01 0.  1.
</event>
<event>
11    1  0.8299058E-009  0.1532194E+03  0.7561462E-02  0.1093634E+00
         22   -1    0    0    0    0  0.00000000000E+00  0.00000000000E+00  0.79903313536E+03  0.79903313536E+03  0.00000000000E+00 0. -1.
         22   -1    0    0    0    0 -0.00000000000E+00 -0.00000000000E+00 -0.33120350819E+03  0.33120350819E+03  0.00000000000E+00 0.  1.
        -24    2    1    2    0    0 -0.35929451344E+02 -0.21255760263E+02 -0.28248014131E+03  0.29671878466E+03  0.80649080084E+02 0.  0.
         25    2    1    2    0    0  0.25367166809E+02  0.10662832524E+03  0.15687620889E+03  0.22862897630E+03  0.12509185022E+03 0.  0.
         24    2    1    2    0    0  0.10562284535E+02 -0.85372564976E+02  0.59343355959E+03  0.60488888259E+03  0.79543283355E+02 0.  0.
        -11    1    5    5    0    0 -0.23661462597E+02 -0.25160189890E+02  0.84834797315E+02  0.91596085085E+02  0.00000000000E+00 0.  1.
         12    1    5    5    0    0  0.34223747132E+02 -0.60212375086E+02  0.50859876228E+03  0.51329279751E+03  0.00000000000E+00 0. -1.
         11    1    3    3    0    0 -0.73289889455E+01  0.18888770743E+02 -0.16272833760E+02  0.25986628441E+02  0.00000000000E+00 0. -1.
        -12    1    3    3    0    0 -0.28600462399E+02 -0.40144531005E+02 -0.26620730755E+03  0.27073215622E+03  0.00000000000E+00 0.  1.
          5    1    4    4  501    0 -0.18890303648E+02  0.25833835666E+02  0.12798558445E+03  0.13199247275E+03  0.41800000000E+01 0.  1.
         -5    1    4    4    0  501  0.44257470456E+02  0.80794489573E+02  0.28890624440E+02  0.96636503543E+02  0.41800000000E+01 0.  1.
</event>
<event>
11    1  0.8299058E-009  0.1607982E+03  0.7561462E-02  0.1086329E+00
         22   -1    0    0    0    0  0.00000000000E+00  0.00000000000E+00  0.35876225678E+03  0.35876225678E+03  0.00000000000E+00 0. -1.
         22   -1    0    0    0    0 -0.00000000000E+00 -0.00000000000E+00 -0.57001897699E+03  0.57001897699E+03  0.00000000000E+00 0.  1.
         24    2    1    2    0    0 -0.61743323629E+01 -0.10211745276E+03 -0.52299119486E+03  0.53957222703E+03  0.84571281962E+02 0.  0.
         25    2    1    2    0    0  0.10224131191E+02  0.71573971597E+02  0.16280174330E+03  0.21766601386E+03  0.12508684861E+03 0.  0.
        -24    2    1    2    0    0 -0.40497988284E+01  0.30543481167E+02  0.14893273135E+03  0.17154299289E+03  0.79351968018E+02 0.  0.
        -11    1    3    3    0    0 -0.14498535106E+01 -0.11674768435E+03 -0.47690411914E+03  0.49098845479E+03  0.00000000000E+00 0.  1.
         12    1    3    3    0    0 -0.47244788523E+01  0.14630231585E+02 -0.46087075719E+02  0.48583772239E+02  0.00000000000E+00 0. -1.
         13    1    5    5    0    0  0.37856073850E+01  0.36860591782E+02  0.15528265608E+03  0.15964252982E+03  0.00000000000E+00 0. -1.
        -14    1    5    5    0    0 -0.78354062134E+01 -0.63171106147E+01 -0.63499247279E+01  0.11900463062E+02  0.00000000000E+00 0.  1.
          5    1    4    4  501    0  0.14538246306E+02  0.13973746078E+02 -0.18287772241E+02  0.27541626652E+02  0.41800000000E+01 0.  1.
         -5    1    4    4    0  501 -0.43141151148E+01  0.57600225519E+02  0.18108951555E+03  0.19012438720E+03  0.41800000000E+01 0.  1.
</event>
<event>
11    1  0.8299058E-009  0.4409522E+03  0.7561462E-02  0.9536100E-01
         22   -1    0    0    0    0  0.00000000000E+00  0.00000000000E+00  0.19681594436E+04  0.19681594436E+04  0.00000000000E+00 0.  1.
         22   -1    0    0    0    0 -0.00000000000E+00 -0.00000000000E+00 -0.14780869214E+04  0.14780869214E+04  0.00000000000E+00 0.  1.
         24    2    1    2    0    0 -0.25447987843E+02 -0.22964258564E+02 -0.11485281531E+04  0.11518200663E+04  0.79984932041E+02 0.  0.
         25    2    1    2    0    0  0.31055420100E+03  0.33160199015E+03 -0.11866716170E+03  0.48593632361E+03  0.12509365974E+03 0.  0.
        -24    2    1    2    0    0 -0.28510621316E+03 -0.30863773158E+03  0.17572678370E+04  0.18084899751E+04  0.78121296362E+02 0.  0.
        -13    1    3    3    0    0  0.11137204432E+02 -0.25272842125E+02 -0.91632614833E+03  0.91674225603E+03  0.00000000000E+00 0.  1.
         14    1    3    3    0    0 -0.36585192275E+02  0.23085835617E+01 -0.23220200477E+03  0.23507781025E+03  0.00000000000E+00 0. -1.
         13    1    5    5    0    0 -0.12280339631E+03 -0.80721580812E+02  0.55990430410E+03  0.57886913677E+03  0.00000000000E+00 0. -1.
        -14    1    5    5    0    0 -0.16230281685E+03 -0.22791615077E+03  0.11973635329E+04  0.12296208383E+04  0.00000000000E+00 0.  1.
          5    1    4    4  501    0  0.24837854073E+03  0.30115000170E+03 -0.59749251243E+02  0.39493121989E+03  0.41800000000E+01 0. -1.
         -5    1    4    4    0  501  0.62175660269E+02  0.30451988446E+02 -0.58917910455E+02  0.91005103717E+02  0.41800000000E+01 0. -1.
</event>
<event>
11    1  0.8299058E-009  0.1326864E+03  0.7561462E-02  0.1116012E+00
         22   -1    0    0    0    0  0.00000000000E+00  0.00000000000E+00  0.36731560232E+03  0.36731560232E+03  0.00000000000E+00 0.  1.
         22   -1    0    0    0    0 -0.00000000000E+00 -0.00000000000E+00 -0.10240420635E+04  0.10240420635E+04  0.00000000000E+00 0.  1.
         24    2    1    2    0    0 -0.20892779645E+02 -0.18966530272E+02 -0.56121138209E+03  0.56716174918E+03  0.76928517649E+02 0.  0.
         25    2    1    2    0    0  0.63658438014E+02  0.28953950014E+02 -0.44259044129E+03  0.46521595861E+03  0.12509540948E+03 0.  0.
        -24    2    1    2    0    0 -0.42765658369E+02 -0.99874197418E+01  0.34707536220E+03  0.35897995803E+03  0.80477656092E+02 0.  0.
        -11    1    3    3    0    0  0.35437049181E+01 -0.19503561352E+01 -0.48946100593E+03  0.48947771967E+03  0.00000000000E+00 0.  1.
         12    1    3    3    0    0 -0.24436484563E+02 -0.17016174137E+02 -0.71750376166E+02  0.77684029504E+02  0.00000000000E+00 0. -1.
         11    1    5    5    0    0  0.93873000886E+01  0.11069893350E+02  0.10950008592E+02  0.18181491410E+02  0.00000000000E+00 0. -1.
        -12    1    5    5    0    0 -0.52152958457E+02 -0.21057313092E+02  0.33612535361E+03  0.34079846662E+03  0.00000000000E+00 0.  1.
          5    1    4    4  501    0  0.28757777687E+02 -0.11116030926E+02 -0.38682324454E+03  0.38807250719E+03  0.41800000000E+01 0.  1.
         -5    1    4    4    0  501  0.34900660327E+02  0.40069980939E+02 -0.55767196754E+02  0.77143451424E+02  0.41800000000E+01 0.  1.
</event>
<event>
11    1  0.8299058E-009  0.1387715E+03  0.7561462E-02  0.1108938E+00
         22   -1    0    0    0    0  0.00000000000E+00  0.00000000000E+00  0.22613702113E+04  0.22613702113E+04  0.00000000000E+00 0.  1.
         22   -1    0    0    0    0 -0.00000000000E+00 -0.00000000000E+00 -0.23855415970E+03  0.23855415970E+03  0.00000000000E+00 0.  1.
        -24    2    1    2    0    0  0.17849835434E+02 -0.24886514674E+02 -0.17827211259E+03  0.19803994813E+03  0.80628280971E+02 0.  0.
         25    2    1    2    0    0  0.42529880359E+02  0.20429585519E+02  0.41556160329E+02  0.13999997454E+03  0.12508764816E+03 0.  0.
         24    2    1    2    0    0 -0.60379715793E+02  0.44569291553E+01  0.21595320038E+04  0.21618844483E+04  0.80624549569E+02 0.  0.
        -11    1    5    5    0    0 -0.78907442084E+02  0.87554724358E+01  0.18991470894E+04  0.19008058054E+04  0.00000000000E+00 0.  1.
         12    1    5    5    0    0  0.18527726290E+02 -0.42985432804E+01  0.26038491445E+03  0.26107864292E+03  0.00000000000E+00 0. -1.
         13    1    3    3    0    0  0.37075132611E+02 -0.38433673261E+02 -0.74661365750E+02  0.91793421518E+02  0.00000000000E+00 0. -1.
        -14    1    3    3    0    0 -0.19225297176E+02  0.13547158587E+02 -0.10361074684E+03  0.10624652661E+03  0.00000000000E+00 0.  1.
          5    1    4    4  501    0 -0.17208010998E+02  0.37669511551E+02 -0.25215919953E+02  0.48666443902E+02  0.41800000000E+01 0. -1.
         -5    1    4    4    0  501  0.59737891358E+02 -0.17239926032E+02  0.66772080282E+02  0.91333530637E+02  0.41800000000E+01 0. -1.
</event>
<event>
11    1  0.8299058E-009  0.1457882E+03  0.7561462E-02  0.1101262E+00
         22   -1    0    0    0    0  0.00000000000E+00  0.00000000000E+00  0.31952291467E+03  0.31952291467E+03  0.00000000000E+00 0. -1.
         22   -1    0    0    0    0 -0.00000000000E+00 -0.00000000000E+00 -0.31605930732E+03  0.31605930732E+03  0.00000000000E+00 0. -1.
         24    2    1    2    0    0 -0.32864253082E+02  0.47465821561E+02 -0.23496521219E+03  0.25428318436E+03  0.78219074132E+02 0.  0.
         25    2    1    2    0    0  0.82542095288E+02  0.11505992152E+02  0.42661541001E+02  0.15624473686E+03  0.12508727100E+03 0.  0.
        -24    2    1    2    0    0 -0.49677842207E+02 -0.58971813713E+02  0.19576727855E+03  0.22505430077E+03  0.79868943435E+02 0.  0.
        -11    1    3    3    0    0 -0.35407497898E+02  0.39193533650E+02 -0.63483234347E+02  0.82582958476E+02  0.00000000000E+00 0.  1.
         12    1    3    3    0    0  0.25432448165E+01  0.82722879114E+01 -0.17148197785E+03  0.17170022588E+03  0.00000000000E+00 0. -1.
         11    1    5    5    0    0 -0.68055095316E+02 -0.42109873154E+02  0.17561051815E+03  0.19298650601E+03  0.00000000000E+00 0. -1.
        -12    1    5    5    0    0  0.18377253109E+02 -0.16861940560E+02  0.20156760402E+02  0.32067794767E+02  0.00000000000E+00 0.  1.
          5    1    4    4  501    0 -0.94681592799E+01  0.49573801442E+02  0.14843454276E+02  0.52773178456E+02  0.41800000000E+01 0.  1.
         -5    1    4    4    0  501  0.92010254568E+02 -0.38067809290E+02  0.27818086725E+02  0.10347155841E+03  0.41800000000E+01 0.  1.
</event>
<event>
11    1  0.8299058E-009  0.3106342E+03  0.7561462E-02  0.9957884E-01
         22   -1    0    0    0    0  0.00000000000E+00  0.00000000000E+00  0.17913414347E+04  0.17913414347E+04  0.00000000000E+00 0.  1.
         22   -1    0    0    0    0 -0.00000000000E+00 -0.00000000000E+00 -0.23365295931E+03  0.23365295931E+03  0.00000000000E+00 0.  1.
         24    2    1    2    0    0  0.13009230715E+03 -0.95689984304E+02 -0.18284368583E+03  0.25695995026E+03  0.80721875067E+02 0.  0.
         25    2    1    2    0    0 -0.42373917533E+02  0.12410744713E+02  0.44377942751E+03  0.46318105650E+03  0.12508771062E+03 0.  0.
        -24    2    1    2    0    0 -0.87718389622E+02  0.83279239591E+02  0.12967527337E+04  0.13048533873E+04  0.80279276519E+02 0.  0.
        -11    1    3    3    0    0  0.65482068073E+02 -0.20963848768E+01 -0.52348050363E+02  0.83860684743E+02  0.00000000000E+00 0.  1.
         12    1    3    3    0    0  0.64610239082E+02 -0.93593599428E+02 -0.13049563546E+03  0.17309926552E+03  0.00000000000E+00 0. -1.
         11    1    5    5    0    0  0.56399692523E+01 -0.11074172511E+02  0.10690522287E+03  0.10762515146E+03  0.00000000000E+00 0. -1.
        -12    1    5    5    0    0 -0.93358358874E+02  0.94353412103E+02  0.11898475108E+04  0.11972282358E+04  0.00000000000E+00 0.  1.
          5    1    4    4  501    0 -0.59753344381E+02 -0.41427123698E+02  0.29755924488E+03  0.30634236625E+03  0.41800000000E+01 0. -1.
         -5    1    4    4    0  501  0.17379426848E+02  0.53837868411E+02  0.14622018263E+03  0.15683869025E+03  0.41800000000E+01 0. -1.
</event>
<event>
11    1  0.8299058E-009  0.1419074E+03  0.7561462E-02  0.1105447E+00
         22   -1    0    0    0    0  0.00000000000E+00  0.00000000000E+00  0.18884581335E+04  0.18884581335E+04  0.00000000000E+00 0. -1.
         22   -1    0    0    0    0 -0.00000000000E+00 -0.00000000000E+00 -0.28427926950E+03  0.28427926950E+03  0.00000000000E+00 0.  1.
        -24    2    1    2    0    0 -0.31658238272E+02  0.36660697013E+02 -0.25068981976E+03  0.26835298466E+03  0.82593509991E+02 0.  0.
         25    2    1    2    0    0 -0.37480086981E+02 -0.36227124973E+02  0.17589846739E+03  0.22204507777E+03  0.12508630713E+03 0.  0.
         24    2    1    2    0    0  0.69138325253E+02 -0.43357203991E+00  0.16789702164E+04  0.16823393406E+04  0.80897301031E+02 0.  0.
        -11    1    5    5    0    0 -0.12784155829E+02  0.13574270766E+02  0.15734442171E+03  0.15844545595E+03  0.00000000000E+00 0.  1.
         12    1    5    5    0    0  0.81922481082E+02 -0.14007842806E+02  0.15216257947E+04  0.15238938846E+04  0.00000000000E+00 0. -1.
         13    1    3    3    0    0 -0.63146196541E+01 -0.70121704179E+01  0.28316060163E+01  0.98520529828E+01  0.00000000000E+00 0. -1.
        -14    1    3    3    0    0 -0.25343618618E+02  0.43672867431E+02 -0.25352142577E+03  0.25850093168E+03  0.00000000000E+00 0.  1.
          5    1    4    4  501    0  0.11187668273E+01  0.43985022217E+02  0.40467723307E+02  0.59925310582E+02  0.41800000000E+01 0. -1.
         -5    1    4    4    0  501 -0.38598853808E+02 -0.80212147190E+02  0.13543074408E+03  0.16211976719E+03  0.41800000000E+01 0. -1.
</event>
<event>
11    1  0.8299058E-009  0.1536393E+03  0.7561462E-02  0.1093217E+00
         22   -1    0    0    0    0  0.00000000000E+00  0.00000000000E+00  0.15490373916E+03  0.15490373916E+03  0.00000000000E+00 0.  1.
         22   -1    0    0    0    0 -0.00000000000E+00 -0.00000000000E+00 -0.34722452599E+04  0.34722452599E+04  0.00000000000E+00 0.  1.
        -24    2    1    2    0    0  0.60719540523E+02  0.60216760985E+02 -0.28115873296E+04  0.28140608069E+04  0.81252642029E+02 0.  0.
         25    2    1    2    0    0 -0.68242051022E+02 -0.11048762733E+03 -0.62999934221E+03  0.65529739859E+03  0.12510402108E+03 0.  0.
         24    2    1    2    0    0  0.75225104998E+01  0.50270866342E+02  0.12424515112E+03  0.15779079355E+03  0.82929661667E+02 0.  0.
        -11    1    5    5    0    0 -0.11756586367E+02  0.60599125543E+02  0.12078868449E+03  0.13564799166E+03  0.00000000000E+00 0.  1.
         12    1    5    5    0    0  0.19279096867E+02 -0.10328259201E+02  0.34564666348E+01  0.22142801894E+02  0.00000000000E+00 0. -1.
         11    1    3    3    0    0  0.20522802061E+02 -0.56790740694E+01 -0.16764220606E+03  0.16898919060E+03  0.00000000000E+00 0. -1.
        -12    1    3    3    0    0  0.40196738462E+02  0.65895835054E+02 -0.26439451236E+04  0.26450716163E+04  0.00000000000E+00 0.  1.
          5    1    4    4  501    0 -0.91478196972E+02 -0.12029854507E+03 -0.57662686431E+03  0.59611744943E+03  0.41800000000E+01 0.  1.
         -5    1    4    4    0  501  0.23236145949E+02  0.98109177438E+01 -0.53372477903E+02  0.59179949164E+02  0.41800000000E+01 0.  1.
</event>
<event>
11    1  0.8299058E-009  0.1372642E+03  0.7561462E-02  0.1110652E+00
         22   -1    0    0    0    0  0.00000000000E+00  0.00000000000E+00  0.37980591586E+03  0.37980591586E+03  0.00000000000E+00 0.  1.
         22   -1    0    0    0    0 -0.00000000000E+00 -0.00000000000E+00 -0.56471461643E+03  0.56471461643E+03  0.00000000000E+00 0. -1.
        -24    2    1    2    0    0 -0.13442054964E+02  0.11934473252E+02 -0.27853399963E+03  0.29026368931E+03  0.79678729201E+02 0.  0.
         25    2    1    2    0    0  0.68005780679E+02 -0.24700144329E+02 -0.25283245423E+03  0.29121771278E+03  0.12509445627E+03 0.  0.
         24    2    1    2    0    0 -0.54563725714E+02  0.12765671077E+02  0.34645775330E+03  0.36303913021E+03  0.92866962476E+02 0.  0.
        -13    1    5    5    0    0 -0.62062936076E+02  0.99776630020E+01  0.11191653999E+03  0.12836149624E+03  0.00000000000E+00 0.  1.
         14    1    5    5    0    0  0.74992103612E+01  0.27880080751E+01  0.23454121331E+03  0.23467763397E+03  0.00000000000E+00 0. -1.
         13    1    3    3    0    0 -0.26108779274E+02  0.40882899671E+02 -0.19528560640E+03  0.20122014786E+03  0.00000000000E+00 0. -1.
        -14    1    3    3    0    0  0.12666724310E+02 -0.28948426419E+02 -0.83248393237E+02  0.89043541448E+02  0.00000000000E+00 0.  1.
          5    1    4    4  501    0  0.15576765464E+01 -0.46852674093E+02 -0.25975373608E+02  0.53756784316E+02  0.41800000000E+01 0. -1.
         -5    1    4    4    0  501  0.66448104132E+02  0.22152529765E+02 -0.22685708062E+03  0.23746092846E+03  0.41800000000E+01 0. -1.
</event>
<event>
11    1  0.8299058E-009  0.1808155E+03  0.7561462E-02  0.1068985E+00
         22   -1    0    0    0    0  0.00000000000E+00  0.00000000000E+00  0.55273400833E+03  0.55273400833E+03  0.00000000000E+00 0.  1.
         22   -1    0    0    0    0 -0.00000000000E+00 -0.00000000000E+00 -0.25427405892E+04  0.25427405892E+04  0.00000000000E+00 0.  1.
         24    2    1    2    0    0 -0.24346648633E+02 -0.21960840741E+02 -0.24761222127E+04  0.24776636032E+04  0.80998027410E+02 0.  0.
         25    2    1    2    0    0 -0.26035612281E+02 -0.10569961665E+03  0.84736744588E+02  0.18622907558E+03  0.12510272036E+03 0.  0.
        -24    2    1    2    0    0  0.50382260914E+02  0.12766045739E+03  0.40137888724E+03  0.43158191878E+03  0.79513375622E+02 0.  0.
        -11    1    3    3    0    0 -0.14629950559E+02 -0.42038567644E+01 -0.23395490910E+04  0.23395986103E+04  0.00000000000E+00 0.  1.
         12    1    3    3    0    0 -0.97166980739E+01 -0.17756983976E+02 -0.13657312164E+03  0.13806499287E+03  0.00000000000E+00 0. -1.
         13    1    5    5    0    0  0.30938333195E+02  0.15492588986E+01  0.74909710793E+02  0.81061985142E+02  0.00000000000E+00 0. -1.
        -14    1    5    5    0    0  0.19443927719E+02  0.12611119849E+03  0.32646917644E+03  0.35051993364E+03  0.00000000000E+00 0.  1.
          5    1    4    4  501    0  0.28681337291E+02 -0.95439670235E+00  0.58219928927E+02  0.65042774434E+02  0.41800000000E+01 0.  1.
         -5    1    4    4    0  501 -0.54716949571E+02 -0.10474521995E+03  0.26516815661E+02  0.12118630115E+03  0.41800000000E+01 0.  1.
</event>
<event>
11    1  0.8299058E-009  0.1283215E+03  0.7561462E-02  0.1121349E+00
         22   -1    0    0    0    0  0.00000000000E+00  0.00000000000E+00  0.55877350956E+03  0.55877350956E+03  0.00000000000E+00 0. -1.
         22   -1    0    0    0    0 -0.00000000000E+00 -0.00000000000E+00 -0.13354059225E+03  0.13354059225E+03  0.00000000000E+00 0. -1.
         24    2    1    2    0    0  0.20997205702E+02  0.18504775139E+02 -0.65091768180E+02  0.10740277541E+03  0.80716222225E+02 0.  0.
         25    2    1    2    0    0  0.90301982741E+01 -0.21966759734E+02  0.51189557912E+02  0.13723397437E+03  0.12509480353E+03 0.  0.
        -24    2    1    2    0    0 -0.30027403976E+02  0.34619845958E+01  0.43913512757E+03  0.44767735203E+03  0.81619366117E+02 0.  0.
        -11    1    3    3    0    0 -0.13447898509E+02  0.38914848486E+02 -0.16289225832E+02  0.44278101644E+02  0.00000000000E+00 0.  1.
         12    1    3    3    0    0  0.34445104211E+02 -0.20410073347E+02 -0.48802542348E+02  0.63124673764E+02  0.00000000000E+00 0. -1.
         11    1    5    5    0    0  0.95538142647E+01 -0.16581692046E+02  0.31962812193E+03  0.32020050626E+03  0.00000000000E+00 0. -1.
        -12    1    5    5    0    0 -0.39581218241E+02  0.20043676642E+02  0.11950700564E+03  0.12747684577E+03  0.00000000000E+00 0.  1.
          5    1    4    4  501    0 -0.34485248117E+02  0.39008363119E+02  0.18794802564E+02  0.55512176451E+02  0.41800000000E+01 0.  1.
         -5    1    4    4    0  501  0.43515446391E+02 -0.60975122854E+02  0.32394755348E+02  0.81721797922E+02  0.41800000000E+01 0.  1.
</event>
<event>
11    1  0.8299058E-009  0.1279241E+03  0.7561462E-02  0.1121846E+00
         22   -1    0    0    0    0  0.00000000000E+00  0.00000000000E+00  0.19129678615E+04  0.19129678615E+04  0.00000000000E+00 0.  1.
         22   -1    0    0    0    0 -0.00000000000E+00 -0.00000000000E+00 -0.14858747401E+03  0.14858747401E+03  0.00000000000E+00 0. -1.
         24    2    1    2    0    0 -0.25248480591E+02 -0.50748140901E+01 -0.10784700033E+03  0.13709270886E+03  0.80623791972E+02 0.  0.
         25    2    1    2    0    0  0.33617038451E+02  0.27800544065E+02  0.14949287211E+03  0.19974599702E+03  0.12508944396E+03 0.  0.
        -24    2    1    2    0    0 -0.83685578601E+01 -0.22725729975E+02  0.17227345157E+04  0.17247166297E+04  0.79036380095E+02 0.  0.
        -13    1    3    3    0    0 -0.28251662520E+02 -0.15862643820E+02 -0.40029674149E+01  0.32646648407E+02  0.00000000000E+00 0.  1.
         14    1    3    3    0    0  0.30031819291E+01  0.10787829730E+02 -0.10384403291E+03  0.10444606045E+03  0.00000000000E+00 0. -1.
         11    1    5    5    0    0  0.33202478185E+02 -0.24060996088E+02  0.82056869512E+03  0.82159255078E+03  0.00000000000E+00 0. -1.
        -12    1    5    5    0    0 -0.41571036045E+02  0.13352661133E+01  0.90216582061E+03  0.90312407888E+03  0.00000000000E+00 0.  1.
          5    1    4    4  501    0  0.67964669797E+02  0.44787612476E+02  0.56754761232E+02  0.99316171364E+02  0.41800000000E+01 0.  1.
         -5    1    4    4    0  501 -0.34347631346E+02 -0.16987068411E+02  0.92738110879E+02  0.10042982566E+03  0.41800000000E+01 0.  1.
</event>
<event>
11    1  0.8299058E-009  0.1932148E+03  0.7561462E-02  0.1059428E+00
         22   -1    0    0    0    0  0.00000000000E+00  0.00000000000E+00  0.87149555609E+03  0.87149555609E+03  0.00000000000E+00 0. -1.
         22   -1    0    0    0    0 -0.00000000000E+00 -0.00000000000E+00 -0.32863657252E+03  0.32863657252E+03  0.00000000000E+00 0.  1.
        -24    2    1    2    0    0 -0.22312896460E+02 -0.94367376505E+02 -0.26158341293E+03  0.29058700761E+03  0.81313344406E+02 0.  0.
         25    2    1    2    0    0  0.16357296211E+03  0.88241850809E+02  0.27013039509E+03  0.35094346773E+03  0.12509256181E+03 0.  0.
         24    2    1    2    0    0 -0.14126006565E+03  0.61255256957E+01  0.53431200141E+03  0.55860165327E+03  0.80960261706E+02 0.  0.
        -13    1    5    5    0    0  0.22789291732E+00  0.15071745545E+02  0.19621805589E+02  0.24743174887E+02  0.00000000000E+00 0.  1.
         14    1    5    5    0    0 -0.14148795857E+03 -0.89462198489E+01  0.51469019582E+03  0.53385847839E+03  0.00000000000E+00 0. -1.
         11    1    3    3    0    0 -0.18188461103E+02  0.61003396180E+01 -0.15203003923E+02  0.24477859160E+02  0.00000000000E+00 0. -1.
        -12    1    3    3    0    0 -0.41244353569E+01 -0.10046771612E+03 -0.24638040900E+03  0.26610914845E+03  0.00000000000E+00 0.  1.
          5    1    4    4  501    0  0.99205596896E+02  0.10342025629E+03  0.12045246296E+03  0.18725321920E+03  0.41800000000E+01 0. -1.
         -5    1    4    4    0  501  0.64367365215E+02 -0.15178405478E+02  0.14967793213E+03  0.16369024853E+03  0.41800000000E+01 0. -1.
</event>
<event>
11    1  0.8299058E-009  0.1432951E+03  0.7561462E-02  0.1103934E+00
         22   -1    0    0    0    0  0.00000000000E+00  0.00000000000E+00  0.65849916243E+03  0.65849916243E+03  0.00000000000E+00 0.  1.
         22   -1    0    0    0    0 -0.00000000000E+00 -0.00000000000E+00 -0.31690970397E+03  0.31690970397E+03  0.00000000000E+00 0.  1.
         24    2    1    2    0    0 -0.52922789281E+02 -0.37233649563E+02 -0.20893648020E+03  0.23300072212E+03  0.80297680334E+02 0.  0.
         25    2    1    2    0    0  0.50933976190E+02  0.10369903031E+03 -0.11918074651E+02  0.17069211654E+03  0.12508396911E+03 0.  0.
        -24    2    1    2    0    0  0.19888130907E+01 -0.66465380747E+02  0.56244401331E+03  0.57171602773E+03  0.78066292580E+02 0.  0.
        -13    1    3    3    0    0 -0.48991925339E+02  0.72472928235E+01 -0.15638379552E+03  0.16403848178E+03  0.00000000000E+00 0.  1.
         14    1    3    3    0    0 -0.39308639425E+01 -0.44480942387E+02 -0.52552684678E+02  0.68962240348E+02  0.00000000000E+00 0. -1.
         11    1    5    5    0    0  0.15996917688E+02 -0.32650057422E+02  0.79872765097E+02  0.87758681790E+02  0.00000000000E+00 0. -1.
        -12    1    5    5    0    0 -0.14008104597E+02 -0.33815323325E+02  0.48257124821E+03  0.48395734594E+03  0.00000000000E+00 0.  1.
          5    1    4    4  501    0  0.59197519031E+02 -0.25505110183E+01  0.13802371014E+02  0.60982204056E+02  0.41800000000E+01 0. -1.
         -5    1    4    4    0  501 -0.82635428409E+01  0.10624954133E+03 -0.25720445665E+02  0.10970991249E+03  0.41800000000E+01 0. -1.
</event>
<event>
11    1  0.8299058E-009  0.1562829E+03  0.7561462E-02  0.1090626E+00
         22   -1    0    0    0    0  0.00000000000E+00  0.00000000000E+00  0.20584165743E+03  0.20584165743E+03  0.00000000000E+00 0.  1.
         22   -1    0    0    0    0 -0.00000000000E+00 -0.00000000000E+00 -0.30849642062E+03  0.30849642062E+03  0.00000000000E+00 0. -1.
         24    2    1    2    0    0  0.76522460741E+02  0.27656540696E+02 -0.73528590445E+02  0.13583527902E+03  0.80151095891E+02 0.  0.
         25    2    1    2    0    0 -0.89478328701E+02 -0.64179877987E+02 -0.15280758726E+03  0.22610389817E+03  0.12508951195E+03 0.  0.
        -24    2    1    2    0    0  0.12955867960E+02  0.36523337291E+02  0.12368141452E+03  0.15239890086E+03  0.80165603629E+02 0.  0.
        -11    1    3    3    0    0 -0.11620771130E+02 -0.11243307103E+02 -0.19651995565E+02  0.25449070827E+02  0.00000000000E+00 0.  1.
         12    1    3    3    0    0  0.88143231872E+02  0.38899847798E+02 -0.53876594881E+02  0.11038620819E+03  0.00000000000E+00 0. -1.
         13    1    5    5    0    0  0.46811233348E+01  0.60222568461E+02  0.65870726435E+02  0.89373504289E+02  0.00000000000E+00 0. -1.
        -14    1    5    5    0    0  0.82747446252E+01 -0.23699231170E+02  0.57810688082E+02  0.63025396572E+02  0.00000000000E+00 0.  1.
          5    1    4    4  501    0  0.23726243424E+02  0.70609951591E+01 -0.54658617204E+02  0.60148392450E+02  0.41800000000E+01 0. -1.
         -5    1    4    4    0  501 -0.11320457213E+03 -0.71240873146E+02 -0.98148970057E+02  0.16595550572E+03  0.41800000000E+01 0. -1.
</event>
<event>
11    1  0.8299058E-009  0.1918595E+03  0.7561462E-02  0.1060434E+00
         22   -1    0    0    0    0  0.00000000000E+00  0.00000000000E+00  0.31215550914E+04  0.31215550914E+04  0.00000000000E+00 0.  1.
         22   -1    0    0    0    0 -0.00000000000E+00 -0.00000000000E+00 -0.69668718702E+03  0.69668718702E+03  0.00000000000E+00 0. -1.
        -24    2    1    2    0    0  0.10458433235E+03 -0.10009202849E+03 -0.66241079641E+03  0.68292359097E+03  0.81487858958E+02 0.  0.
         25    2    1    2    0    0 -0.11158053448E+03  0.14800966118E+03  0.51720490757E+03  0.56347581402E+03  0.12508797340E+03 0.  0.
         24    2    1    2    0    0  0.69962021278E+01 -0.47917632689E+02  0.25700737932E+04  0.25718428735E+04  0.82167004839E+02 0.  0.
        -13    1    5    5    0    0  0.18264174151E+02 -0.44082329623E+01  0.19695205063E+04  0.19696101232E+04  0.00000000000E+00 0.  1.
         14    1    5    5    0    0 -0.11267972023E+02 -0.43509399727E+02  0.60055328696E+03  0.60223275030E+03  0.00000000000E+00 0. -1.
         13    1    3    3    0    0  0.61994250314E+02 -0.43787096536E+02 -0.50144237940E+03  0.50715387877E+03  0.00000000000E+00 0. -1.
        -14    1    3    3    0    0  0.42590082036E+02 -0.56304931956E+02 -0.16096841702E+03  0.17576971220E+03  0.00000000000E+00 0.  1.
          5    1    4    4  501    0 -0.23284030636E+00  0.50484090643E+02  0.42221384900E+02  0.65945548489E+02  0.41800000000E+01 0.  1.
         -5    1    4    4    0  501 -0.11134769417E+03  0.97525570538E+02  0.47498352267E+03  0.49753026553E+03  0.41800000000E+01 0.  1.
</event>
<event>
11    1  0.8299058E-009  0.1677224E+03  0.7561462E-02  0.1080031E+00
         22   -1    0    0    0    0  0.00000000000E+00  0.00000000000E+00  0.25917937398E+04  0.25917937398E+04  0.00000000000E+00 0.  1.
         22   -1    0    0    0    0 -0.00000000000E+00 -0.00000000000E+00 -0.10267578573E+03  0.10267578573E+03  0.00000000000E+00 0.  1.
         24    2    1    2    0    0 -0.12001062814E+03 -0.21567980747E+02 -0.30176361569E+02  0.14755727857E+03  0.77426151924E+02 0.  0.
         25    2    1    2    0    0  0.23508625422E+02  0.64036434457E+02  0.42188175155E+03  0.44529282639E+03  0.12509263979E+03 0.  0.
        -24    2    1    2    0    0  0.96502002717E+02 -0.42468453709E+02  0.20974125641E+04  0.21016194206E+04  0.80922919235E+02 0.  0.
        -13    1    3    3    0    0 -0.63873776766E+02 -0.27083444754E+02  0.19850016539E+02  0.72162285820E+02  0.00000000000E+00 0.  1.
         14    1    3    3    0    0 -0.56136851372E+02  0.55154640070E+01 -0.50026378108E+02  0.75394992751E+02  0.00000000000E+00 0. -1.
         11    1    5    5    0    0  0.27180026565E+02 -0.45886318100E+02  0.53139402625E+03  0.53406359094E+03  0.00000000000E+00 0. -1.
        -12    1    5    5    0    0  0.69321976152E+02  0.34178643901E+01  0.15660185378E+04  0.15675558296E+04  0.00000000000E+00 0.  1.
          5    1    4    4  501    0  0.85160663576E+01  0.10041860940E+03  0.26644251938E+03  0.28489561077E+03  0.41800000000E+01 0. -1.
         -5    1    4    4    0  501  0.14992559064E+02 -0.36382174940E+02  0.15543923217E+03  0.16039721562E+03  0.41800000000E+01 0. -1.
</event>
<event>
11    1  0.8299058E-009  0.1682531E+03  0.7561462E-02  0.1079562E+00
         22   -1    0    0    0    0  0.00000000000E+00  0.00000000000E+00  0.22416187482E+04  0.22416187482E+04  0.00000000000E+00 0.  1.
         22   -1    0    0    0    0 -0.00000000000E+00 -0.00000000000E+00 -0.41145185916E+03  0.41145185916E+03  0.00000000000E+00 0. -1.
        -24    2    1    2    0    0 -0.78008117981E+02  0.79497696744E+02 -0.31591611131E+03  0.34398738675E+03  0.78225204369E+02 0.  0.
         25    2    1    2    0    0  0.13038022423E+03 -0.38894848305E+02  0.26254277930E+02  0.18666998318E+03  0.12507830913E+03 0.  0.
         24    2    1    2    0    0 -0.52372106245E+02 -0.40602848439E+02  0.21198287224E+04  0.21224132374E+04  0.81072246948E+02 0.  0.
        -11    1    5    5    0    0 -0.65315403550E+01 -0.25642300163E+02  0.16304296984E+04  0.16306444094E+04  0.00000000000E+00 0.  1.
         12    1    5    5    0    0 -0.45840565890E+02 -0.14960548275E+02  0.48939902398E+03  0.49176882797E+03  0.00000000000E+00 0. -1.
         13    1    3    3    0    0 -0.71896309589E+02  0.93614207439E+02 -0.25242613547E+03  0.27866046192E+03  0.00000000000E+00 0. -1.
        -14    1    3    3    0    0 -0.61118083928E+01 -0.14116510695E+02 -0.63489975836E+02  0.65326924830E+02  0.00000000000E+00 0.  1.
          5    1    4    4  501    0  0.14602442650E+03 -0.43138539910E+02 -0.36889559379E+01  0.15236517830E+03  0.41800000000E+01 0.  1.
         -5    1    4    4    0  501 -0.15644202278E+02  0.42436916048E+01  0.29943233868E+02  0.34304804880E+02  0.41800000000E+01 0.  1.
</event>
<event>
11    1  0.8299058E-009  0.1625204E+03  0.7561462E-02  0.1084730E+00
         22   -1    0    0    0    0  0.00000000000E+00  0.00000000000E+00  0.24814156946E+03  0.24814156946E+03  0.00000000000E+00 0.  1.
         22   -1    0    0    0    0 -0.00000000000E+00 -0.00000000000E+00 -0.77236520755E+03  0.77236520755E+03  0.00000000000E+00 0. -1.
         24    2    1    2    0    0  0.16743927327E+02  0.36058957916E+02 -0.50417268953E+03  0.51208325928E+03  0.80365141846E+02 0.  0.
         25    2    1    2    0    0  0.55644928025E+01  0.68324638599E+02 -0.22301433218E+03  0.26473051291E+03  0.12509049639E+03 0.  0.
        -24    2    1    2    0    0 -0.22308420130E+02 -0.10438359652E+03  0.20296338362E+03  0.24369300483E+03  0.82453287862E+02 0.  0.
        -13    1    3    3    0    0  0.42606899718E+02  0.49779096738E+01 -0.16405555821E+03  0.16957108736E+03  0.00000000000E+00 0.  1.
         14    1    3    3    0    0 -0.25862972391E+02  0.31081048243E+02 -0.34011713132E+03  0.34251217192E+03  0.00000000000E+00 0. -1.
         11    1    5    5    0    0 -0.92130437350E+01 -0.58927341640E+02  0.34910244615E+02  0.69108877481E+02  0.00000000000E+00 0. -1.
        -12    1    5    5    0    0 -0.13095376395E+02 -0.45456254875E+02  0.16805313901E+03  0.17458412734E+03  0.00000000000E+00 0.  1.
          5    1    4    4  501    0  0.54017104576E+02  0.60627271514E+02 -0.82472797560E+02  0.11581342053E+03  0.41800000000E+01 0.  1.
         -5    1    4    4    0  501 -0.48452611774E+02  0.76973670847E+01 -0.14054153462E+03  0.14891709237E+03  0.41800000000E+01 0.  1.
</event>
<event>
11    1  0.8299058E-009  0.1557035E+03  0.7561462E-02  0.1091189E+00
         22   -1    0    0    0    0  0.00000000000E+00  0.00000000000E+00  0.84556953538E+03  0.84556953538E+03  0.00000000000E+00 0.  1.
         22   -1    0    0    0    0 -0.00000000000E+00 -0.00000000000E+00 -0.31322414177E+03  0.31322414177E+03  0.00000000000E+00 0.  1.
        -24    2    1    2    0    0  0.38855537855E+02 -0.89973117297E+02 -0.24391282075E+03  0.27378401876E+03  0.76546130817E+02 0.  0.
         25    2    1    2    0    0 -0.30486887093E+01  0.62462589926E+02  0.44150810649E+02  0.14665674137E+03  0.12509211032E+03 0.  0.
         24    2    1    2    0    0 -0.35806849145E+02  0.27510527371E+02  0.73210740372E+03  0.73835291703E+03  0.84527036753E+02 0.  0.
        -13    1    5    5    0    0  0.16657183233E+02  0.38730791285E+02  0.32980628874E+03  0.33249018638E+03  0.00000000000E+00 0.  1.
         14    1    5    5    0    0 -0.52464032378E+02 -0.11220263915E+02  0.40230111498E+03  0.40586273065E+03  0.00000000000E+00 0. -1.
         13    1    3    3    0    0 -0.18418683854E+02 -0.17195488427E+02 -0.96151817371E+02  0.99398715891E+02  0.00000000000E+00 0. -1.
        -14    1    3    3    0    0  0.57274221709E+02 -0.72777628870E+02 -0.14776100338E+03  0.17438530287E+03  0.00000000000E+00 0.  1.
          5    1    4    4  501    0  0.44160086394E+02  0.13519830850E+02  0.60855496789E+02  0.76509887896E+02  0.41800000000E+01 0. -1.
         -5    1    4    4    0  501 -0.47208775103E+02  0.48942759076E+02 -0.16704686139E+02  0.70146853470E+02  0.41800000000E+01 0. -1.
</event>
<event>
11    1  0.8299058E-009  0.1699711E+03  0.7561462E-02  0.1078057E+00
         22   -1    0    0    0    0  0.00000000000E+00  0.00000000000E+00  0.21352022487E+03  0.21352022487E+03  0.00000000000E+00 0. -1.
         22   -1    0    0    0    0 -0.00000000000E+00 -0.00000000000E+00 -0.64898397117E+03  0.64898397117E+03  0.00000000000E+00 0. -1.
         24    2    1    2    0    0  0.46784650486E+02 -0.65277825566E+02 -0.37207978976E+03  0.38934477105E+03  0.81828984873E+02 0.  0.
         25    2    1    2    0    0  0.68211907492E+02  0.25477205768E+02 -0.21906481179E+03  0.26256205281E+03  0.12508991755E+03 0.  0.
        -24    2    1    2    0    0 -0.11499655798E+03  0.39800619798E+02  0.15568085525E+03  0.21059737218E+03  0.72845224937E+02 0.  0.
        -11    1    3    3    0    0  0.49922984134E+02 -0.29341921174E+02 -0.10560495439E+03  0.12043944153E+03  0.00000000000E+00 0.  1.
         12    1    3    3    0    0 -0.31383336482E+01 -0.35935904392E+02 -0.26647483537E+03  0.26890532952E+03  0.00000000000E+00 0. -1.
         13    1    5    5    0    0 -0.49718325555E+02  0.41898837942E+02  0.11922081003E+03  0.13579773953E+03  0.00000000000E+00 0. -1.
        -14    1    5    5    0    0 -0.65278232423E+02 -0.20982181440E+01  0.36460045216E+02  0.74799632652E+02  0.00000000000E+00 0.  1.
          5    1    4    4  501    0 -0.23782181802E+02  0.43460364021E+02 -0.60406709361E+02  0.78235786875E+02  0.41800000000E+01 0. -1.
         -5    1    4    4    0  501  0.91994089293E+02 -0.17983158254E+02 -0.15865810243E+03  0.18432626593E+03  0.41800000000E+01 0. -1.
</event>
<event>
11    1  0.8299058E-009  0.1425069E+03  0.7561462E-02  0.1104791E+00
         22   -1    0    0    0    0  0.00000000000E+00  0.00000000000E+00  0.19741502261E+03  0.19741502261E+03  0.00000000000E+00 0. -1.
         22   -1    0    0    0    0 -0.00000000000E+00 -0.00000000000E+00 -0.11234803122E+04  0.11234803122E+04  0.00000000000E+00 0.  1.
         24    2    1    2    0    0  0.66171808817E+01  0.41311536138E+02 -0.99457897243E+03  0.99874382942E+03  0.80941178048E+02 0.  0.
         25    2    1    2    0    0 -0.57109950922E+02 -0.79867517908E+02 -0.48831808271E+02  0.16635052681E+03  0.12509030881E+03 0.  0.
        -24    2    1    2    0    0  0.50492770040E+02  0.38555981770E+02  0.11734549112E+03  0.15580097858E+03  0.80423237211E+02 0.  0.
        -13    1    3    3    0    0  0.85871807122E+01  0.43161324027E+02 -0.99503123130E+03  0.99600391105E+03  0.00000000000E+00 0.  1.
         14    1    3    3    0    0 -0.19699998305E+01 -0.18497878892E+01  0.45225887351E+00  0.27399183666E+01  0.00000000000E+00 0. -1.
         13    1    5    5    0    0  0.48618827300E+02  0.44322757664E+02  0.12778600601E+03  0.14372738273E+03  0.00000000000E+00 0. -1.
        -14    1    5    5    0    0  0.18739427399E+01 -0.57667758942E+01 -0.10440514888E+02  0.12073595849E+02  0.00000000000E+00 0.  1.
          5    1    4    4  501    0 -0.31570746454E+02  0.10409723703E+02 -0.63018840377E+02  0.71371710234E+02  0.41800000000E+01 0.  1.
         -5    1    4    4    0  501 -0.25539204468E+02 -0.90277241611E+02  0.14187032106E+02  0.94978816574E+02  0.41800000000E+01 0.  1.
</event>
<event>
11    1  0.8299058E-009  0.3604950E+03  0.7561462E-02  0.9774096E-01
         22   -1    0    0    0    0  0.00000000000E+00  0.00000000000E+00  0.10747438443E+04  0.10747438443E+04  0.00000000000E+00 0. -1.
         22   -1    0    0    0    0 -0.00000000000E+00 -0.00000000000E+00 -0.21558291949E+04  0.21558291949E+04  0.00000000000E+00 0.  1.
        -24    2    1    2    0    0  0.33118007931E+03 -0.61541798646E+02 -0.20681207721E+04  0.20969567681E+04  0.81464847449E+02 0.  0.
         25    2    1    2    0    0 -0.40386483637E+03  0.11719858365E+02  0.64494633204E+03  0.77126356422E+03  0.12509018005E+03 0.  0.
         24    2    1    2    0    0  0.72684757061E+02  0.49821940281E+02  0.34208908944E+03  0.36235270686E+03  0.80679857548E+02 0.  0.
        -13    1    5    5    0    0  0.23043670093E+01 -0.15538468086E+02  0.16040261392E+02  0.22450926112E+02  0.00000000000E+00 0.  1.
         14    1    5    5    0    0  0.70380390052E+02  0.65360408366E+02  0.32604882805E+03  0.33990178075E+03  0.00000000000E+00 0. -1.
         11    1    3    3    0    0  0.12046150197E+02  0.71278555711E+01 -0.20319464234E+03  0.20367616143E+03  0.00000000000E+00 0. -1.
        -12    1    3    3    0    0  0.31913392911E+03 -0.68669654217E+02 -0.18649261298E+04  0.18932806067E+04  0.00000000000E+00 0.  1.
          5    1    4    4  501    0 -0.65179607613E+02  0.47293152057E+02  0.15270473704E+03  0.17268825262E+03  0.41800000000E+01 0. -1.
         -5    1    4    4    0  501 -0.33868522876E+03 -0.35573293692E+02  0.49224159500E+03  0.59857531159E+03  0.41800000000E+01 0. -1.
</event>
<event>
11    1  0.8299058E-009  0.1390923E+03  0.7561462E-02  0.1108576E+00
         22   -1    0    0    0    0  0.00000000000E+00  0.00000000000E+00  0.29321212098E+03  0.29321212098E+03  0.00000000000E+00 0. -1.
         22   -1    0    0    0    0 -0.00000000000E+00 -0.00000000000E+00 -0.75562609584E+03  0.75562609584E+03  0.00000000000E+00 0. -1.
        -24    2    1    2    0    0  0.33797314843E+01  0.62491315350E+02 -0.66789156811E+03  0.67529422129E+03  0.77630866706E+02 0.  0.
         25    2    1    2    0    0  0.28063789005E+02 -0.34130892148E+02 -0.16745312404E+02  0.13371702195E+03  0.12508933775E+03 0.  0.
         24    2    1    2    0    0 -0.31443520489E+02 -0.28360423202E+02  0.22222290567E+03  0.23982697359E+03  0.79630075179E+02 0.  0.
        -11    1    5    5    0    0 -0.47611636399E+02  0.98997491480E+01  0.11718578249E+03  0.12687545299E+03  0.00000000000E+00 0.  1.
         12    1    5    5    0    0  0.16168115909E+02 -0.38260172350E+02  0.10503712318E+03  0.11295152060E+03  0.00000000000E+00 0. -1.
         11    1    3    3    0    0  0.79981868972E+01  0.12406421907E+02 -0.49537935103E+03  0.49559922490E+03  0.00000000000E+00 0. -1.
        -12    1    3    3    0    0 -0.46184554129E+01  0.50084893444E+02 -0.17251221708E+03  0.17969499638E+03  0.00000000000E+00 0.  1.
          5    1    4    4  501    0  0.42211471474E+02  0.38133091929E+02  0.37681171492E+01  0.57163031155E+02  0.41800000000E+01 0. -1.
         -5    1    4    4    0  501 -0.14147682469E+02 -0.72263984077E+02 -0.20513429554E+02  0.76553990790E+02  0.41800000000E+01 0. -1.
</event>
<event>
11    1  0.8299058E-009  0.1341194E+03  0.7561462E-02  0.1114309E+00
         22   -1    0    0    0    0  0.00000000000E+00  0.00000000000E+00  0.11553275943E+04  0.11553275943E+04  0.00000000000E+00 0. -1.
         22   -1    0    0    0    0 -0.00000000000E+00 -0.00000000000E+00 -0.34294518361E+03  0.34294518361E+03  0.00000000000E+00 0. -1.
        -24    2    1    2    0    0  0.47847328322E+02 -0.82390105058E+01 -0.32143490525E+03  0.33491789232E+03  0.80575108847E+02 0.  0.
         25    2    1    2    0    0 -0.38782337495E+02  0.83359701995E+01  0.32470401949E+03  0.35021985291E+03  0.12509071507E+03 0.  0.
         24    2    1    2    0    0 -0.90649908267E+01 -0.96959693650E-01  0.80911329641E+03  0.81313503265E+03  0.80262515710E+02 0.  0.
        -13    1    5    5    0    0 -0.22922260712E+02 -0.35641889151E+02  0.45730340767E+03  0.45926264922E+03  0.00000000000E+00 0.  1.
         14    1    5    5    0    0  0.13857269886E+02  0.35544929457E+02  0.35180988874E+03  0.35387238343E+03  0.00000000000E+00 0. -1.
         11    1    3    3    0    0  0.18226226764E+02  0.28045876443E+02 -0.22757034446E+03  0.23001527820E+03  0.00000000000E+00 0. -1.
        -12    1    3    3    0    0  0.29621101558E+02 -0.36284886949E+02 -0.93864560788E+02  0.10490261412E+03  0.00000000000E+00 0.  1.
          5    1    4    4  501    0  0.37693438239E+00 -0.24855243358E+02  0.41399687675E+01  0.25544802668E+02  0.41800000000E+01 0.  1.
         -5    1    4    4    0  501 -0.39159271877E+02  0.33191213558E+02  0.32056405072E+03  0.32467505024E+03  0.41800000000E+01 0.  1.
</event>
<event>
11    1  0.8299058E-009  0.1490149E+03  0.7561462E-02  0.1097890E+00
         22   -1    0    0    0    0  0.00000000000E+00  0.00000000000E+00  0.93429087372E+03  0.93429087372E+03  0.00000000000E+00 0.  1.
         22   -1    0    0    0    0 -0.00000000000E+00 -0.00000000000E+00 -0.12490352099E+04  0.12490352099E+04  0.00000000000E+00 0.  1.
         24    2    1    2    0    0  0.27738126864E+02 -0.73030383234E+02 -0.10840779552E+04  0.10897944994E+04  0.79524821949E+02 0.  0.
         25    2    1    2    0    0 -0.33977326399E+02  0.13048609687E+03 -0.10621900947E+03  0.21239350472E+03  0.12508973855E+03 0.  0.
        -24    2    1    2    0    0  0.62391995358E+01 -0.57455713632E+02  0.87555262855E+03  0.88113807949E+03  0.80447642124E+02 0.  0.
        -13    1    3    3    0    0  0.12163615225E+02 -0.58382444253E+02 -0.10287815301E+04  0.10305085637E+04  0.00000000000E+00 0.  1.
         14    1    3    3    0    0  0.15574511639E+02 -0.14647938982E+02 -0.55296425185E+02  0.59285935663E+02  0.00000000000E+00 0. -1.
         13    1    5    5    0    0  0.30938893147E+02 -0.36491917304E+02  0.23789491972E+03  0.24265792376E+03  0.00000000000E+00 0. -1.
        -14    1    5    5    0    0 -0.24699693611E+02 -0.20963796328E+02  0.63765770883E+03  0.63848015572E+03  0.00000000000E+00 0.  1.
          5    1    4    4  501    0 -0.51852307475E+02  0.68345706090E+01 -0.58517218613E+02  0.78594595362E+02  0.41800000000E+01 0.  1.
         -5    1    4    4    0  501  0.17874981075E+02  0.12365152626E+03 -0.47701790858E+02  0.13379890936E+03  0.41800000000E+01 0.  1.
</event>
<event>
11    1  0.8299058E-009  0.4820663E+03  0.7561462E-02  0.9434512E-01
         22   -1    0    0    0    0  0.00000000000E+00  0.00000000000E+00  0.55243144361E+03  0.55243144361E+03  0.00000000000E+00 0. -1.
         22   -1    0    0    0    0 -0.00000000000E+00 -0.00000000000E+00 -0.67705609600E+03  0.67705609600E+03  0.00000000000E+00 0.  1.
        -24    2    1    2    0    0 -0.17267265542E+02  0.13903696044E+02 -0.28863470277E+02  0.88545198564E+02  0.80719768640E+02 0.  0.
         25    2    1    2    0    0  0.46934122979E+03 -0.10483125187E+03 -0.35017106383E+03  0.60788773000E+03  0.12504773883E+03 0.  0.
         24    2    1    2    0    0 -0.45207396425E+03  0.90927555827E+02  0.25440988172E+03  0.53305461105E+03  0.82365896394E+02 0.  0.
        -11    1    5    5    0    0 -0.22727371055E+03  0.68496488652E+02  0.90925322816E+02  0.25418993448E+03  0.00000000000E+00 0.  1.
         12    1    5    5    0    0 -0.22480025370E+03  0.22431067174E+02  0.16348455890E+03  0.27886467657E+03  0.00000000000E+00 0. -1.
         13    1    3    3    0    0 -0.33875500733E+02  0.76139237406E+01 -0.50041062721E+02  0.60906726582E+02  0.00000000000E+00 0. -1.
        -14    1    3    3    0    0  0.16608235191E+02  0.62897723037E+01  0.21177592444E+02  0.27638471982E+02  0.00000000000E+00 0.  1.
          5    1    4    4  501    0  0.27699301683E+03 -0.11872631909E+03 -0.24347072112E+03  0.38744875101E+03  0.41800000000E+01 0.  1.
         -5    1    4    4    0  501  0.19234821296E+03  0.13895067221E+02 -0.10670034271E+03  0.22043897899E+03  0.41800000000E+01 0.  1.
</event>
<event>
11    1  0.8299058E-009  0.1442947E+03  0.7561462E-02  0.1102855E+00
         22   -1    0    0    0    0  0.00000000000E+00  0.00000000000E+00  0.89045684768E+02  0.89045684768E+02  0.00000000000E+00 0. -1.
         22   -1    0    0    0    0 -0.00000000000E+00 -0.00000000000E+00 -0.12386401574E+04  0.12386401574E+04  0.00000000000E+00 0. -1.
        -24    2    1    2    0    0 -0.70936023510E+02  0.15195988667E+02 -0.98891363055E+03  0.99469814348E+03  0.78812375019E+02 0.  0.
         25    2    1    2    0    0  0.63750084856E+02 -0.22024077615E+02 -0.19821662907E+03  0.24389976470E+03  0.12509248525E+03 0.  0.
         24    2    1    2    0    0  0.71859386539E+01  0.68280889476E+01  0.37535786974E+02  0.89087934002E+02  0.80183939588E+02 0.  0.
        -11    1    5    5    0    0  0.10111521415E+02  0.43167055911E+02  0.20264960330E+02  0.48747371196E+02  0.00000000000E+00 0.  1.
         12    1    5    5    0    0 -0.29255827607E+01 -0.36338966964E+02  0.17270826645E+02  0.40340562806E+02  0.00000000000E+00 0. -1.
         13    1    3    3    0    0 -0.12213488151E+02  0.40437377849E+02 -0.46031044804E+03  0.46224458828E+03  0.00000000000E+00 0. -1.
        -14    1    3    3    0    0 -0.58722535359E+02 -0.25241389181E+02 -0.52860318251E+03  0.53245355520E+03  0.00000000000E+00 0.  1.
          5    1    4    4  501    0  0.10224334214E+02 -0.89166434608E+01  0.16742158344E+02  0.21950303113E+02  0.41800000000E+01 0.  1.
         -5    1    4    4    0  501  0.53525750642E+02 -0.13107434154E+02 -0.21495878742E+03  0.22194946159E+03  0.41800000000E+01 0.  1.
</event>
<event>
11    1  0.8299058E-009  0.2972215E+03  0.7561462E-02  0.1001374E+00
         22   -1    0    0    0    0  0.00000000000E+00  0.00000000000E+00  0.73867007076E+03  0.73867007076E+03  0.00000000000E+00 0. -1.
         22   -1    0    0    0    0 -0.00000000000E+00 -0.00000000000E+00 -0.19062394843E+03  0.19062394843E+03  0.00000000000E+00 0. -1.
         24    2    1    2    0    0 -0.22640923040E+03  0.13511640321E+03  0.81439135850E+02  0.28708089784E+03  0.79155082143E+02 0.  0.
         25    2    1    2    0    0  0.25134839118E+03 -0.12245439660E+03  0.20921660035E+03  0.37093124679E+03  0.12508921210E+03 0.  0.
        -24    2    1    2    0    0 -0.24939160788E+02 -0.12662006617E+02  0.25739038612E+03  0.27128187456E+03  0.81004669278E+02 0.  0.
        -11    1    3    3    0    0 -0.93616272355E+02  0.12966092545E+02  0.21169299257E+02  0.96851769404E+02  0.00000000000E+00 0.  1.
         12    1    3    3    0    0 -0.13279295804E+03  0.12215031067E+03  0.60269836594E+02  0.19022912843E+03  0.00000000000E+00 0. -1.
         11    1    5    5    0    0 -0.10165427828E+02  0.32728302030E+02  0.70449116108E+02  0.78342553169E+02  0.00000000000E+00 0. -1.
        -12    1    5    5    0    0 -0.14773732961E+02 -0.45390308646E+02  0.18694127002E+03  0.19293932139E+03  0.00000000000E+00 0.  1.
          5    1    4    4  501    0  0.21872744852E+03 -0.59707933974E+02  0.11860408854E+03  0.25591236065E+03  0.41800000000E+01 0. -1.
         -5    1    4    4    0  501  0.32620942666E+02 -0.62746462623E+02  0.90612511809E+02  0.11501888614E+03  0.41800000000E+01 0. -1.
</event>
<event>
11    1  0.8299058E-009  0.1421768E+03  0.7561462E-02  0.1105152E+00
         22   -1    0    0    0    0  0.00000000000E+00  0.00000000000E+00  0.11253328136E+04  0.11253328136E+04  0.00000000000E+00 0. -1.
         22   -1    0    0    0    0 -0.00000000000E+00 -0.00000000000E+00 -0.12592595628E+04  0.12592595628E+04  0.00000000000E+00 0. -1.
        -24    2    1    2    0    0  0.22250191092E+02 -0.23091864216E+02 -0.10746005614E+04  0.10780520422E+04  0.80009586678E+02 0.  0.
         25    2    1    2    0    0  0.45535892510E+02  0.26330955546E+02 -0.15492255308E+03  0.20595041259E+03  0.12509092001E+03 0.  0.
         24    2    1    2    0    0 -0.67786083602E+02 -0.32390913298E+01  0.10955963653E+04  0.11005899216E+04  0.79757978390E+02 0.  0.
        -13    1    5    5    0    0 -0.13031039363E+02 -0.24438670440E+02  0.11698700646E+03  0.12022069822E+03  0.00000000000E+00 0.  1.
         14    1    5    5    0    0 -0.54755044239E+02  0.21199579111E+02  0.97860935885E+03  0.98036922343E+03  0.00000000000E+00 0. -1.
         13    1    3    3    0    0 -0.12115269515E+02  0.14381184722E+02 -0.67072658710E+03  0.67099012874E+03  0.00000000000E+00 0. -1.
        -14    1    3    3    0    0  0.34365460608E+02 -0.37473048939E+02 -0.40387397433E+03  0.40706191350E+03  0.00000000000E+00 0.  1.
          5    1    4    4  501    0  0.64430366208E+02 -0.32939189231E+02 -0.71609685591E+02  0.10189053807E+03  0.41800000000E+01 0. -1.
         -5    1    4    4    0  501 -0.18894473698E+02  0.59270144777E+02 -0.83312867486E+02  0.10405987453E+03  0.41800000000E+01 0. -1.
</event>
<event>
11    1  0.8299058E-009  0.2209481E+03  0.7561462E-02  0.1040625E+00
         22   -1    0    0    0    0  0.00000000000E+00  0.00000000000E+00  0.95929372128E+03  0.95929372128E+03  0.00000000000E+00 0.  1.
         22   -1    0    0    0    0 -0.00000000000E+00 -0.00000000000E+00 -0.90907099396E+03  0.90907099396E+03  0.00000000000E+00 0.  1.
         24    2    1    2    0    0 -0.17254057590E+03 -0.42058666657E+02 -0.77321751562E+03  0.79749396057E+03  0.81191803225E+02 0.  0.
         25    2    1    2    0    0  0.28868684260E+03 -0.64156782369E+02  0.11624158705E+03  0.34149039702E+03  0.12508956343E+03 0.  0.
        -24    2    1    2    0    0 -0.11614626670E+03  0.10621544903E+03  0.70719865589E+03  0.72938035766E+03  0.84226423185E+02 0.  0.
        -13    1    3    3    0    0 -0.17891284497E+03 -0.45322927708E+02 -0.76308144426E+03  0.78508424035E+03  0.00000000000E+00 0.  1.
         14    1    3    3    0    0  0.63722690708E+01  0.32642610507E+01 -0.10136071358E+02  0.12409720218E+02  0.00000000000E+00 0. -1.
         13    1    5    5    0    0 -0.38669347069E+01  0.12122695732E+02  0.80676405382E+01  0.15066511198E+02  0.00000000000E+00 0. -1.
        -14    1    5    5    0    0 -0.11227933199E+03  0.94092753294E+02  0.69913101535E+03  0.71431384646E+03  0.00000000000E+00 0.  1.
          5    1    4    4  501    0  0.16436701450E+03 -0.41177239640E+02  0.13088537139E+03  0.21415072581E+03  0.41800000000E+01 0. -1.
         -5    1    4    4    0  501  0.12431982810E+03 -0.22979542729E+02 -0.14643784342E+02  0.12733967121E+03  0.41800000000E+01 0. -1.
</event>
<event>
11    1  0.8299058E-009  0.1328895E+03  0.7561462E-02  0.1115769E+00
         22   -1    0    0    0    0  0.00000000000E+00  0.00000000000E+00  0.56642022840E+03  0.56642022840E+03  0.00000000000E+00 0. -1.
         22   -1    0    0    0    0 -0.00000000000E+00 -0.00000000000E+00 -0.67768778795E+02  0.67768778795E+02  0.00000000000E+00 0. -1.
        -24    2    1    2    0    0  0.30449736880E+02  0.34273863883E+02  0.93986446094E+01  0.92730615821E+02  0.80054658631E+02 0.  0.
         25    2    1    2    0    0 -0.19746682572E+02 -0.36733009506E+02  0.19149227450E+03  0.23249842944E+03  0.12508790125E+03 0.  0.
         24    2    1    2    0    0 -0.10703054308E+02  0.24591456234E+01  0.29776053050E+03  0.30895996194E+03  0.81696522496E+02 0.  0.
        -13    1    5    5    0    0 -0.66056408898E+01  0.34237347053E+02  0.62852069833E+02  0.71876373776E+02  0.00000000000E+00 0.  1.
         14    1    5    5    0    0 -0.40974134185E+01 -0.31778201430E+02  0.23490846066E+03  0.23708358816E+03  0.00000000000E+00 0. -1.
         11    1    3    3    0    0  0.34873404068E+02  0.38902674517E+02 -0.24874450952E+02  0.57864589396E+02  0.00000000000E+00 0. -1.
        -12    1    3    3    0    0 -0.44236671882E+01 -0.46288106342E+01  0.34273095561E+02  0.34866026424E+02  0.00000000000E+00 0.  1.
          5    1    4    4  501    0 -0.56623196959E+02 -0.44611328144E+02  0.54823107016E+02  0.90660920443E+02  0.41800000000E+01 0. -1.
         -5    1    4    4    0  501  0.36876514387E+02  0.78783186383E+01  0.13666916748E+03  0.14183750899E+03  0.41800000000E+01 0. -1.
</event>
<event>
11    1  0.8299058E-009  0.1820065E+03  0.7561462E-02  0.1068031E+00
         22   -1    0    0    0    0  0.00000000000E+00  0.00000000000E+00  0.24792699519E+04  0.24792699519E+04  0.00000000000E+00 0. -1.
         22   -1    0    0    0    0 -0.00000000000E+00 -0.00000000000E+00 -0.61817379895E+03  0.61817379895E+03  0.00000000000E+00 0.  1.
         24    2    1    2    0    0 -0.45354238414E+02 -0.12383919312E+03 -0.54502192404E+03  0.56622399168E+03  0.78533804094E+02 0.  0.
         25    2    1    2    0    0  0.30802982268E+02  0.13399718442E+03  0.77711789296E+02  0.20147068441E+03  0.12508894968E+03 0.  0.
        -24    2    1    2    0    0  0.14551256146E+02 -0.10157991307E+02  0.23284062877E+04  0.23297490748E+04  0.77071310420E+02 0.  0.
        -13    1    3    3    0    0 -0.46861016771E+02 -0.78053476049E+02 -0.46663009336E+03  0.47542816917E+03  0.00000000000E+00 0.  1.
         14    1    3    3    0    0  0.15067783569E+01 -0.45785717069E+02 -0.78391830679E+02  0.90795822512E+02  0.00000000000E+00 0. -1.
         11    1    5    5    0    0 -0.31121685025E+02 -0.70633591191E+01  0.74910442849E+03  0.74978389894E+03  0.00000000000E+00 0. -1.
        -12    1    5    5    0    0  0.45672941171E+02 -0.30946321874E+01  0.15793018592E+04  0.15799651759E+04  0.00000000000E+00 0.  1.
          5    1    4    4  501    0 -0.44354639285E+02  0.39795730668E+02  0.49625482841E+02  0.77660769715E+02  0.41800000000E+01 0. -1.
         -5    1    4    4    0  501  0.75157621553E+02  0.94201453756E+02  0.28086306455E+02  0.12380991470E+03  0.41800000000E+01 0. -1.
</event>
<event>
11    1  0.8299058E-009  0.1379783E+03  0.7561462E-02  0.1109837E+00
         22   -1    0    0    0    0  0.00000000000E+00  0.00000000000E+00  0.20306173331E+04  0.20306173331E+04  0.00000000000E+00 0.  1.
         22   -1    0    0    0    0 -0.00000000000E+00 -0.00000000000E+00 -0.70501843431E+03  0.70501843431E+03  0.00000000000E+00 0. -1.
        -24    2    1    2    0    0 -0.11170211011E+02  0.41054555328E+02 -0.57856896467E+03  0.58611250141E+03  0.83519861708E+02 0.  0.
         25    2    1    2    0    0  0.26590057367E+02  0.15538024003E+02 -0.87032881400E+02  0.15546867382E+03  0.12508926714E+03 0.  0.
         24    2    1    2    0    0 -0.15419846356E+02 -0.56592579331E+02  0.19912007449E+04  0.19940545922E+04  0.89066371716E+02 0.  0.
        -13    1    5    5    0    0  0.23826511438E+02 -0.62429435053E+02  0.11982166604E+04  0.12000784568E+04  0.00000000000E+00 0.  1.
         14    1    5    5    0    0 -0.39246357794E+02  0.58368557223E+01  0.79298408441E+03  0.79397613542E+03  0.00000000000E+00 0. -1.
         11    1    3    3    0    0 -0.19656677805E+02  0.58048856587E+02 -0.53606537286E+03  0.53955735443E+03  0.00000000000E+00 0. -1.
        -12    1    3    3    0    0  0.84864667947E+01 -0.16994301259E+02 -0.42503591811E+02  0.46555146985E+02  0.00000000000E+00 0.  1.
          5    1    4    4  501    0 -0.37585836283E+02 -0.30512243828E+02 -0.43300074726E+02  0.65085028877E+02  0.41800000000E+01 0.  1.
         -5    1    4    4    0  501  0.64175893650E+02  0.46050267831E+02 -0.43732806674E+02  0.90383644940E+02  0.41800000000E+01 0.  1.
</event>
<event>
11    1  0.8299058E-009  0.1738984E+03  0.7561462E-02  0.1074688E+00
         22   -1    0    0    0    0  0.00000000000E+00  0.00000000000E+00  0.76285920052E+03  0.76285920052E+03  0.00000000000E+00 0. -1.
         22   -1    0    0    0    0 -0.00000000000E+00 -0.00000000000E+00 -0.58221446486E+03  0.58221446486E+03  0.00000000000E+00 0.  1.
         24    2    1    2    0    0 -0.59071381541E+02 -0.94629468505E+02 -0.30376792048E+03  0.33289704399E+03  0.78110997685E+02 0.  0.
         25    2    1    2    0    0  0.10323386089E+03  0.10290294015E+03 -0.22547935672E+03  0.29619741462E+03  0.12508286451E+03 0.  0.
        -24    2    1    2    0    0 -0.44162479347E+02 -0.82734716457E+01  0.70989201286E+03  0.71597920678E+03  0.81613600019E+02 0.  0.
        -13    1    3    3    0    0 -0.61451225119E+02 -0.10550099424E+03 -0.25294456041E+03  0.28086947769E+03  0.00000000000E+00 0.  1.
         14    1    3    3    0    0  0.23798435771E+01  0.10871525732E+02 -0.50823360065E+02  0.52027566304E+02  0.00000000000E+00 0. -1.
         11    1    5    5    0    0 -0.67445754250E+02  0.11988175445E+01  0.47992481749E+03  0.48464233964E+03  0.00000000000E+00 0. -1.
        -12    1    5    5    0    0  0.23283274903E+02 -0.94722891902E+01  0.22996719537E+03  0.23133686714E+03  0.00000000000E+00 0.  1.
          5    1    4    4  501    0  0.32955829244E+01 -0.23548709904E+02 -0.62239926657E+02  0.66758396290E+02  0.41800000000E+01 0.  1.
         -5    1    4    4    0  501  0.99938277964E+02  0.12645165005E+03 -0.16323943006E+03  0.22943901832E+03  0.41800000000E+01 0.  1.
</event>
<event>
11    1  0.8299058E-009  0.1659455E+03  0.7561462E-02  0.1081615E+00
         22   -1    0    0    0    0  0.00000000000E+00  0.00000000000E+00  0.75674237607E+03  0.75674237607E+03  0.00000000000E+00 0.  1.
         22   -1    0    0    0    0 -0.00000000000E+00 -0.00000000000E+00 -0.62630760561E+03  0.62630760561E+03  0.00000000000E+00 0. -1.
        -24    2    1    2    0    0 -0.35315246733E+02 -0.12240594136E+02 -0.58488403496E+03  0.59123797878E+03  0.77948793499E+02 0.  0.
         25    2    1    2    0    0 -0.14214813718E+01 -0.95945395832E+02  0.18381838187E+03  0.24216905937E+03  0.12509642765E+03 0.  0.
         24    2    1    2    0    0  0.36736728105E+02  0.10818598997E+03  0.53150042355E+03  0.54964294352E+03  0.80999194502E+02 0.  0.
        -11    1    5    5    0    0  0.30853019516E+01  0.10594663279E+03  0.38627504968E+03  0.40055289550E+03  0.00000000000E+00 0.  1.
         12    1    5    5    0    0  0.33651426153E+02  0.22393571744E+01  0.14522537388E+03  0.14909004803E+03  0.00000000000E+00 0. -1.
         13    1    3    3    0    0 -0.19401389755E+01  0.14600297136E+02 -0.43773538086E+03  0.43798310067E+03  0.00000000000E+00 0. -1.
        -14    1    3    3    0    0 -0.33375107757E+02 -0.26840891272E+02 -0.14714865410E+03  0.15325487811E+03  0.00000000000E+00 0.  1.
          5    1    4    4  501    0 -0.52275199658E+02 -0.88322158185E+02  0.97592196433E+02  0.14168701186E+03  0.41800000000E+01 0. -1.
         -5    1    4    4    0  501  0.50853718286E+02 -0.76232376476E+01  0.86226185436E+02  0.10048204750E+03  0.41800000000E+01 0. -1.
</event>
<event>
11    1  0.8299058E-009  0.1590241E+03  0.7561462E-02  0.1087999E+00
         22   -1    0    0    0    0  0.00000000000E+00  0.00000000000E+00  0.46508701387E+03  0.46508701387E+03  0.00000000000E+00 0.  1.
         22   -1    0    0    0    0 -0.00000000000E+00 -0.00000000000E+00 -0.10837725597E+04  0.10837725597E+04  0.00000000000E+00 0. -1.
         24    2    1    2    0    0  0.43756453132E+01  0.31085866110E+02 -0.29937920624E+03  0.31164147421E+03  0.80666114173E+02 0.  0.
         25    2    1    2    0    0  0.71531359648E+02 -0.93076225116E+02 -0.75981120694E+03  0.77893542864E+03  0.12508961873E+03 0.  0.
        -24    2    1    2    0    0 -0.75907004961E+02  0.61990359006E+02  0.44050486734E+03  0.45828267073E+03  0.79836020244E+02 0.  0.
        -11    1    3    3    0    0  0.18116186946E+02 -0.17813429280E+02 -0.40375573435E+02  0.47704312408E+02  0.00000000000E+00 0.  1.
         12    1    3    3    0    0 -0.13740541633E+02  0.48899295390E+02 -0.25900363281E+03  0.26393716181E+03  0.00000000000E+00 0. -1.
         11    1    5    5    0    0 -0.59631206093E+02  0.23355268051E+02  0.12955467713E+03  0.14451907713E+03  0.00000000000E+00 0. -1.
        -12    1    5    5    0    0 -0.16275798868E+02  0.38635090955E+02  0.31095019021E+03  0.31376359360E+03  0.00000000000E+00 0.  1.
          5    1    4    4  501    0  0.40938118562E+01 -0.71217647798E+02 -0.59764308322E+03  0.60189985875E+03  0.41800000000E+01 0.  1.
         -5    1    4    4    0  501  0.67437547791E+02 -0.21858577318E+02 -0.16216812372E+03  0.17703556989E+03  0.41800000000E+01 0.  1.
</event>
<event>
11    1  0.8299058E-009  0.1279354E+03  0.7561462E-02  0.1121832E+00
         22   -1    0    0    0    0  0.00000000000E+00  0.00000000000E+00  0.22559310312E+03  0.22559310312E+03  0.00000000000E+00 0.  1.
         22   -1    0    0    0    0 -0.00000000000E+00 -0.00000000000E+00 -0.23690528012E+04  0.23690528012E+04  0.00000000000E+00 0. -1.
        -24    2    1    2    0    0  0.25778760504E+02 -0.64024155955E+01 -0.20355727994E+04  0.20373627939E+04  0.81147992218E+02 0.  0.
         25    2    1    2    0    0 -0.42742249416E+01 -0.10622329319E+02 -0.31181121043E+03  0.33616417097E+03  0.12509602718E+03 0.  0.
         24    2    1    2    0    0 -0.21504535562E+02  0.17024744914E+02  0.20392431179E+03  0.22111893946E+03  0.80970201057E+02 0.  0.
        -13    1    5    5    0    0 -0.17684754663E+02  0.28458066920E+02  0.20615479943E+03  0.20885979376E+03  0.00000000000E+00 0.  1.
         14    1    5    5    0    0 -0.38197808991E+01 -0.11433322005E+02 -0.22304876409E+01  0.12259145701E+02  0.00000000000E+00 0. -1.
         13    1    3    3    0    0  0.53423378497E+02  0.81861057372E+01 -0.13316384121E+04  0.13327347561E+04  0.00000000000E+00 0. -1.
        -14    1    3    3    0    0 -0.27644617994E+02 -0.14588521333E+02 -0.70393438736E+03  0.70462803774E+03  0.00000000000E+00 0.  1.
          5    1    4    4  501    0 -0.28045208500E+02  0.28500207200E+02 -0.27316889777E+03  0.27611141707E+03  0.41800000000E+01 0. -1.
         -5    1    4    4    0  501  0.23770983558E+02 -0.39122536519E+02 -0.38642312665E+02  0.60052753901E+02  0.41800000000E+01 0. -1.
</event>
<event>
11    1  0.8299058E-009  0.1435838E+03  0.7561462E-02  0.1103621E+00
         22   -1    0    0    0    0  0.00000000000E+00  0.00000000000E+00  0.10620066449E+03  0.10620066449E+03  0.00000000000E+00 0.  1.
         22   -1    0    0    0    0 -0.00000000000E+00 -0.00000000000E+00 -0.12753333721E+04  0.12753333721E+04  0.00000000000E+00 0. -1.
         24    2    1    2    0    0 -0.44754246147E+02  0.48466989077E+02 -0.79274052114E+03  0.79956704446E+03  0.80733717590E+02 0.  0.
         25    2    1    2    0    0  0.32513283851E+02 -0.87493992443E+02 -0.44306450921E+03  0.46975097077E+03  0.12508997912E+03 0.  0.
        -24    2    1    2    0    0  0.12240962296E+02  0.39027003365E+02  0.66672322781E+02  0.11221602132E+03  0.80462964568E+02 0.  0.
        -13    1    3    3    0    0 -0.57563483498E+02  0.39140152363E+01 -0.46428692031E+03  0.46785811793E+03  0.00000000000E+00 0.  1.
         14    1    3    3    0    0  0.12809237352E+02  0.44552973841E+02 -0.32845360083E+03  0.33170892653E+03  0.00000000000E+00 0. -1.
         13    1    5    5    0    0 -0.22105644889E+02  0.47117990980E+02  0.25392797964E+02  0.57909919689E+02  0.00000000000E+00 0. -1.
        -14    1    5    5    0    0  0.34346607185E+02 -0.80909876144E+01  0.41279524817E+02  0.54306101635E+02  0.00000000000E+00 0.  1.
          5    1    4    4  501    0 -0.26766116523E+01 -0.11023699350E+03 -0.36137737748E+03  0.37784975895E+03  0.41800000000E+01 0.  1.
         -5    1    4    4    0  501  0.35189895504E+02  0.22743001062E+02 -0.81687131731E+02  0.91901211816E+02  0.41800000000E+01 0.  1.
</event>
<event>
11    1  0.8299058E-009  0.1747469E+03  0.7561462E-02  0.1073973E+00
         22   -1    0    0    0    0  0.00000000000E+00  0.00000000000E+00  0.99667017289E+03  0.99667017289E+03  0.00000000000E+00 0. -1.
         22   -1    0    0    0    0 -0.00000000000E+00 -0.00000000000E+00 -0.37582628902E+03  0.37582628902E+03  0.00000000000E+00 0. -1.
         24    2    1    2    0    0  0.77384055673E+02  0.87975436859E+02 -0.29219752382E+03  0.32445921711E+03  0.78526562904E+02 0.  0.
         25    2    1    2    0    0 -0.10018164136E+03 -0.14903922375E+03  0.12276311547E+03  0.25093281701E+03  0.12508974638E+03 0.  0.
        -24    2    1    2    0    0  0.22797585685E+02  0.61063786894E+02  0.79027829222E+03  0.79710442779E+03  0.81161405104E+02 0.  0.
        -13    1    3    3    0    0  0.48852064098E+02  0.76681495863E+02 -0.12557355497E+03  0.15503320187E+03  0.00000000000E+00 0.  1.
         14    1    3    3    0    0  0.28531991575E+02  0.11293940996E+02 -0.16662396885E+03  0.16942601524E+03  0.00000000000E+00 0. -1.
         11    1    5    5    0    0  0.52506458010E+02  0.32663348588E+02  0.41489526172E+03  0.41947812895E+03  0.00000000000E+00 0. -1.
        -12    1    5    5    0    0 -0.29708872325E+02  0.28400438305E+02  0.37538303050E+03  0.37762629884E+03  0.00000000000E+00 0.  1.
          5    1    4    4  501    0  0.23401515602E+02 -0.13695535487E+01  0.26450901935E+02  0.35589734792E+02  0.41800000000E+01 0.  1.
         -5    1    4    4    0  501 -0.12358315696E+03 -0.14766967020E+03  0.96312213535E+02  0.21534308222E+03  0.41800000000E+01 0.  1.
</event>
<event>
11    1  0.8299058E-009  0.1508396E+03  0.7561462E-02  0.1096024E+00
         22   -1    0    0    0    0  0.00000000000E+00  0.00000000000E+00  0.45141331680E+03  0.45141331680E+03  0.00000000000E+00 0. -1.
         22   -1    0    0    0    0 -0.00000000000E+00 -0.00000000000E+00 -0.43188611493E+03  0.43188611493E+03  0.00000000000E+00 0. -1.
         24    2    1    2    0    0 -0.24897887938E+01 -0.43099015262E+02 -0.35839174999E+03  0.37392418858E+03  0.97523987701E+02 0.  0.
         25    2    1    2    0    0 -0.77800058440E+02  0.96072025453E+01  0.42294369142E+02  0.15355557395E+03  0.12508138629E+03 0.  0.
        -24    2    1    2    0    0  0.80289847233E+02  0.33491812717E+02  0.33562458271E+03  0.35581966920E+03  0.79972591408E+02 0.  0.
        -11    1    3    3    0    0  0.21435484328E+02 -0.52489303975E+02 -0.10585456871E+03  0.12008245807E+03  0.00000000000E+00 0.  1.
         12    1    3    3    0    0 -0.23925273122E+02  0.93902887131E+01 -0.25253718128E+03  0.25384173051E+03  0.00000000000E+00 0. -1.
         11    1    5    5    0    0  0.94061486489E+02  0.36362027072E+02  0.25950031727E+03  0.27840649223E+03  0.00000000000E+00 0. -1.
        -12    1    5    5    0    0 -0.13771639255E+02 -0.28702143553E+01  0.76124265449E+02  0.77413176969E+02  0.00000000000E+00 0.  1.
          5    1    4    4  501    0  0.95131823966E+01 -0.14467375495E+02  0.58763772467E+02  0.61404062956E+02  0.41800000000E+01 0. -1.
         -5    1    4    4    0  501 -0.87313240836E+02  0.24074578040E+02 -0.16469403325E+02  0.92151510997E+02  0.41800000000E+01 0. -1.
</event>
<event>
11    1  0.8299058E-009  0.1777826E+03  0.7561462E-02  0.1071451E+00
         22   -1    0    0    0    0  0.00000000000E+00  0.00000000000E+00  0.15300213332E+04  0.15300213332E+04  0.00000000000E+00 0. -1.
         22   -1    0    0    0    0 -0.00000000000E+00 -0.00000000000E+00 -0.62830791433E+02  0.62830791433E+02  0.00000000000E+00 0. -1.
         24    2    1    2    0    0  0.18962798396E+02  0.57807399385E+02  0.22579545889E+02  0.10375200592E+03  0.80952823876E+02 0.  0.
         25    2    1    2    0    0  0.13258369927E+02 -0.16538507871E+03  0.65201972964E+03  0.68432819195E+03  0.12508931941E+03 0.  0.
        -24    2    1    2    0    0 -0.32221168323E+02  0.10757767932E+03  0.79259126628E+03  0.80477192680E+03  0.82739216842E+02 0.  0.
        -13    1    3    3    0    0 -0.82575954261E+01  0.14907385722E+02  0.45073980447E+02  0.48187983404E+02  0.00000000000E+00 0.  1.
         14    1    3    3    0    0  0.27220393822E+02  0.42900013663E+02 -0.22494434558E+02  0.55564022517E+02  0.00000000000E+00 0. -1.
         11    1    5    5    0    0  0.18502635216E+02  0.39346932634E+02  0.43701453943E+03  0.43917221712E+03  0.00000000000E+00 0. -1.
        -12    1    5    5    0    0 -0.50723803539E+02  0.68230746691E+02  0.35557672685E+03  0.36559970968E+03  0.00000000000E+00 0.  1.
          5    1    4    4  501    0  0.13588835861E+02 -0.16797866977E+03  0.65641908058E+03  0.67772042296E+03  0.41800000000E+01 0.  1.
         -5    1    4    4    0  501 -0.33046593413E+00  0.25935910568E+01 -0.43993509398E+01  0.66077689878E+01  0.41800000000E+01 0.  1.
</event>
<event>
11    1  0.8299058E-009  0.1420529E+03  0.7561462E-02  0.1105287E+00
         22   -1    0    0    0    0  0.00000000000E+00  0.00000000000E+00  0.29605920945E+04  0.29605920945E+04  0.00000000000E+00 0.  1.
         22   -1    0    0    0    0 -0.00000000000E+00 -0.00000000000E+00 -0.13535973975E+03  0.13535973975E+03  0.00000000000E+00 0.  1.
         24    2    1    2    0    0 -0.26678751420E+02 -0.68476552720E+02 -0.31187878243E+02  0.11344212469E+03  0.80595520065E+02 0.  0.
         25    2    1    2    0    0 -0.32484570194E+02  0.63797275505E+02  0.21318984786E+02  0.14569724710E+03  0.12509136276E+03 0.  0.
        -24    2    1    2    0    0  0.59163321615E+02  0.46792772141E+01  0.28351012482E+04  0.28368124625E+04  0.78636285249E+02 0.  0.
        -11    1    3    3    0    0 -0.33484736136E+02 -0.70256433858E+02 -0.50575643046E+02  0.92817507627E+02  0.00000000000E+00 0.  1.
         12    1    3    3    0    0  0.68059847161E+01  0.17798811383E+01  0.19387764803E+02  0.20624617060E+02  0.00000000000E+00 0. -1.
         11    1    5    5    0    0  0.35289617122E+02  0.13347511671E+02  0.45085254684E+03  0.45242848290E+03  0.00000000000E+00 0. -1.
        -12    1    5    5    0    0  0.23873704493E+02 -0.86682344568E+01  0.23842487014E+04  0.23843839796E+04  0.00000000000E+00 0.  1.
          5    1    4    4  501    0  0.12727222249E+02  0.55039679126E+02  0.62090791547E+02  0.84048124663E+02  0.41800000000E+01 0.  1.
         -5    1    4    4    0  501 -0.45211792443E+02  0.87575963793E+01 -0.40771806761E+02  0.61649122434E+02  0.41800000000E+01 0.  1.
</event>
<event>
11    1  0.8299058E-009  0.1551082E+03  0.7561462E-02  0.1091771E+00
         22   -1    0    0    0    0  0.00000000000E+00  0.00000000000E+00  0.41070374146E+03  0.41070374146E+03  0.00000000000E+00 0. -1.
         22   -1    0    0    0    0 -0.00000000000E+00 -0.00000000000E+00 -0.50938626301E+03  0.50938626301E+03  0.00000000000E+00 0.  1.
        -24    2    1    2    0    0 -0.17063347004E+02  0.25539606455E+02 -0.23376955616E+03  0.24879777698E+03  0.79427319836E+02 0.  0.
         25    2    1    2    0    0  0.64555692363E+02  0.53490902443E+02 -0.23636968443E+03  0.28025614099E+03  0.12507662765E+03 0.  0.
         24    2    1    2    0    0 -0.47492345359E+02 -0.79030508898E+02  0.37145671904E+03  0.39103608650E+03  0.80173453328E+02 0.  0.
        -11    1    5    5    0    0 -0.58241661025E+02 -0.30606766157E+02  0.14527810745E+03  0.15948226772E+03  0.00000000000E+00 0.  1.
         12    1    5    5    0    0  0.10749315666E+02 -0.48423742741E+02  0.22617861160E+03  0.23155381878E+03  0.00000000000E+00 0. -1.
         11    1    3    3    0    0 -0.29362744784E+02  0.49883256109E+02 -0.15820279352E+03  0.16845959130E+03  0.00000000000E+00 0. -1.
        -12    1    3    3    0    0  0.12299397780E+02 -0.24343649654E+02 -0.75566762634E+02  0.80338185685E+02  0.00000000000E+00 0.  1.
          5    1    4    4  501    0  0.89870705488E+02  0.50618886029E+02 -0.23218772564E+03  0.25410160894E+03  0.41800000000E+01 0.  1.
         -5    1    4    4    0  501 -0.25315013124E+02  0.28720164143E+01 -0.41819587982E+01  0.26154532058E+02  0.41800000000E+01 0.  1.
</event>
<event>
11    1  0.8299058E-009  0.1826116E+03  0.7561462E-02  0.1067550E+00
         22   -1    0    0    0    0  0.00000000000E+00  0.00000000000E+00  0.43493301536E+03  0.43493301536E+03  0.00000000000E+00 0. -1.
         22   -1    0    0    0    0 -0.00000000000E+00 -0.00000000000E+00 -0.13078421327E+04  0.13078421327E+04  0.00000000000E+00 0. -1.
        -24    2    1    2    0    0 -0.66161259916E+01 -0.17067966244E+02 -0.11270052142E+04  0.11300716197E+04  0.81154323233E+02 0.  0.
         25    2    1    2    0    0 -0.11293981572E+03  0.75111507376E+02 -0.11192941875E+03  0.21580727895E+03  0.12508975318E+03 0.  0.
         24    2    1    2    0    0  0.11955594171E+03 -0.58043541132E+02  0.36602551560E+03  0.39689624944E+03  0.76741637237E+02 0.  0.
        -13    1    5    5    0    0  0.30873056746E+02 -0.10824731303E+02  0.24426439788E+02  0.40828561098E+02  0.00000000000E+00 0.  1.
         14    1    5    5    0    0  0.88682884965E+02 -0.47218809828E+02  0.34159907581E+03  0.35606768834E+03  0.00000000000E+00 0. -1.
         11    1    3    3    0    0 -0.13475857195E+02  0.19346531156E+00 -0.10706386595E+04  0.10707234822E+04  0.00000000000E+00 0. -1.
        -12    1    3    3    0    0  0.68597312038E+01 -0.17261431556E+02 -0.56366554686E+02  0.59348137449E+02  0.00000000000E+00 0.  1.
          5    1    4    4  501    0 -0.68290023185E+02  0.93882567470E+02 -0.29087321860E+02  0.11975394956E+03  0.41800000000E+01 0. -1.
         -5    1    4    4    0  501 -0.44649792535E+02 -0.18771060094E+02 -0.82842096889E+02  0.96053329393E+02  0.41800000000E+01 0. -1.
</event>
<event>
11    1  0.8299058E-009  0.1670866E+03  0.7561462E-02  0.1080595E+00
         22   -1    0    0    0    0  0.00000000000E+00  0.00000000000E+00  0.13856137933E+04  0.13856137933E+04  0.00000000000E+00 0.  1.
         22   -1    0    0    0    0 -0.00000000000E+00 -0.00000000000E+00 -0.12759974256E+04  0.12759974256E+04  0.00000000000E+00 0.  1.
        -24    2    1    2    0    0  0.51511954074E+02  0.94596560257E+02 -0.11513111659E+04  0.11598232291E+04  0.89836136679E+02 0.  0.
         25    2    1    2    0    0 -0.75066570318E+02 -0.17554449308E+03 -0.74150705582E+01  0.22837230052E+03  0.12509222734E+03 0.  0.
         24    2    1    2    0    0  0.23554616244E+02  0.80947932824E+02  0.12683426041E+04  0.12734156892E+04  0.76073439985E+02 0.  0.
        -13    1    5    5    0    0  0.49874572722E+02  0.66621041848E+02  0.97573824840E+03  0.97928084103E+03  0.00000000000E+00 0.  1.
         14    1    5    5    0    0 -0.26319956478E+02  0.14326890976E+02  0.29260435574E+03  0.29413484818E+03  0.00000000000E+00 0. -1.
         11    1    3    3    0    0 -0.60005014022E+01 -0.69316416546E+01 -0.15311277809E+02  0.17846257346E+02  0.00000000000E+00 0. -1.
        -12    1    3    3    0    0  0.57512455476E+02  0.10152820191E+03 -0.11359998881E+04  0.11419769717E+04  0.00000000000E+00 0.  1.
          5    1    4    4  501    0  0.17258963812E+02 -0.75279234215E+02 -0.41554906782E+02  0.87801580929E+02  0.41800000000E+01 0.  1.
         -5    1    4    4    0  501 -0.92325534130E+02 -0.10026525887E+03  0.34139836224E+02  0.14057071959E+03  0.41800000000E+01 0.  1.
</event>
<event>
11    1  0.8299058E-009  0.1632341E+03  0.7561462E-02  0.1084074E+00
         22   -1    0    0    0    0  0.00000000000E+00  0.00000000000E+00  0.80006894962E+03  0.80006894962E+03  0.00000000000E+00 0.  1.
         22   -1    0    0    0    0 -0.00000000000E+00 -0.00000000000E+00 -0.59002319733E+03  0.59002319733E+03  0.00000000000E+00 0.  1.
         24    2    1    2    0    0  0.10772531654E+03  0.81301442530E-01 -0.51129276497E+03  0.52859564435E+03  0.79926924621E+02 0.  0.
         25    2    1    2    0    0 -0.76679169371E+02  0.32463153227E+02  0.16927545017E+02  0.15122066333E+03  0.12509035096E+03 0.  0.
        -24    2    1    2    0    0 -0.31046147174E+02 -0.32544454669E+02  0.70441097224E+03  0.71027583928E+03  0.79208239889E+02 0.  0.
        -13    1    3    3    0    0  0.99536820814E+02  0.27152697658E+02 -0.43914875833E+03  0.45110584083E+03  0.00000000000E+00 0.  1.
         14    1    3    3    0    0  0.81884957305E+01 -0.27071396215E+02 -0.72144006640E+02  0.77489803520E+02  0.00000000000E+00 0. -1.
         11    1    5    5    0    0  0.13905105370E+02  0.16061864293E+02  0.98890131421E+02  0.10114639654E+03  0.00000000000E+00 0. -1.
        -12    1    5    5    0    0 -0.44951252543E+02 -0.48606318963E+02  0.60552084082E+03  0.60912944274E+03  0.00000000000E+00 0.  1.
          5    1    4    4  501    0 -0.85506094486E+01 -0.45412335231E+02  0.71435980312E+00  0.46404480635E+02  0.41800000000E+01 0.  1.
         -5    1    4    4    0  501 -0.68128559923E+02  0.77875488458E+02  0.16213185214E+02  0.10481618269E+03  0.41800000000E+01 0.  1.
</event>
<event>
11    1  0.8299058E-009  0.1344782E+03  0.7561462E-02  0.1113886E+00
         22   -1    0    0    0    0  0.00000000000E+00  0.00000000000E+00  0.66601222762E+03  0.66601222762E+03  0.00000000000E+00 0. -1.
         22   -1    0    0    0    0 -0.00000000000E+00 -0.00000000000E+00 -0.27529218794E+04  0.27529218794E+04  0.00000000000E+00 0. -1.
         24    2    1    2    0    0 -0.22397025343E+01  0.11677096567E+02 -0.78569393783E+03  0.79127508316E+03  0.93058704268E+02 0.  0.
         25    2    1    2    0    0  0.21617041119E+02  0.33750220192E+02 -0.19586569111E+04  0.19630563713E+04  0.12508815913E+03 0.  0.
        -24    2    1    2    0    0 -0.19377338585E+02 -0.45427316759E+02  0.65744119712E+03  0.66460265262E+03  0.83836959890E+02 0.  0.
        -13    1    3    3    0    0  0.33488450772E+02  0.31985211311E+02 -0.26967577096E+03  0.27362300985E+03  0.00000000000E+00 0.  1.
         14    1    3    3    0    0 -0.35728153306E+02 -0.20308114744E+02 -0.51601816687E+03  0.51765207331E+03  0.00000000000E+00 0. -1.
         11    1    5    5    0    0 -0.21578207846E+02 -0.69681015954E+02  0.49529578107E+03  0.50063856602E+03  0.00000000000E+00 0. -1.
        -12    1    5    5    0    0  0.22008692615E+01  0.24253699195E+02  0.16214541605E+03  0.16396408661E+03  0.00000000000E+00 0.  1.
          5    1    4    4  501    0 -0.51160050698E+02  0.22914571304E+02 -0.99411108407E+03  0.99569912535E+03  0.41800000000E+01 0.  1.
         -5    1    4    4    0  501  0.72777091817E+02  0.10835648888E+02 -0.96454582704E+03  0.96735724593E+03  0.41800000000E+01 0.  1.
</event>
<event>
11    1  0.8299058E-009  0.1443611E+03  0.7561462E-02  0.1102784E+00
         22   -1    0    0    0    0  0.00000000000E+00  0.00000000000E+00  0.88422175338E+03  0.88422175338E+03  0.00000000000E+00 0.  1.
         22   -1    0    0    0    0 -0.00000000000E+00 -0.00000000000E+00 -0.71275708199E+03  0.71275708199E+03  0.00000000000E+00 0. -1.
        -24    2    1    2    0    0 -0.68241583665E+02 -0.14549060673E+02 -0.61899109324E+03  0.62792603782E+03  0.79199410033E+02 0.  0.
         25    2    1    2    0    0  0.12148184160E+03 -0.94141724657E+01  0.23108259916E+01  0.17464164022E+03  0.12509155887E+03 0.  0.
         24    2    1    2    0    0 -0.53240257935E+02  0.23963233139E+02  0.78814493864E+03  0.79441115733E+03  0.80671438391E+02 0.  0.
        -13    1    5    5    0    0 -0.76667058600E+01  0.27343350060E+02  0.60446681454E+03  0.60513351176E+03  0.00000000000E+00 0.  1.
         14    1    5    5    0    0 -0.45573552075E+02 -0.33801169211E+01  0.18367812411E+03  0.18927764557E+03  0.00000000000E+00 0. -1.
         13    1    3    3    0    0 -0.64511238447E+02  0.21250373648E+02 -0.34915848921E+03  0.35570342823E+03  0.00000000000E+00 0. -1.
        -14    1    3    3    0    0 -0.37303452184E+01 -0.35799434321E+02 -0.26983260403E+03  0.27222260959E+03  0.00000000000E+00 0.  1.
          5    1    4    4  501    0  0.10705257868E+03  0.44690232672E+02 -0.11986289482E+02  0.11669882190E+03  0.41800000000E+01 0.  1.
         -5    1    4    4    0  501  0.14429262921E+02 -0.54104405138E+02  0.14297115474E+02  0.57942818318E+02  0.41800000000E+01 0.  1.
</event>
<event>
11    1  0.8299058E-009  0.1272838E+03  0.7561462E-02  0.1122652E+00
         22   -1    0    0    0    0  0.00000000000E+00  0.00000000000E+00  0.12223756489E+04  0.12223756489E+04  0.00000000000E+00 0.  1.
         22   -1    0    0    0    0 -0.00000000000E+00 -0.00000000000E+00 -0.11200577052E+04  0.11200577052E+04  0.00000000000E+00 0. -1.
        -24    2    1    2    0    0 -0.93829241723E+01  0.21333222232E+02 -0.11031592923E+04  0.11078237489E+04  0.98842747693E+02 0.  0.
         25    2    1    2    0    0  0.61130569476E+02 -0.47766950366E+02  0.45692050042E+03  0.48004429326E+03  0.12509017435E+03 0.  0.
         24    2    1    2    0    0 -0.51747645304E+02  0.26433728134E+02  0.74855673561E+03  0.75456531199E+03  0.75200151901E+02 0.  0.
        -13    1    5    5    0    0 -0.41324256087E+02 -0.15996202791E+01  0.65587121525E+03  0.65717372430E+03  0.00000000000E+00 0.  1.
         14    1    5    5    0    0 -0.10423389217E+02  0.28033348413E+02  0.92685520365E+02  0.97391587683E+02  0.00000000000E+00 0. -1.
         13    1    3    3    0    0  0.16345107751E+01  0.53892424055E+02 -0.37529070843E+03  0.37914401067E+03  0.00000000000E+00 0. -1.
        -14    1    3    3    0    0 -0.11017434947E+02 -0.32559201823E+02 -0.72786858390E+03  0.72867973824E+03  0.00000000000E+00 0.  1.
          5    1    4    4  501    0  0.40335333962E+02 -0.90635491082E+02  0.30128098699E+03  0.31722143201E+03  0.41800000000E+01 0. -1.
         -5    1    4    4    0  501  0.20795235514E+02  0.42868540716E+02  0.15563951343E+03  0.16282286125E+03  0.41800000000E+01 0. -1.
</event>
<event>
11    1  0.8299058E-009  0.1268200E+03  0.7561462E-02  0.1123239E+00
         22   -1    0    0    0    0  0.00000000000E+00  0.00000000000E+00  0.35891685386E+03  0.35891685386E+03  0.00000000000E+00 0.  1.
         22   -1    0    0    0    0 -0.00000000000E+00 -0.00000000000E+00 -0.61759311600E+03  0.61759311600E+03  0.00000000000E+00 0.  1.
         24    2    1    2    0    0 -0.38344958673E+01  0.20811232558E+02 -0.58151690104E+03  0.58791339280E+03  0.83859647504E+02 0.  0.
         25    2    1    2    0    0  0.24329899828E+01 -0.87103659095E+01  0.13703173098E+03  0.18575504417E+03  0.12508177815E+03 0.  0.
        -24    2    1    2    0    0  0.14015058845E+01 -0.12100866649E+02  0.18580890791E+03  0.20284153290E+03  0.80444651879E+02 0.  0.
        -11    1    3    3    0    0 -0.97267974764E+01 -0.38708024628E+01 -0.53350845621E+03  0.53361115670E+03  0.00000000000E+00 0.  1.
         12    1    3    3    0    0  0.58923016091E+01  0.24682035021E+02 -0.48008444822E+02  0.54302236098E+02  0.00000000000E+00 0. -1.
         13    1    5    5    0    0 -0.32671267499E+02 -0.11816776867E+02  0.39445586309E+02  0.52564267471E+02  0.00000000000E+00 0. -1.
        -14    1    5    5    0    0  0.34072773383E+02 -0.28408978153E+00  0.14636332161E+03  0.15027726543E+03  0.00000000000E+00 0.  1.
          5    1    4    4  501    0 -0.42253843373E+02  0.59361268155E-01  0.12492900800E+01  0.42478511383E+02  0.41800000000E+01 0. -1.
         -5    1    4    4    0  501  0.44686833356E+02 -0.87697271777E+01  0.13578244090E+03  0.14327653279E+03  0.41800000000E+01 0. -1.
</event>
<event>
11    1  0.8299058E-009  0.4752007E+03  0.7561462E-02  0.9450710E-01
         22   -1    0    0    0    0  0.00000000000E+00  0.00000000000E+00  0.26686128435E+04  0.26686128435E+04  0.00000000000E+00 0.  1.
         22   -1    0    0    0    0 -0.00000000000E+00 -0.00000000000E+00 -0.40789083245E+03  0.40789083245E+03  0.00000000000E+00 0.  1.
         24    2    1    2    0    0 -0.29949810731E+02 -0.30812194272E+03 -0.18144649661E+03  0.36781595979E+03  0.80806103701E+02 0.  0.
         25    2    1    2    0    0  0.82822972347E+02  0.69513433768E+03  0.11111544343E+04  0.13192352965E+04  0.12508476532E+03 0.  0.
        -24    2    1    2    0    0 -0.52873161615E+02 -0.38701239497E+03  0.13310140734E+04  0.13894524196E+04  0.80033729785E+02 0.  0.
        -11    1    3    3    0    0 -0.41155737847E+02 -0.22211086031E+03 -0.94065476772E+02  0.24469438683E+03  0.00000000000E+00 0.  1.
         12    1    3    3    0    0  0.11205927116E+02 -0.86011082402E+02 -0.87381019838E+02  0.12312157295E+03  0.00000000000E+00 0. -1.
         11    1    5    5    0    0 -0.85568978900E+01 -0.60954580394E+02  0.33150904272E+03  0.33717492015E+03  0.00000000000E+00 0. -1.
        -12    1    5    5    0    0 -0.44316263725E+02 -0.32605781457E+03  0.99950503063E+03  0.10522774995E+04  0.00000000000E+00 0.  1.
          5    1    4    4  501    0  0.98932862743E+02  0.67502455413E+03  0.10436918996E+04  0.12468985980E+04  0.41800000000E+01 0. -1.
         -5    1    4    4    0  501 -0.16109890396E+02  0.20109783547E+02  0.67462534652E+02  0.72336698463E+02  0.41800000000E+01 0. -1.
</event>
<event>
11    1  0.8299058E-009  0.2182196E+03  0.7561462E-02  0.1042338E+00
         22   -1    0    0    0    0  0.00000000000E+00  0.00000000000E+00  0.20962240382E+04  0.20962240382E+04  0.00000000000E+00 0. -1.
         22   -1    0    0    0    0 -0.00000000000E+00 -0.00000000000E+00 -0.33603751238E+03  0.33603751238E+03  0.00000000000E+00 0. -1.
         24    2    1    2    0    0 -0.47343654028E+01  0.22952030946E+02 -0.17220659891E+03  0.19058659819E+03  0.78223581872E+02 0.  0.
         25    2    1    2    0    0 -0.10175776824E+03  0.12151181640E+03 -0.81777507575E+02  0.21784147686E+03  0.12509030088E+03 0.  0.
        -24    2    1    2    0    0  0.10649213365E+03 -0.14446384735E+03  0.20141706323E+04  0.20238334755E+04  0.82511956301E+02 0.  0.
        -11    1    3    3    0    0 -0.29980269455E+02  0.37941437385E+02 -0.76720654338E+02  0.90688632306E+02  0.00000000000E+00 0.  1.
         12    1    3    3    0    0  0.25245904052E+02 -0.14989406440E+02 -0.95485944572E+02  0.99897965884E+02  0.00000000000E+00 0. -1.
         13    1    5    5    0    0  0.73821622085E+02 -0.11693280636E+03  0.10989771926E+04  0.11076433465E+04  0.00000000000E+00 0. -1.
        -14    1    5    5    0    0  0.32670511560E+02 -0.27531040988E+02  0.91519343964E+03  0.91619012901E+03  0.00000000000E+00 0.  1.
          5    1    4    4  501    0 -0.52275887648E+02  0.51522245694E+01 -0.74324477730E+02  0.91109353182E+02  0.41800000000E+01 0.  1.
         -5    1    4    4    0  501 -0.49481880595E+02  0.11635959183E+03 -0.74530298458E+01  0.12673212368E+03  0.41800000000E+01 0.  1.
</event>
<event>
11    1  0.8299058E-009  0.1559442E+03  0.7561462E-02  0.1090955E+00
         22   -1    0    0    0    0  0.00000000000E+00  0.00000000000E+00  0.11209864279E+04  0.11209864279E+04  0.00000000000E+00 0.  1.
         22   -1    0    0    0    0 -0.00000000000E+00 -0.00000000000E+00 -0.18787944220E+03  0.18787944220E+03  0.00000000000E+00 0.  1.
        -24    2    1    2    0    0 -0.34629755455E+02  0.46096710061E+02 -0.13950562733E+03  0.17087002536E+03  0.80066340436E+02 0.  0.
         25    2    1    2    0    0  0.12033680288E+03 -0.17321884663E+02  0.24031394933E+03  0.29694750204E+03  0.12508409537E+03 0.  0.
         24    2    1    2    0    0 -0.85707047421E+02 -0.28774825398E+02  0.83229866372E+03  0.84104834272E+03  0.80421145211E+02 0.  0.
        -11    1    5    5    0    0 -0.91092921285E+02 -0.26402003931E+02  0.82878482029E+03  0.83419378112E+03  0.00000000000E+00 0.  1.
         12    1    5    5    0    0  0.53858738640E+01 -0.23728214668E+01  0.35138434348E+01  0.68545615962E+01  0.00000000000E+00 0. -1.
         11    1    3    3    0    0  0.94379998336E+01  0.21084797892E+02 -0.70721916937E+00  0.23111570738E+02  0.00000000000E+00 0. -1.
        -12    1    3    3    0    0 -0.44067755289E+02  0.25011912168E+02 -0.13879840816E+03  0.14775845463E+03  0.00000000000E+00 0.  1.
          5    1    4    4  501    0 -0.18620595209E+01  0.24434509068E+02  0.87723990372E+00  0.24874775353E+02  0.41800000000E+01 0.  1.
         -5    1    4    4    0  501  0.12219886240E+03 -0.41756393730E+02  0.23943670942E+03  0.27207272669E+03  0.41800000000E+01 0.  1.
</event>
<event>
11    1  0.8299058E-009  0.1443840E+03  0.7561462E-02  0.1102759E+00
         22   -1    0    0    0    0  0.00000000000E+00  0.00000000000E+00  0.98350803267E+03  0.98350803267E+03  0.00000000000E+00 0.  1.
         22   -1    0    0    0    0 -0.00000000000E+00 -0.00000000000E+00 -0.31660310310E+03  0.31660310310E+03  0.00000000000E+00 0.  1.
        -24    2    1    2    0    0 -0.35917818076E+02 -0.39694166626E+02 -0.27958490536E+03  0.29571519904E+03  0.80087721400E+02 0.  0.
         25    2    1    2    0    0  0.19244151945E+02  0.10619419269E+03  0.24011037925E+03  0.29145843659E+03  0.12508989606E+03 0.  0.
         24    2    1    2    0    0  0.16673666131E+02 -0.66500026060E+02  0.70637945569E+03  0.71293750014E+03  0.67879887137E+02 0.  0.
        -13    1    5    5    0    0 -0.13636906873E+02 -0.64561743081E+02  0.49985216967E+03  0.50418882914E+03  0.00000000000E+00 0.  1.
         14    1    5    5    0    0  0.30310573003E+02 -0.19382829789E+01  0.20652728601E+03  0.20874867100E+03  0.00000000000E+00 0. -1.
         11    1    3    3    0    0 -0.49774567654E+02 -0.13759379961E+02 -0.89177672815E+02  0.10305088768E+03  0.00000000000E+00 0. -1.
        -12    1    3    3    0    0  0.13856749578E+02 -0.25934786665E+02 -0.19040723255E+03  0.19266431137E+03  0.00000000000E+00 0.  1.
          5    1    4    4  501    0 -0.32943349932E+02 -0.10121034605E+02  0.31146577703E+02  0.46639911544E+02  0.41800000000E+01 0. -1.
         -5    1    4    4    0  501  0.52187501877E+02  0.11631522729E+03  0.20896380155E+03  0.24481852505E+03  0.41800000000E+01 0. -1.
</event>
<event>
11    1  0.8299058E-009  0.2029063E+03  0.7561462E-02  0.1052487E+00
         22   -1    0    0    0    0  0.00000000000E+00  0.00000000000E+00  0.17187034219E+04  0.17187034219E+04  0.00000000000E+00 0.  1.
         22   -1    0    0    0    0 -0.00000000000E+00 -0.00000000000E+00 -0.26123095077E+03  0.26123095077E+03  0.00000000000E+00 0.  1.
         24    2    1    2    0    0  0.16275244477E+03 -0.17666880468E+01 -0.10584220128E+03  0.21030650568E+03  0.80837957028E+02 0.  0.
         25    2    1    2    0    0 -0.13070654182E+03  0.15138374678E+03  0.43216973131E+02  0.23982596940E+03  0.12509016736E+03 0.  0.
        -24    2    1    2    0    0 -0.32045902953E+02 -0.14961705873E+03  0.15200976993E+04  0.15298018976E+04  0.78642395375E+02 0.  0.
        -11    1    3    3    0    0  0.15198524287E+03 -0.20191560274E+02 -0.10982623725E+03  0.18859749613E+03  0.00000000000E+00 0.  1.
         12    1    3    3    0    0  0.10767201899E+02  0.18424872227E+02  0.39840359732E+01  0.21709009557E+02  0.00000000000E+00 0. -1.
         13    1    5    5    0    0  0.23788730323E+02 -0.20652149147E+02  0.27556806249E+03  0.27736288868E+03  0.00000000000E+00 0. -1.
        -14    1    5    5    0    0 -0.55834633276E+02 -0.12896490958E+03  0.12445296368E+04  0.12524390089E+04  0.00000000000E+00 0.  1.
          5    1    4    4  501    0 -0.46325009062E+02  0.79140852397E+02  0.80994808706E+02  0.12242104566E+03  0.41800000000E+01 0. -1.
         -5    1    4    4    0  501 -0.84381532754E+02  0.72242894382E+02 -0.37777835574E+02  0.11740492374E+03  0.41800000000E+01 0. -1.
</event>
<event>
11    1  0.8299058E-009  0.1476350E+03  0.7561462E-02  0.1099320E+00
         22   -1    0    0    0    0  0.00000000000E+00  0.00000000000E+00  0.29068541712E+04  0.29068541712E+04  0.00000000000E+00 0.  1.
         22   -1    0    0    0    0 -0.00000000000E+00 -0.00000000000E+00 -0.26635440169E+03  0.26635440169E+03  0.00000000000E+00 0.  1.
        -24    2    1    2    0    0  0.48207851817E+02  0.43918532557E+02 -0.23901308974E+03  0.26029894566E+03  0.79846412366E+02 0.  0.
         25    2    1    2    0    0 -0.67563974713E+02  0.34508555129E+02  0.33316081045E+03  0.36386738822E+03  0.12509044542E+03 0.  0.
         24    2    1    2    0    0  0.19356122895E+02 -0.78427087686E+02  0.25463520488E+04  0.25490422390E+04  0.84747343784E+02 0.  0.
        -13    1    5    5    0    0  0.28466688299E+02 -0.93531655775E+02  0.22885803444E+04  0.22906677009E+04  0.00000000000E+00 0.  1.
         14    1    5    5    0    0 -0.91105654037E+01  0.15104568089E+02  0.25777170435E+03  0.25837453810E+03  0.00000000000E+00 0. -1.
         13    1    3    3    0    0 -0.89113727041E+01  0.44285853030E+02 -0.12183462930E+03  0.12993970232E+03  0.00000000000E+00 0. -1.
        -14    1    3    3    0    0  0.57119224521E+02 -0.36732047310E+00 -0.11717846044E+03  0.13035924334E+03  0.00000000000E+00 0.  1.
          5    1    4    4  501    0 -0.46423775513E+02  0.80690509488E+02  0.18419194308E+03  0.20642255098E+03  0.41800000000E+01 0.  1.
         -5    1    4    4    0  501 -0.21140199199E+02 -0.46181954359E+02  0.14896886736E+03  0.15744483724E+03  0.41800000000E+01 0.  1.
</event>
<event>
11    1  0.8299058E-009  0.1530837E+03  0.7561462E-02  0.1093769E+00
         22   -1    0    0    0    0  0.00000000000E+00  0.00000000000E+00  0.24731529427E+03  0.24731529427E+03  0.00000000000E+00 0. -1.
         22   -1    0    0    0    0 -0.00000000000E+00 -0.00000000000E+00 -0.15428732623E+04  0.15428732623E+04  0.00000000000E+00 0. -1.
        -24    2    1    2    0    0  0.85600160532E+02 -0.10737837179E+02 -0.91313683887E+03  0.92068818584E+03  0.80032246087E+02 0.  0.
         25    2    1    2    0    0 -0.80220626855E+02  0.71940573914E+02 -0.60384115039E+03  0.62600570296E+03  0.12509280594E+03 0.  0.
         24    2    1    2    0    0 -0.53795336771E+01 -0.61202736735E+02  0.22142002120E+03  0.24349466779E+03  0.80548824246E+02 0.  0.
        -11    1    5    5    0    0 -0.41589470971E+02 -0.45237828238E+02  0.12568680257E+03  0.13990467304E+03  0.00000000000E+00 0.  1.
         12    1    5    5    0    0  0.36209937294E+02 -0.15964908497E+02  0.95733218627E+02  0.10358999474E+03  0.00000000000E+00 0. -1.
         13    1    3    3    0    0  0.52283756687E+02 -0.14238063164E+02 -0.81859725289E+03  0.82038879569E+03  0.00000000000E+00 0. -1.
        -14    1    3    3    0    0  0.33316403845E+02  0.35002259852E+01 -0.94539585986E+02  0.10029939016E+03  0.00000000000E+00 0.  1.
          5    1    4    4  501    0 -0.91219811401E+02  0.36277215056E+02 -0.55875164235E+03  0.56732526874E+03  0.41800000000E+01 0.  1.
         -5    1    4    4    0  501  0.10999184546E+02  0.35663358857E+02 -0.45089508035E+02  0.58680434222E+02  0.41800000000E+01 0.  1.
</event>
<event>
11    1  0.8299058E-009  0.1387832E+03  0.7561462E-02  0.1108925E+00
         22   -1    0    0    0    0  0.00000000000E+00  0.00000000000E+00  0.10978678937E+03  0.10978678937E+03  0.00000000000E+00 0.  1.
         22   -1    0    0    0    0 -0.00000000000E+00 -0.00000000000E+00 -0.16551978559E+04  0.16551978559E+04  0.00000000000E+00 0. -1.
        -24    2    1    2    0    0  0.54858582747E+02 -0.29536637806E+01 -0.14461793527E+04  0.14494946212E+04  0.81127975723E+02 0.  0.
         25    2    1    2    0    0  0.13425354639E+02  0.31329618783E+01 -0.15404260075E+03  0.19891186455E+03  0.12508697540E+03 0.  0.
         24    2    1    2    0    0 -0.68283937387E+02 -0.17929809763E+00  0.54810886938E+02  0.11657815952E+03  0.76964314438E+02 0.  0.
        -11    1    5    5    0    0 -0.68376307246E+02  0.43311725719E+01  0.71655873662E+02  0.99139511188E+02  0.00000000000E+00 0.  1.
         12    1    5    5    0    0  0.92369859025E-01 -0.45104706695E+01 -0.16844986724E+02  0.17438648330E+02  0.00000000000E+00 0. -1.
         11    1    3    3    0    0  0.17043718479E+02 -0.18644346366E+02 -0.11723012063E+04  0.11725733317E+04  0.00000000000E+00 0. -1.
        -12    1    3    3    0    0  0.37814864268E+02  0.15690682586E+02 -0.27387814642E+03  0.27692128948E+03  0.00000000000E+00 0.  1.
          5    1    4    4  501    0 -0.24119624536E+02  0.40598951572E+02 -0.14508639915E+02  0.49578263268E+02  0.41800000000E+01 0. -1.
         -5    1    4    4    0  501  0.37544979175E+02 -0.37465989693E+02 -0.13953396084E+03  0.14933360128E+03  0.41800000000E+01 0. -1.
</event>
<event>
11    1  0.8299058E-009  0.1285229E+03  0.7561462E-02  0.1121097E+00
         22   -1    0    0    0    0  0.00000000000E+00  0.00000000000E+00  0.13665045587E+04  0.13665045587E+04  0.00000000000E+00 0.  1.
         22   -1    0    0    0    0 -0.00000000000E+00 -0.00000000000E+00 -0.10376392496E+03  0.10376392496E+03  0.00000000000E+00 0.  1.
        -24    2    1    2    0    0  0.28462887235E+02 -0.25722829974E+01 -0.68603903189E+02  0.10963817816E+03  0.80605719324E+02 0.  0.
         25    2    1    2    0    0 -0.44491514668E+02  0.58660306507E+01  0.32720683657E+03  0.35316549100E+03  0.12509054698E+03 0.  0.
         24    2    1    2    0    0  0.16028627433E+02 -0.32937476533E+01  0.10041377004E+04  0.10074648145E+04  0.80156506209E+02 0.  0.
        -11    1    5    5    0    0 -0.26314909952E+02 -0.15985329672E+02  0.22803567513E+03  0.23010492038E+03  0.00000000000E+00 0.  1.
         12    1    5    5    0    0  0.42343537385E+02  0.12691582018E+02  0.77610202524E+03  0.77735989412E+03  0.00000000000E+00 0. -1.
         11    1    3    3    0    0 -0.13896411534E+02  0.22207128581E+02 -0.51300683313E+02  0.57602316982E+02  0.00000000000E+00 0. -1.
        -12    1    3    3    0    0  0.42359298769E+02 -0.24779411578E+02 -0.17303219876E+02  0.52035861177E+02  0.00000000000E+00 0.  1.
          5    1    4    4  501    0  0.43973509413E+02  0.28613652057E+01  0.11173543843E+03  0.12018376572E+03  0.41800000000E+01 0.  1.
         -5    1    4    4    0  501 -0.88465024081E+02  0.30046654450E+01  0.21547139814E+03  0.23298172529E+03  0.41800000000E+01 0.  1.
</event>
<event>
11    1  0.8299058E-009  0.1370743E+03  0.7561462E-02  0.1110870E+00
         22   -1    0    0    0    0  0.00000000000E+00  0.00000000000E+00  0.43115331407E+03  0.43115331407E+03  0.00000000000E+00 0. -1.
         22   -1    0    0    0    0 -0.00000000000E+00 -0.00000000000E+00 -0.19897656188E+04  0.19897656188E+04  0.00000000000E+00 0.  1.
         24    2    1    2    0    0  0.36122874576E+00 -0.56535026262E+02 -0.19054233117E+04  0.19079092664E+04  0.79268102944E+02 0.  0.
         25    2    1    2    0    0  0.19429569836E+02  0.34238892582E+02 -0.23261610678E+02  0.13318997869E+03  0.12509459598E+03 0.  0.
        -24    2    1    2    0    0 -0.19790798582E+02  0.22296133680E+02  0.37007261771E+03  0.37981968777E+03  0.80127770166E+02 0.  0.
        -13    1    3    3    0    0 -0.20719888502E+02 -0.41866340733E+02 -0.17285534729E+04  0.17291845515E+04  0.00000000000E+00 0.  1.
         14    1    3    3    0    0  0.21081117248E+02 -0.14668685530E+02 -0.17686983880E+03  0.17872471491E+03  0.00000000000E+00 0. -1.
         13    1    5    5    0    0 -0.35602390083E+02  0.35452882754E+02  0.33802549026E+03  0.34173918292E+03  0.00000000000E+00 0. -1.
        -14    1    5    5    0    0  0.15811591501E+02 -0.13156749074E+02  0.32047127456E+02  0.38080504857E+02  0.00000000000E+00 0.  1.
          5    1    4    4  501    0 -0.26824991305E+02  0.63594390668E+02  0.85961274387E+01  0.69679211319E+02  0.41800000000E+01 0. -1.
         -5    1    4    4    0  501  0.46254561142E+02 -0.29355498086E+02 -0.31857738117E+02  0.63510767372E+02  0.41800000000E+01 0. -1.
</event>
<event>
11    1  0.8299058E-009  0.2468917E+03  0.7561462E-02  0.1025568E+00
         22   -1    0    0    0    0  0.00000000000E+00  0.00000000000E+00  0.20648694897E+03  0.20648694897E+03  0.00000000000E+00 0.  1.
         22   -1    0    0    0    0 -0.00000000000E+00 -0.00000000000E+00 -0.11326211668E+04  0.11326211668E+04  0.00000000000E+00 0. -1.
        -24    2    1    2    0    0 -0.20096287673E+03 -0.10213148859E+03 -0.90832212701E+03  0.93937209795E+03  0.80956366141E+02 0.  0.
         25    2    1    2    0    0  0.12296831978E+03  0.11744381425E+03 -0.12421456361E+03  0.24493117610E+03  0.12509103099E+03 0.  0.
         24    2    1    2    0    0  0.77994556943E+02 -0.15312325662E+02  0.10640247280E+03  0.15480484170E+03  0.79532600644E+02 0.  0.
        -11    1    5    5    0    0  0.44862963284E+02 -0.27389781698E+02  0.10735000830E+03  0.11952786243E+03  0.00000000000E+00 0.  1.
         12    1    5    5    0    0  0.33131593659E+02  0.12077456036E+02 -0.94753549521E+00  0.35276979267E+02  0.00000000000E+00 0. -1.
         13    1    3    3    0    0 -0.15646762008E+03 -0.11337722547E+03 -0.75447571518E+03  0.77882611422E+03  0.00000000000E+00 0. -1.
        -14    1    3    3    0    0 -0.44495256650E+02  0.11245736880E+02 -0.15384641182E+03  0.16054598374E+03  0.00000000000E+00 0.  1.
          5    1    4    4  501    0  0.89322948006E+02  0.14211914060E+03 -0.88256027142E+02  0.18969195527E+03  0.41800000000E+01 0.  1.
         -5    1    4    4    0  501  0.33645371779E+02 -0.24675326355E+02 -0.35958536469E+02  0.55239220830E+02  0.41800000000E+01 0.  1.
</event>
<event>
11    1  0.8299058E-009  0.1361500E+03  0.7561462E-02  0.1111935E+00
         22   -1    0    0    0    0  0.00000000000E+00  0.00000000000E+00  0.25262998787E+03  0.25262998787E+03  0.00000000000E+00 0. -1.
         22   -1    0    0    0    0 -0.00000000000E+00 -0.00000000000E+00 -0.18486606743E+04  0.18486606743E+04  0.00000000000E+00 0.  1.
         24    2    1    2    0    0  0.36042287458E+02  0.45093992438E+02 -0.10670703257E+04  0.10715576524E+04  0.79146747820E+02 0.  0.
         25    2    1    2    0    0 -0.58269245377E+02 -0.93233271319E+02 -0.75995997769E+03  0.77799269103E+03  0.12508281967E+03 0.  0.
        -24    2    1    2    0    0  0.22226957919E+02  0.48139278881E+02  0.23099961695E+03  0.25174031879E+03  0.84858336340E+02 0.  0.
        -11    1    3    3    0    0  0.47227153249E+02 -0.96181105732E+00 -0.67124140905E+03  0.67290144769E+03  0.00000000000E+00 0.  1.
         12    1    3    3    0    0 -0.11184865791E+02  0.46055803495E+02 -0.39582891665E+03  0.39865620466E+03  0.00000000000E+00 0. -1.
         11    1    5    5    0    0  0.42536401050E+02  0.51412409995E+02  0.10740429828E+03  0.12644470968E+03  0.00000000000E+00 0. -1.
        -12    1    5    5    0    0 -0.20309443131E+02 -0.32731311140E+01  0.12359531867E+03  0.12529560912E+03  0.00000000000E+00 0.  1.
          5    1    4    4  501    0  0.13607464001E+02 -0.52529023782E+02 -0.10933013952E+03  0.12212703723E+03  0.41800000000E+01 0. -1.
         -5    1    4    4    0  501 -0.71876709378E+02 -0.40704247537E+02 -0.65062983817E+03  0.65586565380E+03  0.41800000000E+01 0. -1.
</event>
<event>
11    1  0.8299058E-009  0.1363448E+03  0.7561462E-02  0.1111710E+00
         22   -1    0    0    0    0  0.00000000000E+00  0.00000000000E+00  0.26388820230E+03  0.26388820230E+03  0.00000000000E+00 0.  1.
         22   -1    0    0    0    0 -0.00000000000E+00 -0.00000000000E+00 -0.18486486896E+04  0.18486486896E+04  0.00000000000E+00 0. -1.
         24    2    1    2    0    0 -0.32755966939E+02  0.19887148297E+02 -0.86519550803E+03  0.86968192258E+03  0.79466516897E+02 0.  0.
         25    2    1    2    0    0  0.34840524385E+02  0.34487711583E+02 -0.96764903748E+03  0.97693149307E+03  0.12508884053E+03 0.  0.
        -24    2    1    2    0    0 -0.20845574461E+01 -0.54374859881E+02  0.24808405818E+03  0.26592347628E+03  0.78794825635E+02 0.  0.
        -13    1    3    3    0    0 -0.17124638679E+02  0.23357281301E+02 -0.94924929434E+02  0.99244939759E+02  0.00000000000E+00 0.  1.
         14    1    3    3    0    0 -0.15631328259E+02 -0.34701330042E+01 -0.77027057859E+03  0.77043698282E+03  0.00000000000E+00 0. -1.
         13    1    5    5    0    0 -0.11827320005E+02 -0.53771323908E+02  0.77529298623E+02  0.95089604681E+02  0.00000000000E+00 0. -1.
        -14    1    5    5    0    0  0.97427625588E+01 -0.60353597213E+00  0.17055475956E+03  0.17083387160E+03  0.00000000000E+00 0.  1.
          5    1    4    4  501    0 -0.14597461842E+02  0.39528703609E+02 -0.11054201485E+03  0.11837488648E+03  0.41800000000E+01 0. -1.
         -5    1    4    4    0  501  0.49437986227E+02 -0.50409920256E+01 -0.85710702263E+03  0.85855660659E+03  0.41800000000E+01 0. -1.
</event>
<event>
11    1  0.8299058E-009  0.1374606E+03  0.7561462E-02  0.1110428E+00
         22   -1    0    0    0    0  0.00000000000E+00  0.00000000000E+00  0.54089767879E+03  0.54089767879E+03  0.00000000000E+00 0.  1.
         22   -1    0    0    0    0 -0.00000000000E+00 -0.00000000000E+00 -0.58465902694E+03  0.58465902694E+03  0.00000000000E+00 0.  1.
         24    2    1    2    0    0 -0.49680068985E+02  0.31295944096E+02 -0.28830775595E+03  0.30519242898E+03  0.81077192808E+02 0.  0.
         25    2    1    2    0    0  0.65319487086E+02  0.16767222379E+02 -0.26596241250E+03  0.30155456481E+03  0.12510545774E+03 0.  0.
        -24    2    1    2    0    0 -0.15639418101E+02 -0.48063166475E+02  0.51050882030E+03  0.51880971193E+03  0.77392520458E+02 0.  0.
        -13    1    3    3    0    0 -0.15705030557E+02 -0.23448825184E+02 -0.14975839849E+03  0.15239446612E+03  0.00000000000E+00 0.  1.
         14    1    3    3    0    0 -0.33975038427E+02  0.54744769279E+02 -0.13854935747E+03  0.15279796286E+03  0.00000000000E+00 0. -1.
         11    1    5    5    0    0 -0.46014491357E+02 -0.26531033340E+02  0.24412421359E+03  0.24983566760E+03  0.00000000000E+00 0. -1.
        -12    1    5    5    0    0  0.30375073256E+02 -0.21532133135E+02  0.26638460671E+03  0.26897404433E+03  0.00000000000E+00 0.  1.
          5    1    4    4  501    0  0.56982722539E+02 -0.24563040100E+02 -0.24775001323E+03  0.25543671440E+03  0.41800000000E+01 0.  1.
         -5    1    4    4    0  501  0.83367645467E+01  0.41330262479E+02 -0.18212399269E+02  0.46117850414E+02  0.41800000000E+01 0.  1.
</event>
<event>
11    1  0.8299058E-009  0.1377048E+03  0.7561462E-02  0.1110149E+00
         22   -1    0    0    0    0  0.00000000000E+00  0.00000000000E+00  0.59935943808E+03  0.59935943808E+03  0.00000000000E+00 0.  1.
         22   -1    0    0    0    0 -0.00000000000E+00 -0.00000000000E+00 -0.52670445937E+03  0.52670445937E+03  0.00000000000E+00 0.  1.
        -24    2    1    2    0    0 -0.20816706241E+02  0.16536023558E+01 -0.49193709970E+03  0.49785248592E+03  0.73613300516E+02 0.  0.
         25    2    1    2    0    0  0.37534829958E+02 -0.55099086127E+02  0.16865875387E+03  0.22031263893E+03  0.12508841218E+03 0.  0.
         24    2    1    2    0    0 -0.16718123717E+02  0.53445483771E+02  0.39593332454E+03  0.40789877261E+03  0.80512705966E+02 0.  0.
        -13    1    5    5    0    0  0.15839542568E+01  0.46498953057E+02  0.37949480115E+03  0.38233619453E+03  0.00000000000E+00 0.  1.
         14    1    5    5    0    0 -0.18302077973E+02  0.69465307141E+01  0.16438523390E+02  0.25562578085E+02  0.00000000000E+00 0. -1.
         13    1    3    3    0    0  0.53209241974E+01  0.25821709595E+02 -0.76946086085E+02  0.81337402740E+02  0.00000000000E+00 0. -1.
        -14    1    3    3    0    0 -0.26137630439E+02 -0.24168107239E+02 -0.41499101361E+03  0.41651508318E+03  0.00000000000E+00 0.  1.
          5    1    4    4  501    0  0.64721768776E+02 -0.13840322451E+01  0.35113418618E+02  0.73764811840E+02  0.41800000000E+01 0.  1.
         -5    1    4    4    0  501 -0.27186938818E+02 -0.53715053882E+02  0.13354533525E+03  0.14654782709E+03  0.41800000000E+01 0.  1.
</event>
<event>
11    1  0.8299058E-009  0.1254952E+03  0.7561462E-02  0.1124931E+00
         22   -1    0    0    0    0  0.00000000000E+00  0.00000000000E+00  0.13536836396E+04  0.13536836396E+04  0.00000000000E+00 0.  1.
         22   -1    0    0    0    0 -0.00000000000E+00 -0.00000000000E+00 -0.98774416395E+03  0.98774416395E+03  0.00000000000E+00 0. -1.
        -24    2    1    2    0    0 -0.23657992796E+02  0.17741040378E+01 -0.97363816276E+03  0.97658205388E+03  0.71961016594E+02 0.  0.
         25    2    1    2    0    0  0.30632569250E+02 -0.11170694691E+01  0.36650779484E+03  0.38847804343E+03  0.12509046489E+03 0.  0.
         24    2    1    2    0    0 -0.69745764545E+01 -0.65703456866E+00  0.97306984355E+03  0.97636770621E+03  0.79874281811E+02 0.  0.
        -13    1    5    5    0    0  0.29948915943E+02  0.20456554855E+02  0.35931188987E+03  0.36113770560E+03  0.00000000000E+00 0.  1.
         14    1    5    5    0    0 -0.36923492397E+02 -0.21113589423E+02  0.61375795368E+03  0.61523000061E+03  0.00000000000E+00 0. -1.
         13    1    3    3    0    0 -0.47429953223E+02 -0.85890751087E+01 -0.72329236546E+03  0.72489669512E+03  0.00000000000E+00 0. -1.
        -14    1    3    3    0    0  0.23771960427E+02  0.10363179146E+02 -0.25034579731E+03  0.25168535876E+03  0.00000000000E+00 0.  1.
          5    1    4    4  501    0  0.65593882282E+02 -0.36254979082E+02  0.26517220416E+03  0.27559163840E+03  0.41800000000E+01 0. -1.
         -5    1    4    4    0  501 -0.34961313032E+02  0.35137909613E+02  0.10133559069E+03  0.11288640503E+03  0.41800000000E+01 0. -1.
</event>
<event>
11    1  0.8299058E-009  0.1301566E+03  0.7561462E-02  0.1119077E+00
         22   -1    0    0    0    0  0.00000000000E+00  0.00000000000E+00  0.47332927502E+03  0.47332927502E+03  0.00000000000E+00 0.  1.
         22   -1    0    0    0    0 -0.00000000000E+00 -0.00000000000E+00 -0.33240655520E+03  0.33240655520E+03  0.00000000000E+00 0.  1.
        -24    2    1    2    0    0 -0.46606953931E+01  0.29851370941E+01 -0.29395585522E+03  0.30493957752E+03  0.80916425999E+02 0.  0.
         25    2    1    2    0    0 -0.47024330500E+00  0.33241420019E+02  0.12684552922E+03  0.18122458705E+03  0.12508936620E+03 0.  0.
         24    2    1    2    0    0  0.51309386981E+01 -0.36226557114E+02  0.30803304582E+03  0.31957166564E+03  0.76830997612E+02 0.  0.
        -13    1    5    5    0    0 -0.26360694463E+02 -0.91763787059E+01  0.22514469910E+03  0.22686830468E+03  0.00000000000E+00 0.  1.
         14    1    5    5    0    0  0.31491633161E+02 -0.27050178408E+02  0.82888346720E+02  0.92703360958E+02  0.00000000000E+00 0. -1.
         13    1    3    3    0    0 -0.31398913135E+02 -0.19032905790E+02 -0.77833703934E+02  0.86059448737E+02  0.00000000000E+00 0. -1.
        -14    1    3    3    0    0  0.26738217742E+02  0.22018042884E+02 -0.21612215129E+03  0.21888012878E+03  0.00000000000E+00 0.  1.
          5    1    4    4  501    0 -0.36794474540E+02  0.68765191589E+02  0.83192902795E+02  0.11410966833E+03  0.41800000000E+01 0.  1.
         -5    1    4    4    0  501  0.36324231235E+02 -0.35523771569E+02  0.43652626427E+02  0.67114918724E+02  0.41800000000E+01 0.  1.
</event>
<event>
11    1  0.8299058E-009  0.2097180E+03  0.7561462E-02  0.1047857E+00
         22   -1    0    0    0    0  0.00000000000E+00  0.00000000000E+00  0.90467999744E+03  0.90467999744E+03  0.00000000000E+00 0. -1.
         22   -1    0    0    0    0 -0.00000000000E+00 -0.00000000000E+00 -0.20104830563E+04  0.20104830563E+04  0.00000000000E+00 0.  1.
        -24    2    1    2    0    0 -0.18383911225E+02  0.16705745411E+03 -0.19748696599E+04  0.19837023821E+04  0.81968322495E+02 0.  0.
         25    2    1    2    0    0  0.22352908096E+02 -0.20813121744E+03  0.66615499676E+03  0.70938540430E+03  0.12508763308E+03 0.  0.
         24    2    1    2    0    0 -0.39689968708E+01  0.41073763338E+02  0.20291160429E+03  0.22207526735E+03  0.80258944955E+02 0.  0.
        -13    1    5    5    0    0  0.12775758055E+02 -0.21041242174E+02  0.40602915939E+02  0.47482108724E+02  0.00000000000E+00 0.  1.
         14    1    5    5    0    0 -0.16744754926E+02  0.62115005512E+02  0.16230868835E+03  0.17459315863E+03  0.00000000000E+00 0. -1.
         11    1    3    3    0    0  0.19710705468E+02  0.68840330482E+02 -0.50351034272E+03  0.50857660999E+03  0.00000000000E+00 0. -1.
        -12    1    3    3    0    0 -0.38094616693E+02  0.98217123623E+02 -0.14713593172E+04  0.14751257721E+04  0.00000000000E+00 0.  1.
          5    1    4    4  501    0 -0.42953137220E+02 -0.13480547349E+03  0.45439101036E+03  0.47592662289E+03  0.41800000000E+01 0. -1.
         -5    1    4    4    0  501  0.65306045316E+02 -0.73325743950E+02  0.21176398640E+03  0.23345878141E+03  0.41800000000E+01 0. -1.
</event>
<event>
11    1  0.8299058E-009  0.1388483E+03  0.7561462E-02  0.1108851E+00
         22   -1    0    0    0    0  0.00000000000E+00  0.00000000000E+00  0.37224641618E+03  0.37224641618E+03  0.00000000000E+00 0. -1.
         22   -1    0    0    0    0 -0.00000000000E+00 -0.00000000000E+00 -0.25300552835E+03  0.25300552835E+03  0.00000000000E+00 0. -1.
        -24    2    1    2    0    0  0.11016266790E+02 -0.55344890786E+02 -0.75662758998E+02  0.12255189381E+03  0.78164560422E+02 0.  0.
         25    2    1    2    0    0 -0.52142871862E+02  0.95918664889E+02 -0.98457879615E+02  0.19302718697E+03  0.12508505702E+03 0.  0.
         24    2    1    2    0    0  0.41126605072E+02 -0.40573774103E+02  0.29336152645E+03  0.30967286376E+03  0.80614319828E+02 0.  0.
        -13    1    5    5    0    0  0.62137364317E+02 -0.19756149770E+02  0.23958744404E+03  0.24830123004E+03  0.00000000000E+00 0.  1.
         14    1    5    5    0    0 -0.21010759245E+02 -0.20817624333E+02  0.53774082409E+02  0.61371633723E+02  0.00000000000E+00 0. -1.
         11    1    3    3    0    0  0.11521558938E+02 -0.71151840910E+02 -0.37517654048E+02  0.81258262045E+02  0.00000000000E+00 0. -1.
        -12    1    3    3    0    0 -0.50529214772E+00  0.15806950124E+02 -0.38145104950E+02  0.41293631761E+02  0.00000000000E+00 0.  1.
          5    1    4    4  501    0 -0.76222022590E+02  0.90700223895E+02 -0.33142613898E+02  0.12309440523E+03  0.41800000000E+01 0.  1.
         -5    1    4    4    0  501  0.24079150728E+02  0.52184409941E+01 -0.65315265717E+02  0.69932781740E+02  0.41800000000E+01 0.  1.
</event>
<event>
11    1  0.8299058E-009  0.1367009E+03  0.7561462E-02  0.1111299E+00
         22   -1    0    0    0    0  0.00000000000E+00  0.00000000000E+00  0.26985066809E+03  0.26985066809E+03  0.00000000000E+00 0. -1.
         22   -1    0    0    0    0 -0.00000000000E+00 -0.00000000000E+00 -0.81710895741E+03  0.81710895741E+03  0.00000000000E+00 0. -1.
        -24    2    1    2    0    0  0.52839628074E+02  0.29926509000E+02 -0.54699685539E+03  0.55649129729E+03  0.82397705821E+02 0.  0.
         25    2    1    2    0    0 -0.13867774519E+01 -0.56413770115E+02 -0.23712192460E+03  0.27396972044E+03  0.12509262161E+03 0.  0.
         24    2    1    2    0    0 -0.51452850622E+02  0.26487261115E+02  0.23686049066E+03  0.25649860777E+03  0.79622062975E+02 0.  0.
        -11    1    5    5    0    0 -0.20499061291E+02 -0.28316577523E+02  0.97709369285E+02  0.10377456780E+03  0.00000000000E+00 0.  1.
         12    1    5    5    0    0 -0.30953789331E+02  0.54803838638E+02  0.13915112138E+03  0.15272403997E+03  0.00000000000E+00 0. -1.
         11    1    3    3    0    0  0.24080206703E+02  0.96296147180E+01 -0.48095899097E+03  0.48165769674E+03  0.00000000000E+00 0. -1.
        -12    1    3    3    0    0  0.28759421371E+02  0.20296894282E+02 -0.66037864422E+02  0.74833600558E+02  0.00000000000E+00 0.  1.
          5    1    4    4  501    0  0.18106232122E+02  0.31155377035E+01 -0.20030955961E+03  0.20119377299E+03  0.41800000000E+01 0.  1.
         -5    1    4    4    0  501 -0.19493009573E+02 -0.59529307819E+02 -0.36812364984E+02  0.72775947450E+02  0.41800000000E+01 0.  1.
</event>
<event>
11    1  0.8299058E-009  0.1552385E+03  0.7561462E-02  0.1091643E+00
         22   -1    0    0    0    0  0.00000000000E+00  0.00000000000E+00  0.27906739286E+03  0.27906739286E+03  0.00000000000E+00 0. -1.
         22   -1    0    0    0    0 -0.00000000000E+00 -0.00000000000E+00 -0.21708072494E+03  0.21708072494E+03  0.00000000000E+00 0. -1.
         24    2    1    2    0    0  0.38355722263E+02  0.88377316623E+02 -0.12677262286E+03  0.17808307089E+03  0.79753186193E+02 0.  0.
         25    2    1    2    0    0 -0.68940511643E+02 -0.48223522840E+02  0.52110198793E+02  0.15950305357E+03  0.12508976368E+03 0.  0.
        -24    2    1    2    0    0  0.30584789380E+02 -0.40153793783E+02  0.13664909199E+03  0.15856199335E+03  0.62619285338E+02 0.  0.
        -11    1    3    3    0    0  0.33465347214E+01 -0.13339061581E+02 -0.29616058333E+01  0.14067727877E+02  0.00000000000E+00 0.  1.
         12    1    3    3    0    0  0.35009187542E+02  0.10171637820E+03 -0.12381101703E+03  0.16401534302E+03  0.00000000000E+00 0. -1.
         13    1    5    5    0    0  0.21177030772E+02 -0.30669036199E+02  0.22293543908E+02  0.43428775181E+02  0.00000000000E+00 0. -1.
        -14    1    5    5    0    0  0.94077586075E+01 -0.94847575835E+01  0.11435554808E+03  0.11513321817E+03  0.00000000000E+00 0.  1.
          5    1    4    4  501    0 -0.30425482497E+02  0.40169979701E+02  0.34977362978E+02  0.61483539059E+02  0.41800000000E+01 0. -1.
         -5    1    4    4    0  501 -0.38515029146E+02 -0.88393502541E+02  0.17132835815E+02  0.98019514509E+02  0.41800000000E+01 0. -1.
</event>
<event>
11    1  0.8299058E-009  0.1517230E+03  0.7561462E-02  0.1095131E+00
         22   -1    0    0    0    0  0.00000000000E+00  0.00000000000E+00  0.96707832065E+03  0.96707832065E+03  0.00000000000E+00 0. -1.
         22   -1    0    0    0    0 -0.00000000000E+00 -0.00000000000E+00 -0.27114956371E+03  0.27114956371E+03  0.00000000000E+00 0. -1.
        -24    2    1    2    0    0  0.87234483074E+02  0.11227282230E+02 -0.19862846727E+03  0.23174565495E+03  0.80727155756E+02 0.  0.
         25    2    1    2    0    0 -0.70159060193E+02 -0.27434596177E+02  0.45174989583E+02  0.15284963903E+03  0.12508909494E+03 0.  0.
         24    2    1    2    0    0 -0.17075422881E+02  0.16207313947E+02  0.84938223462E+03  0.85363259038E+03  0.81756784334E+02 0.  0.
        -11    1    5    5    0    0  0.11061391522E+02  0.57616598777E+01  0.19120711247E+02  0.22828769252E+02  0.00000000000E+00 0.  1.
         12    1    5    5    0    0 -0.28136814403E+02  0.10445654069E+02  0.83026152337E+03  0.83080382113E+03  0.00000000000E+00 0. -1.
         11    1    3    3    0    0  0.81560217437E+02  0.36880445676E+02 -0.17428963968E+03  0.19593140341E+03  0.00000000000E+00 0. -1.
        -12    1    3    3    0    0  0.56742656366E+01 -0.25653163446E+02 -0.24338827590E+02  0.35814251545E+02  0.00000000000E+00 0.  1.
          5    1    4    4  501    0 -0.56822252229E+02  0.44605107813E+02  0.27152647484E+02  0.77285979690E+02  0.41800000000E+01 0. -1.
         -5    1    4    4    0  501 -0.13336807964E+02 -0.72039703990E+02  0.18022342099E+02  0.75563659336E+02  0.41800000000E+01 0. -1.
</event>
<event>
11    1  0.8299058E-009  0.1430727E+03  0.7561462E-02  0.1104175E+00
         22   -1    0    0    0    0  0.00000000000E+00  0.00000000000E+00  0.83110642477E+03  0.83110642477E+03  0.00000000000E+00 0.  1.
         22   -1    0    0    0    0 -0.00000000000E+00 -0.00000000000E+00 -0.11865142363E+03  0.11865142363E+03  0.00000000000E+00 0. -1.
        -24    2    1    2    0    0  0.35392044298E+02 -0.55244392637E+02 -0.36043071446E+02  0.11117739880E+03  0.82199582038E+02 0.  0.
         25    2    1    2    0    0 -0.31549374165E+02  0.78033720089E+02  0.91763174149E+02  0.17650319326E+03  0.12509305584E+03 0.  0.
         24    2    1    2    0    0 -0.38426701327E+01 -0.22789327451E+02  0.65673489844E+03  0.66207725633E+03  0.80693537332E+02 0.  0.
        -11    1    5    5    0    0 -0.10401736251E+02  0.23280807041E+02  0.42226230296E+03  0.42303149362E+03  0.00000000000E+00 0.  1.
         12    1    5    5    0    0  0.65590661180E+01 -0.46070134493E+02  0.23447259547E+03  0.23904576271E+03  0.00000000000E+00 0. -1.
         13    1    3    3    0    0  0.19509921562E+02 -0.29817262553E+02 -0.62007830541E+02  0.71516971649E+02  0.00000000000E+00 0. -1.
        -14    1    3    3    0    0  0.15882122736E+02 -0.25427130085E+02  0.25964759095E+02  0.39660427151E+02  0.00000000000E+00 0.  1.
          5    1    4    4  501    0 -0.21927558065E+02 -0.18146893841E+02  0.72300987237E+02  0.77814090718E+02  0.41800000000E+01 0. -1.
         -5    1    4    4    0  501 -0.96218160999E+01  0.96180613930E+02  0.19462186911E+02  0.98689102541E+02  0.41800000000E+01 0. -1.
</event>
<event>
11    1  0.8299058E-009  0.1534670E+03  0.7561462E-02  0.1093388E+00
         22   -1    0    0    0    0  0.00000000000E+00  0.00000000000E+00  0.13531080571E+04  0.13531080571E+04  0.00000000000E+00 0. -1.
         22   -1    0    0    0    0 -0.00000000000E+00 -0.00000000000E+00 -0.14032051842E+04  0.14032051842E+04  0.00000000000E+00 0.  1.
         24    2    1    2    0    0  0.24890231548E+02  0.41756958682E+02 -0.13284939757E+04  0.13317694786E+04  0.79690234368E+02 0.  0.
         25    2    1    2    0    0  0.63013852465E+01 -0.12372882917E+03  0.40202284212E+02  0.18058862998E+03  0.12508996362E+03 0.  0.
        -24    2    1    2    0    0 -0.31191616794E+02  0.81971870484E+02  0.12381945645E+04  0.12439551327E+04  0.81279075486E+02 0.  0.
        -13    1    3    3    0    0  0.49573777922E+02  0.63784305866E+01 -0.75905594499E+03  0.76069979063E+03  0.00000000000E+00 0.  1.
         14    1    3    3    0    0 -0.24683546374E+02  0.35378528096E+02 -0.56943803072E+03  0.57106968799E+03  0.00000000000E+00 0. -1.
         11    1    5    5    0    0 -0.31820119359E+01  0.89562081125E+02  0.99742005006E+03  0.10014380899E+04  0.00000000000E+00 0. -1.
        -12    1    5    5    0    0 -0.28009604858E+02 -0.75902106413E+01  0.24077451441E+03  0.24251704281E+03  0.00000000000E+00 0.  1.
          5    1    4    4  501    0  0.52092885282E+02 -0.37402822731E+02 -0.18043210231E+02  0.66750802847E+02  0.41800000000E+01 0.  1.
         -5    1    4    4    0  501 -0.45791500036E+02 -0.86326006435E+02  0.58245494443E+02  0.11383782713E+03  0.41800000000E+01 0.  1.
</event>
<event>
11    1  0.8299058E-009  0.2783862E+03  0.7561462E-02  0.1009778E+00
         22   -1    0    0    0    0  0.00000000000E+00  0.00000000000E+00  0.56194063870E+03  0.56194063870E+03  0.00000000000E+00 0.  1.
         22   -1    0    0    0    0 -0.00000000000E+00 -0.00000000000E+00 -0.10275091539E+04  0.10275091539E+04  0.00000000000E+00 0. -1.
         24    2    1    2    0    0  0.14495070394E+03 -0.19623082701E+03 -0.85923588175E+03  0.89672680451E+03  0.79469600417E+02 0.  0.
         25    2    1    2    0    0 -0.22261563858E+03  0.29141093847E+03  0.38675997478E+03  0.54745827004E+03  0.12509684945E+03 0.  0.
        -24    2    1    2    0    0  0.77664934641E+02 -0.95180111461E+02  0.69073917188E+01  0.14526471809E+03  0.77220661560E+02 0.  0.
        -11    1    3    3    0    0  0.97223213708E+02 -0.10851580582E+03 -0.37516866782E+03  0.40246684672E+03  0.00000000000E+00 0.  1.
         12    1    3    3    0    0  0.47727490230E+02 -0.87715021192E+02 -0.48406721393E+03  0.49425995779E+03  0.00000000000E+00 0. -1.
         13    1    5    5    0    0  0.72359402171E+01 -0.48971996702E+02 -0.24664705473E+02  0.55307892636E+02  0.00000000000E+00 0. -1.
        -14    1    5    5    0    0  0.70428994424E+02 -0.46208114759E+02  0.31572097191E+02  0.89956825457E+02  0.00000000000E+00 0.  1.
          5    1    4    4  501    0 -0.20033217471E+03  0.25921051317E+03  0.38829278967E+03  0.50804707781E+03  0.41800000000E+01 0.  1.
         -5    1    4    4    0  501 -0.22283463874E+02  0.32200425300E+02 -0.15328148873E+01  0.39411192233E+02  0.41800000000E+01 0.  1.
</event>
<event>
11    1  0.8299058E-009  0.3557810E+03  0.7561462E-02  0.9790068E-01
         22   -1    0    0    0    0  0.00000000000E+00  0.00000000000E+00  0.14309319837E+04  0.14309319837E+04  0.00000000000E+00 0. -1.
         22   -1    0    0    0    0 -0.00000000000E+00 -0.00000000000E+00 -0.16287917099E+03  0.16287917099E+03  0.00000000000E+00 0. -1.
        -24    2    1    2    0    0 -0.31340149990E+03  0.95875558371E+02  0.16683668960E+03  0.37657254138E+03  0.80992438475E+02 0.  0.
         25    2    1    2    0    0  0.36194374398E+03  0.96189934730E+00  0.81825569807E+03  0.90343454860E+03  0.12508955643E+03 0.  0.
         24    2    1    2    0    0 -0.48542244082E+02 -0.96837457718E+02  0.28296042508E+03  0.31380406475E+03  0.81685654902E+02 0.  0.
        -13    1    5    5    0    0 -0.16889569679E+02 -0.54223636748E+02  0.52609560836E+02  0.77415930127E+02  0.00000000000E+00 0.  1.
         14    1    5    5    0    0 -0.31652674404E+02 -0.42613820970E+02  0.23035086424E+03  0.23638813462E+03  0.00000000000E+00 0. -1.
         11    1    3    3    0    0 -0.14257545792E+03  0.31675468692E+02  0.11771772296E+03  0.18758613706E+03  0.00000000000E+00 0. -1.
        -12    1    3    3    0    0 -0.17082604197E+03  0.64200089679E+02  0.49118966641E+02  0.18898640431E+03  0.00000000000E+00 0.  1.
          5    1    4    4  501    0  0.45438701504E+02  0.16566703743E+02  0.39236192198E+02  0.62418606565E+02  0.41800000000E+01 0. -1.
         -5    1    4    4    0  501  0.31650504247E+03 -0.15604804396E+02  0.77901950587E+03  0.84101594204E+03  0.41800000000E+01 0. -1.
</event>
<event>
11    1  0.8299058E-009  0.2105388E+03  0.7561462E-02  0.1047312E+00
         22   -1    0    0    0    0  0.00000000000E+00  0.00000000000E+00  0.22278341681E+04  0.22278341681E+04  0.00000000000E+00 0.  1.
         22   -1    0    0    0    0 -0.00000000000E+00 -0.00000000000E+00 -0.11074243944E+03  0.11074243944E+03  0.00000000000E+00 0.  1.
        -24    2    1    2    0    0  0.91734735970E+02  0.40194472770E+02 -0.16468648272E+02  0.12993469661E+03  0.81123064435E+02 0.  0.
         25    2    1    2    0    0 -0.24570048656E+03 -0.66628723438E+02  0.58673656682E+03  0.65170243736E+03  0.12509257424E+03 0.  0.
         24    2    1    2    0    0  0.15396575059E+03  0.26434250667E+02  0.15468238101E+04  0.15569394735E+04  0.83620588632E+02 0.  0.
        -13    1    5    5    0    0  0.13213810274E+03  0.47964510739E+02  0.13940410727E+04  0.14011108396E+04  0.00000000000E+00 0.  1.
         14    1    5    5    0    0  0.21827647845E+02 -0.21530260072E+02  0.15278273736E+03  0.15582863391E+03  0.00000000000E+00 0. -1.
         13    1    3    3    0    0  0.39434728336E+01 -0.20564188730E+02 -0.93508458378E+01  0.22931967948E+02  0.00000000000E+00 0. -1.
        -14    1    3    3    0    0  0.87791263137E+02  0.60758661500E+02 -0.71178024342E+01  0.10700272867E+03  0.00000000000E+00 0.  1.
          5    1    4    4  501    0 -0.98786179166E+02  0.22392413401E+02  0.30802170411E+03  0.32427607371E+03  0.41800000000E+01 0.  1.
         -5    1    4    4    0  501 -0.14691430739E+03 -0.89021136839E+02  0.27871486271E+03  0.32742636365E+03  0.41800000000E+01 0.  1.
</event>
<event>
11    1  0.8299058E-009  0.1874836E+03  0.7561462E-02  0.1063745E+00
         22   -1    0    0    0    0  0.00000000000E+00  0.00000000000E+00  0.31547631809E+03  0.31547631809E+03  0.00000000000E+00 0. -1.
         22   -1    0    0    0    0 -0.00000000000E+00 -0.00000000000E+00 -0.70511306414E+03  0.70511306414E+03  0.00000000000E+00 0. -1.
         24    2    1    2    0    0 -0.59108125037E+01 -0.51754611946E+02 -0.39618144891E+03  0.40707546886E+03  0.77699545196E+02 0.  0.
         25    2    1    2    0    0 -0.96085142051E+02 -0.48192096510E+02 -0.25545735125E+03  0.30406772643E+03  0.12507554223E+03 0.  0.
        -24    2    1    2    0    0  0.10199595455E+03  0.99946708456E+02  0.26200205411E+03  0.30944618693E+03  0.81971622975E+02 0.  0.
        -11    1    3    3    0    0  0.12270025749E+02  0.15862664419E+01 -0.77974466741E+01  0.14624293068E+02  0.00000000000E+00 0.  1.
         12    1    3    3    0    0 -0.18180838252E+02 -0.53340878388E+02 -0.38838400224E+03  0.39245117579E+03  0.00000000000E+00 0. -1.
         11    1    5    5    0    0  0.10785525669E+03  0.94927129778E+02  0.26477554514E+03  0.30124741604E+03  0.00000000000E+00 0. -1.
        -12    1    5    5    0    0 -0.58593021373E+01  0.50195786773E+01 -0.27734910354E+01  0.81987708931E+01  0.00000000000E+00 0.  1.
          5    1    4    4  501    0 -0.29069430501E+02  0.41358216407E+02 -0.57648175482E+02  0.76787488502E+02  0.41800000000E+01 0.  1.
         -5    1    4    4    0  501 -0.67015711549E+02 -0.89550312916E+02 -0.19780917576E+03  0.22728023793E+03  0.41800000000E+01 0.  1.
</event>
<event>
11    1  0.8299058E-009  0.1582503E+03  0.7561462E-02  0.1088735E+00
         22   -1    0    0    0    0  0.00000000000E+00  0.00000000000E+00  0.98410453150E+03  0.98410453150E+03  0.00000000000E+00 0.  1.
         22   -1    0    0    0    0 -0.00000000000E+00 -0.00000000000E+00 -0.51520782780E+03  0.51520782780E+03  0.00000000000E+00 0. -1.
         24    2    1    2    0    0  0.97757582475E+01  0.98566654023E+02 -0.42675234974E+03  0.44516807443E+03  0.79032245009E+02 0.  0.
         25    2    1    2    0    0 -0.22824827005E+02 -0.78425037053E+02 -0.53826335398E+01  0.14948667353E+03  0.12508330685E+03 0.  0.
        -24    2    1    2    0    0  0.13049068758E+02 -0.20141616970E+02  0.90103168697E+03  0.90465761135E+03  0.77274380654E+02 0.  0.
        -11    1    3    3    0    0 -0.23891709195E+02  0.13577276302E+02 -0.45891595511E+02  0.53490136834E+02  0.00000000000E+00 0.  1.
         12    1    3    3    0    0  0.33667467443E+02  0.84989377722E+02 -0.38086075423E+03  0.39167793760E+03  0.00000000000E+00 0. -1.
         13    1    5    5    0    0  0.37366826743E+02 -0.19722824632E+02  0.28194935776E+03  0.28509771990E+03  0.00000000000E+00 0. -1.
        -14    1    5    5    0    0 -0.24317757985E+02 -0.41879233744E+00  0.61908232921E+03  0.61955989144E+03  0.00000000000E+00 0.  1.
          5    1    4    4  501    0 -0.67895389732E+02 -0.19039826198E+02 -0.19968726771E+02  0.73406548600E+02  0.41800000000E+01 0.  1.
         -5    1    4    4    0  501  0.45070562727E+02 -0.59385210856E+02  0.14586093232E+02  0.76080124925E+02  0.41800000000E+01 0.  1.
</event>
<event>
11    1  0.8299058E-009  0.1367439E+03  0.7561462E-02  0.1111250E+00
         22   -1    0    0    0    0  0.00000000000E+00  0.00000000000E+00  0.10130518164E+04  0.10130518164E+04  0.00000000000E+00 0.  1.
         22   -1    0    0    0    0 -0.00000000000E+00 -0.00000000000E+00 -0.10286190720E+03  0.10286190720E+03  0.00000000000E+00 0. -1.
        -24    2    1    2    0    0  0.44461615016E+02  0.27450018425E+02 -0.53716537912E+02  0.11059916158E+03  0.81341068196E+02 0.  0.
         25    2    1    2    0    0 -0.81657179251E+02 -0.40713407459E+02  0.32177837686E+03  0.35709106903E+03  0.12508889357E+03 0.  0.
         24    2    1    2    0    0  0.37195564235E+02  0.13263389034E+02  0.64212807023E+03  0.64822349298E+03  0.79409135357E+02 0.  0.
        -13    1    5    5    0    0  0.37400285324E+02  0.15129513704E+02  0.64418012193E+03  0.64544226156E+03  0.00000000000E+00 0.  1.
         14    1    5    5    0    0 -0.20472108948E+00 -0.18661246699E+01 -0.20520516947E+01  0.27812314117E+01  0.00000000000E+00 0. -1.
         11    1    3    3    0    0  0.47393296295E+02  0.43519464641E+02 -0.64436396483E+02  0.91061064830E+02  0.00000000000E+00 0. -1.
        -12    1    3    3    0    0 -0.29316812782E+01 -0.16069446215E+02  0.10719858571E+02  0.19538096749E+02  0.00000000000E+00 0.  1.
          5    1    4    4  501    0  0.11061965210E+02 -0.45873211820E+00 -0.65527179956E+01  0.13527306553E+02  0.41800000000E+01 0. -1.
         -5    1    4    4    0  501 -0.92719144461E+02 -0.40254675341E+02  0.32833109486E+03  0.34356376248E+03  0.41800000000E+01 0. -1.
</event>
<event>
11    1  0.8299058E-009  0.1506291E+03  0.7561462E-02  0.1096238E+00
         22   -1    0    0    0    0  0.00000000000E+00  0.00000000000E+00  0.68807560429E+03  0.68807560429E+03  0.00000000000E+00 0. -1.
         22   -1    0    0    0    0 -0.00000000000E+00 -0.00000000000E+00 -0.36667344989E+03  0.36667344989E+03  0.00000000000E+00 0.  1.
        -24    2    1    2    0    0 -0.69521133876E+02 -0.47408061429E+02 -0.30147211520E+03  0.32266287662E+03  0.78391219904E+02 0.  0.
         25    2    1    2    0    0  0.86935533642E+02  0.15695481330E+02  0.63172549287E+02  0.16566095193E+03  0.12509454371E+03 0.  0.
         24    2    1    2    0    0 -0.17414399767E+02  0.31712580100E+02  0.55970172032E+03  0.56642522564E+03  0.79136410421E+02 0.  0.
        -13    1    5    5    0    0  0.14275160018E+02  0.41374235093E+02  0.17853783084E+03  0.18382427632E+03  0.00000000000E+00 0.  1.
         14    1    5    5    0    0 -0.31689559785E+02 -0.96616549932E+01  0.38116388948E+03  0.38260094932E+03  0.00000000000E+00 0. -1.
         13    1    3    3    0    0  0.26672437579E+01 -0.31082861340E+02 -0.38928518040E+02  0.49886751499E+02  0.00000000000E+00 0. -1.
        -14    1    3    3    0    0 -0.72188377633E+02 -0.16325200090E+02 -0.26254359716E+03  0.27277612512E+03  0.00000000000E+00 0.  1.
          5    1    4    4  501    0 -0.13550861849E+01 -0.50841998595E+01  0.73922736159E+02  0.74227546558E+02  0.41800000000E+01 0.  1.
         -5    1    4    4    0  501  0.88290619827E+02  0.20779681189E+02 -0.10750186872E+02  0.91433405370E+02  0.41800000000E+01 0.  1.
</event>
<event>
11    1  0.8299058E-009  0.1552865E+03  0.7561462E-02  0.1091596E+00
         22   -1    0    0    0    0  0.00000000000E+00  0.00000000000E+00  0.21773383733E+04  0.21773383733E+04  0.00000000000E+00 0.  1.
         22   -1    0    0    0    0 -0.00000000000E+00 -0.00000000000E+00 -0.27344665694E+03  0.27344665694E+03  0.00000000000E+00 0.  1.
         24    2    1    2    0    0  0.85707159149E+02  0.47871472603E+02 -0.23403151466E+03  0.26652093618E+03  0.81395728076E+02 0.  0.
         25    2    1    2    0    0 -0.22718005542E+02 -0.22932953621E+01  0.16564809342E+03  0.20882762445E+03  0.12509324082E+03 0.  0.
        -24    2    1    2    0    0 -0.62989153607E+02 -0.45578177241E+02  0.19722751376E+04  0.19754364696E+04  0.80218597373E+02 0.  0.
        -13    1    3    3    0    0 -0.93049613810E+01  0.29264405868E+02 -0.56461577084E+02  0.64272058034E+02  0.00000000000E+00 0.  1.
         14    1    3    3    0    0  0.95012120530E+02  0.18607066735E+02 -0.17756993758E+03  0.20224887815E+03  0.00000000000E+00 0. -1.
         13    1    5    5    0    0 -0.39988519530E+02 -0.36614868859E+02  0.49594445317E+03  0.49889941967E+03  0.00000000000E+00 0. -1.
        -14    1    5    5    0    0 -0.23000634077E+02 -0.89633083820E+01  0.14763306844E+04  0.14765370499E+04  0.00000000000E+00 0.  1.
          5    1    4    4  501    0 -0.59171836800E+02 -0.42237551571E+02  0.99024099947E+02  0.12291688982E+03  0.41800000000E+01 0. -1.
         -5    1    4    4    0  501  0.36453831259E+02  0.39944256209E+02  0.66623993477E+02  0.85910734628E+02  0.41800000000E+01 0. -1.
</event>
<event>
11    1  0.8299058E-009  0.1640736E+03  0.7561462E-02  0.1083307E+00
         22   -1    0    0    0    0  0.00000000000E+00  0.00000000000E+00  0.12158388304E+03  0.12158388304E+03  0.00000000000E+00 0.  1.
         22   -1    0    0    0    0 -0.00000000000E+00 -0.00000000000E+00 -0.14533929704E+04  0.14533929704E+04  0.00000000000E+00 0.  1.
         24    2    1    2    0    0  0.10660490019E+03 -0.41514866756E+02 -0.12828082454E+04  0.12904048035E+04  0.80370850063E+02 0.  0.
         25    2    1    2    0    0 -0.37516489731E+02 -0.12869244032E+02 -0.89476605656E+02  0.15885608919E+03  0.12512429688E+03 0.  0.
        -24    2    1    2    0    0 -0.69088410458E+02  0.54384110788E+02  0.40475763701E+02  0.12571596073E+03  0.80220791384E+02 0.  0.
        -13    1    3    3    0    0  0.44426983111E+02 -0.16273704439E+02 -0.93414642671E+03  0.93534386021E+03  0.00000000000E+00 0.  1.
         14    1    3    3    0    0  0.62177917078E+02 -0.25241162317E+02 -0.34866181871E+03  0.35506094332E+03  0.00000000000E+00 0. -1.
         13    1    5    5    0    0  0.16766060054E+02  0.10049811413E+02 -0.29710983768E+01  0.19771871554E+02  0.00000000000E+00 0. -1.
        -14    1    5    5    0    0 -0.85854470512E+02  0.44334299375E+02  0.43446862078E+02  0.10594408918E+03  0.00000000000E+00 0.  1.
          5    1    4    4  501    0  0.21084934497E+02  0.43806785452E+02 -0.42261395724E+02  0.64553132247E+02  0.41800000000E+01 0.  1.
         -5    1    4    4    0  501 -0.58601424229E+02 -0.56676029484E+02 -0.47215209932E+02  0.94302956945E+02  0.41800000000E+01 0.  1.
</event>
<event>
11    1  0.8299058E-009  0.1538866E+03  0.7561462E-02  0.1092972E+00
         22   -1    0    0    0    0  0.00000000000E+00  0.00000000000E+00  0.11664677969E+04  0.11664677969E+04  0.00000000000E+00 0.  1.
         22   -1    0    0    0    0 -0.00000000000E+00 -0.00000000000E+00 -0.10304529837E+03  0.10304529837E+03  0.00000000000E+00 0. -1.
         24    2    1    2    0    0 -0.51306040528E+02  0.71499834966E+02 -0.43773922471E+02  0.12169811894E+03  0.71761686639E+02 0.  0.
         25    2    1    2    0    0  0.71998046585E+02 -0.77740125298E+02  0.35523348262E+03  0.39123575633E+03  0.12508934434E+03 0.  0.
        -24    2    1    2    0    0 -0.20692006057E+02  0.62402903325E+01  0.75196293839E+03  0.75657922002E+03  0.80602451012E+02 0.  0.
        -13    1    3    3    0    0  0.10300996494E+02 -0.18588370851E+01  0.76568080741E+01  0.12968905658E+02  0.00000000000E+00 0.  1.
         14    1    3    3    0    0 -0.61607037022E+02  0.73358672051E+02 -0.51430730546E+02  0.10872921328E+03  0.00000000000E+00 0. -1.
         11    1    5    5    0    0 -0.29120995906E+02 -0.52954941000E+01  0.95968484460E+02  0.10042920228E+03  0.00000000000E+00 0. -1.
        -12    1    5    5    0    0  0.84289898488E+01  0.11535784433E+02  0.65599445393E+03  0.65615001774E+03  0.00000000000E+00 0.  1.
          5    1    4    4  501    0  0.64967656847E+02  0.28806672420E+01  0.25036326357E+03  0.25870510398E+03  0.41800000000E+01 0.  1.
         -5    1    4    4    0  501  0.70303897386E+01 -0.80620792540E+02  0.10487021905E+03  0.13253065235E+03  0.41800000000E+01 0.  1.
</event>
<event>
11    1  0.8299058E-009  0.3262093E+03  0.7561462E-02  0.9896710E-01
         22   -1    0    0    0    0  0.00000000000E+00  0.00000000000E+00  0.52020941494E+03  0.52020941494E+03  0.00000000000E+00 0. -1.
         22   -1    0    0    0    0 -0.00000000000E+00 -0.00000000000E+00 -0.14812291955E+04  0.14812291955E+04  0.00000000000E+00 0. -1.
         24    2    1    2    0    0  0.66970404388E+02 -0.45026041146E+01 -0.10900516718E+04  0.10951405033E+04  0.81331212919E+02 0.  0.
         25    2    1    2    0    0  0.95336526919E+02  0.26357301169E+03 -0.26200598191E+03  0.40355227061E+03  0.12509002641E+03 0.  0.
        -24    2    1    2    0    0 -0.16230693131E+03 -0.25907040757E+03  0.39103787323E+03  0.50274583647E+03  0.79885804471E+02 0.  0.
        -11    1    3    3    0    0  0.39665718598E+02  0.25631139165E+02 -0.27130983810E+03  0.27538945655E+03  0.00000000000E+00 0.  1.
         12    1    3    3    0    0  0.27304685790E+02 -0.30133743280E+02 -0.81874183374E+03  0.81975104676E+03  0.00000000000E+00 0. -1.
         11    1    5    5    0    0 -0.66470039223E+02 -0.13636337159E+03  0.25129056153E+03  0.29353054618E+03  0.00000000000E+00 0. -1.
        -12    1    5    5    0    0 -0.95836892084E+02 -0.12270703598E+03  0.13974731170E+03  0.20921529029E+03  0.00000000000E+00 0.  1.
          5    1    4    4  501    0 -0.16980398920E+02  0.61024118358E+01 -0.44691083707E+02  0.48377047664E+02  0.41800000000E+01 0. -1.
         -5    1    4    4    0  501  0.11231692584E+03  0.25747059985E+03 -0.21731489820E+03  0.35517522295E+03  0.41800000000E+01 0. -1.
</event>
<event>
11    1  0.8299058E-009  0.1314527E+03  0.7561462E-02  0.1117497E+00
         22   -1    0    0    0    0  0.00000000000E+00  0.00000000000E+00  0.54783685880E+03  0.54783685880E+03  0.00000000000E+00 0.  1.
         22   -1    0    0    0    0 -0.00000000000E+00 -0.00000000000E+00 -0.25756799591E+03  0.25756799591E+03  0.00000000000E+00 0.  1.
        -24    2    1    2    0    0 -0.27186024678E+02  0.77115704014E+01 -0.19981009803E+03  0.21671231422E+03  0.79003820176E+02 0.  0.
         25    2    1    2    0    0  0.39815777934E+02  0.30370117896E+02  0.61212499251E+02  0.14799074391E+03  0.12508656996E+03 0.  0.
         24    2    1    2    0    0 -0.12629753256E+02 -0.38081688298E+02  0.42886646167E+03  0.44070179658E+03  0.93176745542E+02 0.  0.
        -11    1    5    5    0    0  0.10178367270E+02  0.17248654383E+01  0.34461099265E+03  0.34476558786E+03  0.00000000000E+00 0.  1.
         12    1    5    5    0    0 -0.22808120526E+02 -0.39806553736E+02  0.84255469026E+02  0.95936208717E+02  0.00000000000E+00 0. -1.
         11    1    3    3    0    0 -0.85597725821E+00 -0.75983885984E+01  0.53317277263E+01  0.93217770251E+01  0.00000000000E+00 0. -1.
        -12    1    3    3    0    0 -0.26330047420E+02  0.15309959000E+02 -0.20514182576E+03  0.20739053720E+03  0.00000000000E+00 0.  1.
          5    1    4    4  501    0  0.76351962634E+02 -0.19606369696E+01  0.62846004455E+02  0.98997772558E+02  0.41800000000E+01 0. -1.
         -5    1    4    4    0  501 -0.36536184700E+02  0.32330754866E+02 -0.16335052036E+01  0.48992971352E+02  0.41800000000E+01 0. -1.
</event>
<event>
11    1  0.8299058E-009  0.1709949E+03  0.7561462E-02  0.1077169E+00
         22   -1    0    0    0    0  0.00000000000E+00  0.00000000000E+00  0.80320381434E+03  0.80320381434E+03  0.00000000000E+00 0. -1.
         22   -1    0    0    0    0 -0.00000000000E+00 -0.00000000000E+00 -0.28427078099E+03  0.28427078099E+03  0.00000000000E+00 0.  1.
         24    2    1    2    0    0  0.29362332858E+02  0.11264294885E+03 -0.16852540722E+03  0.22004582185E+03  0.80428666015E+02 0.  0.
         25    2    1    2    0    0  0.33886731988E+01 -0.12081783079E+03  0.20970414491E+01  0.17395859507E+03  0.12509501938E+03 0.  0.
        -24    2    1    2    0    0 -0.32751006057E+02  0.81748819402E+01  0.68536139912E+03  0.69347017842E+03  0.10020570771E+03 0.  0.
        -11    1    3    3    0    0  0.45895141551E+02  0.31618413295E+02 -0.46200234569E+02  0.72391641448E+02  0.00000000000E+00 0.  1.
         12    1    3    3    0    0 -0.16532808693E+02  0.81024535552E+02 -0.12232517265E+03  0.14765418040E+03  0.00000000000E+00 0. -1.
         13    1    5    5    0    0 -0.10564550297E+02  0.49644985194E+02  0.48566604819E+03  0.48831111460E+03  0.00000000000E+00 0. -1.
        -14    1    5    5    0    0 -0.22186455760E+02 -0.41470103254E+02  0.19969535093E+03  0.20515906382E+03  0.00000000000E+00 0.  1.
          5    1    4    4  501    0 -0.18912647459E+02  0.43524700484E+01 -0.36047602782E+02  0.41152573379E+02  0.41800000000E+01 0. -1.
         -5    1    4    4    0  501  0.22301320658E+02 -0.12517030084E+03  0.38144644231E+02  0.13280602169E+03  0.41800000000E+01 0. -1.
</event>
<event>
11    1  0.8299058E-009  0.1490638E+03  0.7561462E-02  0.1097839E+00
         22   -1    0    0    0    0  0.00000000000E+00  0.00000000000E+00  0.77241962469E+02  0.77241962469E+02  0.00000000000E+00 0. -1.
         22   -1    0    0    0    0 -0.00000000000E+00 -0.00000000000E+00 -0.24060122644E+04  0.24060122644E+04  0.00000000000E+00 0. -1.
         24    2    1    2    0    0 -0.51732274726E+02  0.44235044174E+02 -0.74548592286E+03  0.75291039495E+03  0.80571919777E+02 0.  0.
         25    2    1    2    0    0  0.51235459367E+02 -0.81598499631E+02 -0.16241554724E+04  0.16318121880E+04  0.12508649351E+03 0.  0.
        -24    2    1    2    0    0  0.49681535893E+00  0.37363455457E+02  0.40871093340E+02  0.98531643935E+02  0.81497018084E+02 0.  0.
        -13    1    3    3    0    0 -0.52619698530E+01 -0.62016441868E+01 -0.56510893487E+01  0.99037128482E+01  0.00000000000E+00 0.  1.
         14    1    3    3    0    0 -0.46470304873E+02  0.50436688361E+02 -0.73983483352E+03  0.74300668210E+03  0.00000000000E+00 0. -1.
         11    1    5    5    0    0  0.39437727820E+02  0.28112708691E+02  0.30319342445E+02  0.57139489776E+02  0.00000000000E+00 0. -1.
        -12    1    5    5    0    0 -0.38940912461E+02  0.92507467661E+01  0.10551750894E+02  0.41392154159E+02  0.00000000000E+00 0.  1.
          5    1    4    4  501    0  0.11414662204E+02 -0.98668908090E+02 -0.13964273536E+04  0.13999616688E+04  0.41800000000E+01 0. -1.
         -5    1    4    4    0  501  0.39820797163E+02  0.17070408459E+02 -0.22772811881E+03  0.23185051915E+03  0.41800000000E+01 0. -1.
</event>
<event>
11    1  0.8299058E-009  0.1426176E+03  0.7561462E-02  0.1104670E+00
         22   -1    0    0    0    0  0.00000000000E+00  0.00000000000E+00  0.29162835427E+03  0.29162835427E+03  0.00000000000E+00 0. -1.
         22   -1    0    0    0    0 -0.00000000000E+00 -0.00000000000E+00 -0.13321524566E+04  0.13321524566E+04  0.00000000000E+00 0.  1.
        -24    2    1    2    0    0  0.52693555699E+02  0.42067331864E+02 -0.12124367782E+04  0.12169914623E+04  0.80740367337E+02 0.  0.
         25    2    1    2    0    0 -0.77715015327E+02 -0.54842025257E+02 -0.53627367843E+02  0.16604503514E+03  0.12509111787E+03 0.  0.
         24    2    1    2    0    0  0.25021459628E+02  0.12774693393E+02  0.22554004367E+03  0.24074431348E+03  0.79374094905E+02 0.  0.
        -11    1    5    5    0    0  0.19936130954E+02  0.22695182908E+02  0.23178047435E+02  0.38075484601E+02  0.00000000000E+00 0.  1.
         12    1    5    5    0    0  0.50853286736E+01 -0.99204895146E+01  0.20236199624E+03  0.20266882888E+03  0.00000000000E+00 0. -1.
         13    1    3    3    0    0  0.18140610289E+02  0.87735375101E+00 -0.48108394466E+02  0.51422457247E+02  0.00000000000E+00 0. -1.
        -14    1    3    3    0    0  0.34552945410E+02  0.41189978113E+02 -0.11643283837E+04  0.11655690050E+04  0.00000000000E+00 0.  1.
          5    1    4    4  501    0 -0.87144275358E+01 -0.48238268219E+01 -0.76858557466E+02  0.77613921485E+02  0.41800000000E+01 0.  1.
         -5    1    4    4    0  501 -0.69000587791E+02 -0.50018198435E+02  0.23231189624E+02  0.88431113651E+02  0.41800000000E+01 0.  1.
</event>
<event>
11    1  0.8299058E-009  0.1357180E+03  0.7561462E-02  0.1112436E+00
         22   -1    0    0    0    0  0.00000000000E+00  0.00000000000E+00  0.42648208658E+03  0.42648208658E+03  0.00000000000E+00 0.  1.
         22   -1    0    0    0    0 -0.00000000000E+00 -0.00000000000E+00 -0.87131140783E+02  0.87131140783E+02  0.00000000000E+00 0.  1.
        -24    2    1    2    0    0 -0.82122249133E+01  0.21238647297E+02 -0.17961840171E+02  0.85197676668E+02  0.80109273061E+02 0.  0.
         25    2    1    2    0    0  0.49451429261E+02  0.14870248352E+02  0.17171137810E+03  0.21862653187E+03  0.12508475097E+03 0.  0.
         24    2    1    2    0    0 -0.41239204347E+02 -0.36108895649E+02  0.18560140787E+03  0.20978901883E+03  0.80987810792E+02 0.  0.
        -13    1    5    5    0    0 -0.48020665428E+01 -0.41922917388E+02  0.35271291384E+02  0.54996862104E+02  0.00000000000E+00 0.  1.
         14    1    5    5    0    0 -0.36437137805E+02  0.58140217389E+01  0.15033011649E+03  0.15479215672E+03  0.00000000000E+00 0. -1.
         11    1    3    3    0    0 -0.41423127048E+02  0.74312993510E+01  0.52207566503E+01  0.42407027301E+02  0.00000000000E+00 0. -1.
        -12    1    3    3    0    0  0.33210902135E+02  0.13807347946E+02 -0.23182596821E+02  0.42790649368E+02  0.00000000000E+00 0.  1.
          5    1    4    4  501    0  0.51981615896E+02 -0.16891115938E+02  0.12525550027E+02  0.56229529540E+02  0.41800000000E+01 0.  1.
         -5    1    4    4    0  501 -0.25301866357E+01  0.31761364290E+02  0.15918582807E+03  0.16239700233E+03  0.41800000000E+01 0.  1.
</event>
<event>
11    1  0.8299058E-009  0.1679761E+03  0.7561462E-02  0.1079806E+00
         22   -1    0    0    0    0  0.00000000000E+00  0.00000000000E+00  0.57384283530E+03  0.57384283530E+03  0.00000000000E+00 0.  1.
         22   -1    0    0    0    0 -0.00000000000E+00 -0.00000000000E+00 -0.66279829362E+03  0.66279829362E+03  0.00000000000E+00 0.  1.
        -24    2    1    2    0    0 -0.31311695581E+01 -0.75750831103E+02 -0.56789389661E+03  0.57797180160E+03  0.76157291172E+02 0.  0.
         25    2    1    2    0    0  0.11375232764E+03  0.51137088303E+02  0.18448146444E+02  0.17759606985E+03  0.12508171759E+03 0.  0.
         24    2    1    2    0    0 -0.11062115808E+03  0.24613742800E+02  0.46049029184E+03  0.48107325749E+03  0.80853529525E+02 0.  0.
        -11    1    5    5    0    0 -0.95808284908E+02  0.32059451191E+02  0.45055941125E+03  0.46174757058E+03  0.00000000000E+00 0.  1.
         12    1    5    5    0    0 -0.14812873172E+02 -0.74457083912E+01  0.99308805880E+01  0.19325686904E+02  0.00000000000E+00 0. -1.
         13    1    3    3    0    0 -0.28598943381E+02 -0.16980464409E+02 -0.92811828101E+02  0.98591435579E+02  0.00000000000E+00 0. -1.
        -14    1    3    3    0    0  0.25467773823E+02 -0.58770366694E+02 -0.47508206851E+03  0.47938036602E+03  0.00000000000E+00 0.  1.
          5    1    4    4  501    0  0.62811734996E+02  0.16906506635E+02 -0.52498487883E+02  0.83694131513E+02  0.41800000000E+01 0.  1.
         -5    1    4    4    0  501  0.50940592643E+02  0.34230581667E+02  0.70946634327E+02  0.93901938332E+02  0.41800000000E+01 0.  1.
</event>
<event>
11    1  0.8299058E-009  0.1710902E+03  0.7561462E-02  0.1077087E+00
         22   -1    0    0    0    0  0.00000000000E+00  0.00000000000E+00  0.13074704395E+04  0.13074704395E+04  0.00000000000E+00 0. -1.
         22   -1    0    0    0    0 -0.00000000000E+00 -0.00000000000E+00 -0.11392181052E+04  0.11392181052E+04  0.00000000000E+00 0.  1.
         24    2    1    2    0    0 -0.35708665409E+02 -0.17801120167E+02 -0.10436220519E+04  0.10475134476E+04  0.80903937232E+02 0.  0.
         25    2    1    2    0    0 -0.64989765398E+02 -0.44543398677E+02 -0.28704997985E+02  0.15058606222E+03  0.12507758093E+03 0.  0.
        -24    2    1    2    0    0  0.10069843081E+03  0.62344518844E+02  0.12405793842E+04  0.12485890349E+04  0.76878843505E+02 0.  0.
        -13    1    3    3    0    0 -0.32498246992E+02  0.80648193513E+01 -0.94223263847E+03  0.94282740858E+03  0.00000000000E+00 0.  1.
         14    1    3    3    0    0 -0.32104184176E+01 -0.25865939518E+02 -0.10138941342E+03  0.10468603902E+03  0.00000000000E+00 0. -1.
         13    1    5    5    0    0  0.56601175153E+01  0.43148779561E+02  0.32830039520E+03  0.33117216610E+03  0.00000000000E+00 0. -1.
        -14    1    5    5    0    0  0.95038313292E+02  0.19195739282E+02  0.91227898899E+03  0.91741686880E+03  0.00000000000E+00 0.  1.
          5    1    4    4  501    0 -0.14070008550E+02 -0.81005379687E+02 -0.30500287203E+02  0.87792804934E+02  0.41800000000E+01 0.  1.
         -5    1    4    4    0  501 -0.50919756848E+02  0.36461981010E+02  0.17952892180E+01  0.62793257281E+02  0.41800000000E+01 0.  1.
</event>
<event>
11    1  0.8299058E-009  0.1660367E+03  0.7561462E-02  0.1081533E+00
         22   -1    0    0    0    0  0.00000000000E+00  0.00000000000E+00  0.75168107340E+02  0.75168107340E+02  0.00000000000E+00 0.  1.
         22   -1    0    0    0    0 -0.00000000000E+00 -0.00000000000E+00 -0.90305075467E+03  0.90305075467E+03  0.00000000000E+00 0. -1.
         24    2    1    2    0    0 -0.91120540927E+02  0.69567410765E+02 -0.61670057645E+03  0.63281507646E+03  0.83622618797E+02 0.  0.
         25    2    1    2    0    0  0.95413972301E+02 -0.20431633082E+02 -0.19293465588E+03  0.24977824934E+03  0.12507643528E+03 0.  0.
        -24    2    1    2    0    0 -0.42934313736E+01 -0.49135777684E+02 -0.18247414994E+02  0.95625536212E+02  0.79865617260E+02 0.  0.
        -11    1    3    3    0    0 -0.11545555458E+02  0.49422665271E+02 -0.13610826234E+03  0.14526306747E+03  0.00000000000E+00 0.  1.
         12    1    3    3    0    0 -0.79574985470E+02  0.20144745494E+02 -0.48059231412E+03  0.48755200899E+03  0.00000000000E+00 0. -1.
         13    1    5    5    0    0  0.27556240987E+02 -0.42676080815E+02 -0.32322008379E+02  0.60210518323E+02  0.00000000000E+00 0. -1.
        -14    1    5    5    0    0 -0.31849672361E+02 -0.64596968688E+01  0.14074593385E+02  0.35415017889E+02  0.00000000000E+00 0.  1.
          5    1    4    4  501    0  0.19982973355E+01  0.16725715189E+02 -0.12987605410E+03  0.13103054823E+03  0.41800000000E+01 0. -1.
         -5    1    4    4    0  501  0.93415674965E+02 -0.37157348271E+02 -0.63058601777E+02  0.11874770111E+03  0.41800000000E+01 0. -1.
</event>
<event>
11    1  0.8299058E-009  0.2675400E+03  0.7561462E-02  0.1014949E+00
         22   -1    0    0    0    0  0.00000000000E+00  0.00000000000E+00  0.37795321741E+03  0.37795321741E+03  0.00000000000E+00 0. -1.
         22   -1    0    0    0    0 -0.00000000000E+00 -0.00000000000E+00 -0.31359487802E+03  0.31359487802E+03  0.00000000000E+00 0. -1.
        -24    2    1    2    0    0  0.24271150510E+03  0.83613769059E+02 -0.76421670920E+02  0.27952944086E+03  0.79976868149E+02 0.  0.
         25    2    1    2    0    0 -0.21726284120E+03  0.34435150584E+02  0.75489257402E+02  0.26407263885E+03  0.12508720494E+03 0.  0.
         24    2    1    2    0    0 -0.25448663890E+02 -0.11804891964E+03  0.65290752910E+02  0.14794601572E+03  0.55153959315E+02 0.  0.
        -11    1    5    5    0    0  0.63663527894E+00 -0.10203753638E+03  0.52766231675E+02  0.11487532085E+03  0.00000000000E+00 0.  1.
         12    1    5    5    0    0 -0.26085299169E+02 -0.16011383260E+02  0.12524521234E+02  0.33070694864E+02  0.00000000000E+00 0. -1.
         11    1    3    3    0    0  0.15983976040E+03  0.14727179453E+02 -0.36546974570E+02  0.16462478601E+03  0.00000000000E+00 0. -1.
        -12    1    3    3    0    0  0.82871744693E+02  0.68886589605E+02 -0.39874696350E+02  0.11490465484E+03  0.00000000000E+00 0.  1.
          5    1    4    4  501    0 -0.65636787775E+02  0.60885994841E+00 -0.33928999600E+02  0.74008161940E+02  0.41800000000E+01 0. -1.
         -5    1    4    4    0  501 -0.15162605343E+03  0.33826290636E+02  0.10941825700E+03  0.19006447691E+03  0.41800000000E+01 0. -1.
</event>
<event>
11    1  0.8299058E-009  0.1428957E+03  0.7561462E-02  0.1104367E+00
         22   -1    0    0    0    0  0.00000000000E+00  0.00000000000E+00  0.17448371475E+03  0.17448371475E+03  0.00000000000E+00 0. -1.
         22   -1    0    0    0    0 -0.00000000000E+00 -0.00000000000E+00 -0.54592425042E+03  0.54592425042E+03  0.00000000000E+00 0.  1.
        -24    2    1    2    0    0  0.10065856266E+02 -0.67395236350E+02 -0.36798375514E+03  0.38303798142E+03  0.81624823558E+02 0.  0.
         25    2    1    2    0    0 -0.23265940322E+02  0.70368859449E+02 -0.12462508007E+03  0.19149819269E+03  0.12508823631E+03 0.  0.
         24    2    1    2    0    0  0.13200084055E+02 -0.29736230986E+01  0.12116829954E+03  0.14587179105E+03  0.80085816206E+02 0.  0.
        -11    1    5    5    0    0  0.85181309497E+01  0.35694435549E+02  0.32475905155E+02  0.49003425387E+02  0.00000000000E+00 0.  1.
         12    1    5    5    0    0  0.46819531055E+01 -0.38668058648E+02  0.88692394384E+02  0.96868365662E+02  0.00000000000E+00 0. -1.
         13    1    3    3    0    0  0.13082954052E+02  0.98909603662E+01 -0.16956458102E+02  0.23590596751E+02  0.00000000000E+00 0. -1.
        -14    1    3    3    0    0 -0.30170977860E+01 -0.77286196717E+02 -0.35102729704E+03  0.35944738467E+03  0.00000000000E+00 0.  1.
          5    1    4    4  501    0 -0.44294350178E+02  0.88156789814E+02 -0.47661832721E+02  0.10964821816E+03  0.41800000000E+01 0. -1.
         -5    1    4    4    0  501  0.21028409856E+02 -0.17787930365E+02 -0.76963247353E+02  0.81849974532E+02  0.41800000000E+01 0. -1.
</event>
<event>
11    1  0.8299058E-009  0.1500974E+03  0.7561462E-02  0.1096779E+00
         22   -1    0    0    0    0  0.00000000000E+00  0.00000000000E+00  0.91943338806E+03  0.91943338806E+03  0.00000000000E+00 0. -1.
         22   -1    0    0    0    0 -0.00000000000E+00 -0.00000000000E+00 -0.31925950816E+03  0.31925950816E+03  0.00000000000E+00 0. -1.
        -24    2    1    2    0    0  0.47203826443E+00 -0.81038566250E+02 -0.24708823492E+03  0.27381159695E+03  0.85748018932E+02 0.  0.
         25    2    1    2    0    0 -0.19994864926E+02  0.99045512009E+02  0.57993128940E+02  0.17093873670E+03  0.12508813145E+03 0.  0.
         24    2    1    2    0    0  0.19522826661E+02 -0.18006945759E+02  0.78926898588E+03  0.79394256256E+03  0.81816072476E+02 0.  0.
        -13    1    5    5    0    0 -0.97067998378E+01 -0.37708778790E+02  0.20849463434E+03  0.21209947315E+03  0.00000000000E+00 0.  1.
         14    1    5    5    0    0  0.29229626499E+02  0.19701833030E+02  0.58077435154E+03  0.58184308941E+03  0.00000000000E+00 0. -1.
         11    1    3    3    0    0  0.28261656083E+02 -0.14431107887E+02 -0.14717949924E+03  0.15056155909E+03  0.00000000000E+00 0. -1.
        -12    1    3    3    0    0 -0.27789617819E+02 -0.66607458364E+02 -0.99908735682E+02  0.12325003787E+03  0.00000000000E+00 0.  1.
          5    1    4    4  501    0  0.30091374002E+02  0.81894773886E+02  0.75048953285E+02  0.11516102886E+03  0.41800000000E+01 0.  1.
         -5    1    4    4    0  501 -0.50086238928E+02  0.17150738124E+02 -0.17055824345E+02  0.55777707843E+02  0.41800000000E+01 0.  1.
</event>
<event>
11    1  0.1471277E-008  0.1577970E+03  0.7561462E-02  0.1089168E+00
         22   -1    0    0    0    0  0.00000000000E+00  0.00000000000E+00  0.88360414927E+03  0.88360414927E+03  0.00000000000E+00 0. -1.
         22   -1    0    0    0    0 -0.00000000000E+00 -0.00000000000E+00 -0.49086051927E+03  0.49086051927E+03  0.00000000000E+00 0. -1.
        -24    2    1    2    0    0 -0.18336112072E+02 -0.87531895238E+02 -0.42053461420E+03  0.43762681442E+03  0.81668973703E+02 0.  0.
         25    2    1    2    0    0  0.87704203979E+01 -0.16026567694E+02  0.14484838019E+02  0.12722070056E+03  0.12506608242E+03 0.  0.
         24    2    1    2    0    0  0.95656916743E+01  0.10355846293E+03  0.79879340619E+03  0.80961715357E+03  0.81198348977E+02 0.  0.
        -11    1    5    5    0    0 -0.12664826349E+02  0.10701839445E+02  0.25276467818E+02  0.30229571934E+02  0.00000000000E+00 0.  1.
         12    1    5    5    0    0  0.22230518023E+02  0.92856623488E+02  0.77351693837E+03  0.77938758163E+03  0.00000000000E+00 0. -1.
         13    1    3    3    0    0  0.98091496329E+01 -0.66385433719E+02 -0.37001611290E+03  0.37605208287E+03  0.00000000000E+00 0. -1.
        -14    1    3    3    0    0 -0.28145261705E+02 -0.21146461519E+02 -0.50518501303E+02  0.61574731547E+02  0.00000000000E+00 0.  1.
          5    1    4    4  501    0  0.57091561020E+02 -0.24049133692E+02 -0.22136667194E+02  0.65918977582E+02  0.41800000000E+01 0.  1.
         -5    1    4    4    0  501 -0.48321140622E+02  0.80225659981E+01  0.36621505213E+02  0.61301722979E+02  0.41800000000E+01 0.  1.
</event>
<event>
11    1  0.8299058E-009  0.1805427E+03  0.7561462E-02  0.1069205E+00
         22   -1    0    0    0    0  0.00000000000E+00  0.00000000000E+00  0.86589251027E+03  0.86589251027E+03  0.00000000000E+00 0. -1.
         22   -1    0    0    0    0 -0.00000000000E+00 -0.00000000000E+00 -0.90373639169E+03  0.90373639169E+03  0.00000000000E+00 0.  1.
        -24    2    1    2    0    0  0.75739492091E+00 -0.12814195352E+03 -0.82920407522E+03  0.84296289766E+03  0.81154880184E+02 0.  0.
         25    2    1    2    0    0  0.78143822122E+02  0.21831740825E+03  0.23889600444E+03  0.35565099660E+03  0.12508949900E+03 0.  0.
         24    2    1    2    0    0 -0.78901217043E+02 -0.90175454728E+02  0.55246418935E+03  0.57101500770E+03  0.80526044346E+02 0.  0.
        -11    1    5    5    0    0 -0.13065890447E+02 -0.60878261328E+02  0.15441575480E+03  0.16649656310E+03  0.00000000000E+00 0.  1.
         12    1    5    5    0    0 -0.65835326596E+02 -0.29297193400E+02  0.39804843455E+03  0.40451844460E+03  0.00000000000E+00 0. -1.
         13    1    3    3    0    0 -0.38791086007E+01 -0.56537012430E+02 -0.15653048572E+03  0.16647304352E+03  0.00000000000E+00 0. -1.
        -14    1    3    3    0    0  0.46365035216E+01 -0.71604941090E+02 -0.67267358950E+03  0.67648985414E+03  0.00000000000E+00 0.  1.
          5    1    4    4  501    0  0.18323316552E+02  0.79437171846E+02  0.17171582776E+03  0.19013102351E+03  0.41800000000E+01 0.  1.
         -5    1    4    4    0  501  0.59820505570E+02  0.13888023640E+03  0.67180176688E+02  0.16551997308E+03  0.41800000000E+01 0.  1.
</event>
<event>
11    1  0.8299058E-009  0.4404279E+03  0.7561462E-02  0.9537471E-01
         22   -1    0    0    0    0  0.00000000000E+00  0.00000000000E+00  0.43798677663E+03  0.43798677663E+03  0.00000000000E+00 0. -1.
         22   -1    0    0    0    0 -0.00000000000E+00 -0.00000000000E+00 -0.15276796233E+04  0.15276796233E+04  0.00000000000E+00 0.  1.
         24    2    1    2    0    0  0.43298952638E+03  0.10963595247E+03 -0.11583060364E+04  0.12450917822E+04  0.95292707726E+02 0.  0.
         25    2    1    2    0    0 -0.29378209583E+03 -0.22811526065E+03 -0.15467983161E+03  0.42181504825E+03  0.12513030266E+03 0.  0.
        -24    2    1    2    0    0 -0.13920743054E+03  0.11847930818E+03  0.22329302131E+03  0.29875956950E+03  0.77339846264E+02 0.  0.
        -13    1    3    3    0    0  0.22648475573E+03  0.46803974983E+02 -0.72509038018E+03  0.76107950707E+03  0.00000000000E+00 0.  1.
         14    1    3    3    0    0  0.20650477065E+03  0.62831977484E+02 -0.43321565623E+03  0.48401227515E+03  0.00000000000E+00 0. -1.
         11    1    5    5    0    0 -0.63782694575E+02  0.96070795605E+02  0.16283212609E+03  0.19952977518E+03  0.00000000000E+00 0. -1.
        -12    1    5    5    0    0 -0.75424735966E+02  0.22408512579E+02  0.60460895216E+02  0.99229794326E+02  0.00000000000E+00 0.  1.
          5    1    4    4  501    0 -0.22881245030E+03 -0.13331961353E+03 -0.15488486359E+03  0.30681598742E+03  0.41800000000E+01 0. -1.
         -5    1    4    4    0  501 -0.64969645530E+02 -0.94795647120E+02  0.20503197695E+00  0.11499906083E+03  0.41800000000E+01 0. -1.
</event>
<event>
11    1  0.8299058E-009  0.1438686E+03  0.7561462E-02  0.1103314E+00
         22   -1    0    0    0    0  0.00000000000E+00  0.00000000000E+00  0.17203678834E+04  0.17203678834E+04  0.00000000000E+00 0.  1.
         22   -1    0    0    0    0 -0.00000000000E+00 -0.00000000000E+00 -0.39760077522E+03  0.39760077522E+03  0.00000000000E+00 0.  1.
        -24    2    1    2    0    0 -0.43752971497E+02  0.49719722651E+02 -0.34278305340E+03  0.35824376022E+03  0.80324321994E+02 0.  0.
         25    2    1    2    0    0  0.69818858900E+01  0.14187120265E+02  0.42861945898E+02  0.13317145096E+03  0.12508983905E+03 0.  0.
         24    2    1    2    0    0  0.36771085607E+02 -0.63906842916E+02  0.16226882157E+04  0.16265534474E+04  0.84397125470E+02 0.  0.
        -13    1    5    5    0    0  0.50072653649E+02 -0.77159215716E+02  0.14289645995E+04  0.14319220097E+04  0.00000000000E+00 0.  1.
         14    1    5    5    0    0 -0.13301568042E+02  0.13252372800E+02  0.19372361615E+03  0.19463143773E+03  0.00000000000E+00 0. -1.
         11    1    3    3    0    0 -0.16017548782E+02  0.42538891865E+02 -0.66923170740E+02  0.80900123436E+02  0.00000000000E+00 0. -1.
        -12    1    3    3    0    0 -0.27735422716E+02  0.71808307854E+01 -0.27585988266E+03  0.27734363678E+03  0.00000000000E+00 0.  1.
          5    1    4    4  501    0  0.29082635802E+02  0.59400938093E+02  0.48834674437E+02  0.82319918482E+02  0.41800000000E+01 0. -1.
         -5    1    4    4    0  501 -0.22100749912E+02 -0.45213817828E+02 -0.59727285391E+01  0.50851532479E+02  0.41800000000E+01 0. -1.
</event>
<event>
11    1  0.8299058E-009  0.1648357E+03  0.7561462E-02  0.1082615E+00
         22   -1    0    0    0    0  0.00000000000E+00  0.00000000000E+00  0.15217799912E+04  0.15217799912E+04  0.00000000000E+00 0.  1.
         22   -1    0    0    0    0 -0.00000000000E+00 -0.00000000000E+00 -0.31418205815E+03  0.31418205815E+03  0.00000000000E+00 0.  1.
         24    2    1    2    0    0  0.80681180306E+02 -0.80800773085E+02 -0.25931515624E+03  0.29451287839E+03  0.80344679324E+02 0.  0.
         25    2    1    2    0    0  0.57077386428E+01  0.72219557447E+02  0.11599407565E+03  0.18535360241E+03  0.12511230787E+03 0.  0.
        -24    2    1    2    0    0 -0.86388918949E+02  0.85812156387E+01  0.13509190136E+04  0.13560955685E+04  0.80475630431E+02 0.  0.
        -11    1    3    3    0    0  0.61535098134E+02 -0.12866323968E+02 -0.16604365961E+03  0.17754607147E+03  0.00000000000E+00 0.  1.
         12    1    3    3    0    0  0.19146082172E+02 -0.67934449118E+02 -0.93271496621E+02  0.11696680692E+03  0.00000000000E+00 0. -1.
         11    1    5    5    0    0 -0.65401750155E+02  0.28953538664E+02  0.54850431251E+03  0.55314797041E+03  0.00000000000E+00 0. -1.
        -12    1    5    5    0    0 -0.20987168794E+02 -0.20372323026E+02  0.80241470108E+03  0.80294759811E+03  0.00000000000E+00 0.  1.
          5    1    4    4  501    0  0.15609503749E+02  0.38523612042E+02 -0.18934672926E+02  0.45866322404E+02  0.41800000000E+01 0.  1.
         -5    1    4    4    0  501 -0.99017651061E+01  0.33695945405E+02  0.13492874858E+03  0.13948728000E+03  0.41800000000E+01 0.  1.
</event>
<event>
11    1  0.8299058E-009  0.1292099E+03  0.7561462E-02  0.1120244E+00
         22   -1    0    0    0    0  0.00000000000E+00  0.00000000000E+00  0.11356305742E+04  0.11356305742E+04  0.00000000000E+00 0.  1.
         22   -1    0    0    0    0 -0.00000000000E+00 -0.00000000000E+00 -0.17725415064E+03  0.17725415064E+03  0.00000000000E+00 0. -1.
        -24    2    1    2    0    0 -0.12737031970E+02  0.24238660302E+02 -0.14697011551E+03  0.17043352496E+03  0.81839030678E+02 0.  0.
         25    2    1    2    0    0  0.34193476868E+02  0.14824890703E+01  0.24180715821E+03  0.27438942087E+03  0.12508981131E+03 0.  0.
         24    2    1    2    0    0 -0.21456444898E+02 -0.25721149372E+02  0.86353938089E+03  0.86806177903E+03  0.81908688925E+02 0.  0.
        -11    1    5    5    0    0 -0.32783306749E+02 -0.35240973830E+02  0.83011098966E+03  0.83150521742E+03  0.00000000000E+00 0.  1.
         12    1    5    5    0    0  0.11326861851E+02  0.95198244574E+01  0.33428391227E+02  0.36556561615E+02  0.00000000000E+00 0. -1.
         11    1    3    3    0    0 -0.41576226037E+02  0.91357122676E+01 -0.39250138924E+02  0.57901789400E+02  0.00000000000E+00 0. -1.
        -12    1    3    3    0    0  0.28839194067E+02  0.15102948034E+02 -0.10771997658E+03  0.11253173556E+03  0.00000000000E+00 0.  1.
          5    1    4    4  501    0  0.67795345850E+02  0.39454984939E+02  0.15511548795E+03  0.17387119300E+03  0.41800000000E+01 0. -1.
         -5    1    4    4    0  501 -0.33601868982E+02 -0.37972495869E+02  0.86691670262E+02  0.10051822787E+03  0.41800000000E+01 0. -1.
</event>
<event>
11    1  0.1102757E-008  0.1620671E+03  0.7561462E-02  0.1085149E+00
         22   -1    0    0    0    0  0.00000000000E+00  0.00000000000E+00  0.12927072899E+04  0.12927072899E+04  0.00000000000E+00 0.  1.
         22   -1    0    0    0    0 -0.00000000000E+00 -0.00000000000E+00 -0.21352480514E+03  0.21352480514E+03  0.00000000000E+00 0.  1.
         24    2    1    2    0    0  0.28746918238E+02 -0.24125532325E+02 -0.12142199359E+03  0.15118040862E+03  0.81876668266E+02 0.  0.
         25    2    1    2    0    0  0.22974774717E+02  0.11288077230E+03  0.24528572994E+02  0.17181675700E+03  0.12509771406E+03 0.  0.
        -24    2    1    2    0    0 -0.51721692955E+02 -0.88755239977E+02  0.11760759054E+04  0.11832349295E+04  0.79609904543E+02 0.  0.
        -13    1    3    3    0    0 -0.18442193274E+02  0.13851278543E+02 -0.62735154238E+02  0.66840646221E+02  0.00000000000E+00 0.  1.
         14    1    3    3    0    0  0.47189111513E+02 -0.37976810868E+02 -0.58686839351E+02  0.84339762402E+02  0.00000000000E+00 0. -1.
         11    1    5    5    0    0 -0.22713878179E+02 -0.16454713622E+02  0.87729168803E+02  0.92103663994E+02  0.00000000000E+00 0. -1.
        -12    1    5    5    0    0 -0.29007814776E+02 -0.72300526355E+02  0.10883467366E+04  0.10911312655E+04  0.00000000000E+00 0.  1.
          5    1    4    4  501    0 -0.47583484469E+02  0.59474429936E+02 -0.95939187725E+01  0.76882452405E+02  0.41800000000E+01 0.  1.
         -5    1    4    4    0  501  0.70558259186E+02  0.53406342366E+02  0.34122491767E+02  0.94934304593E+02  0.41800000000E+01 0.  1.
</event>
<event>
11    1  0.8299058E-009  0.1372166E+03  0.7561462E-02  0.1110707E+00
         22   -1    0    0    0    0  0.00000000000E+00  0.00000000000E+00  0.25601627387E+03  0.25601627387E+03  0.00000000000E+00 0.  1.
         22   -1    0    0    0    0 -0.00000000000E+00 -0.00000000000E+00 -0.73836369865E+03  0.73836369865E+03  0.00000000000E+00 0.  1.
        -24    2    1    2    0    0  0.70277573604E+01 -0.31102698795E+02 -0.61106671242E+03  0.61732276088E+03  0.81658415537E+02 0.  0.
         25    2    1    2    0    0  0.47229064972E+02  0.10712611256E+02 -0.72809230295E+02  0.15262386344E+03  0.12509002781E+03 0.  0.
         24    2    1    2    0    0 -0.54256822333E+02  0.20390087539E+02  0.20152851793E+03  0.22443334821E+03  0.79981409141E+02 0.  0.
        -13    1    5    5    0    0 -0.15799651919E+02  0.24274272595E+02  0.17540604096E+03  0.17778118156E+03  0.00000000000E+00 0.  1.
         14    1    5    5    0    0 -0.38457170413E+02 -0.38841850565E+01  0.26122476967E+02  0.46652166645E+02  0.00000000000E+00 0. -1.
         13    1    3    3    0    0  0.10905770092E+02 -0.12607985863E+02 -0.20360603473E+02  0.26314469453E+02  0.00000000000E+00 0. -1.
        -14    1    3    3    0    0 -0.38780127313E+01 -0.18494712932E+02 -0.59070610894E+03  0.59100829143E+03  0.00000000000E+00 0.  1.
          5    1    4    4  501    0  0.83309322450E+02  0.34024477212E+02 -0.57286442463E+02  0.10675821817E+03  0.41800000000E+01 0.  1.
         -5    1    4    4    0  501 -0.36080257478E+02 -0.23311865956E+02 -0.15522787831E+02  0.45865645271E+02  0.41800000000E+01 0.  1.
</event>
<event>
11    1  0.8299058E-009  0.1636343E+03  0.7561462E-02  0.1083708E+00
         22   -1    0    0    0    0  0.00000000000E+00  0.00000000000E+00  0.20066474445E+03  0.20066474445E+03  0.00000000000E+00 0.  1.
         22   -1    0    0    0    0 -0.00000000000E+00 -0.00000000000E+00 -0.16823401963E+04  0.16823401963E+04  0.00000000000E+00 0. -1.
        -24    2    1    2    0    0  0.10584837919E+03  0.32211759949E+02 -0.14979181398E+04  0.15040407855E+04  0.78348286135E+02 0.  0.
         25    2    1    2    0    0 -0.59199354376E+02 -0.19642432212E+01 -0.13857005759E+03  0.19585142792E+03  0.12509076364E+03 0.  0.
         24    2    1    2    0    0 -0.46649024817E+02 -0.30247516728E+02  0.15481274552E+03  0.18311272740E+03  0.80450239123E+02 0.  0.
        -11    1    5    5    0    0 -0.60251279270E+02 -0.30589047930E+02  0.70289834724E+02  0.97501627538E+02  0.00000000000E+00 0.  1.
         12    1    5    5    0    0  0.13602254454E+02  0.34153120199E+00  0.84522910795E+02  0.85611099859E+02  0.00000000000E+00 0. -1.
         11    1    3    3    0    0  0.51486926712E+02  0.71504305899E+01 -0.11373739359E+04  0.11385611544E+04  0.00000000000E+00 0. -1.
        -12    1    3    3    0    0  0.54361452481E+02  0.25061329359E+02 -0.36054420388E+03  0.36547963103E+03  0.00000000000E+00 0.  1.
          5    1    4    4  501    0 -0.28843552294E+02 -0.12457709661E+02  0.17670751304E+02  0.36288743304E+02  0.41800000000E+01 0.  1.
         -5    1    4    4    0  501 -0.30355802082E+02  0.10493466439E+02 -0.15624080890E+03  0.15956268462E+03  0.41800000000E+01 0.  1.
</event>
<event>
11    1  0.8299058E-009  0.1545214E+03  0.7561462E-02  0.1092346E+00
         22   -1    0    0    0    0  0.00000000000E+00  0.00000000000E+00  0.20101885903E+04  0.20101885903E+04  0.00000000000E+00 0.  1.
         22   -1    0    0    0    0 -0.00000000000E+00 -0.00000000000E+00 -0.49044204727E+02  0.49044204727E+02  0.00000000000E+00 0.  1.
         24    2    1    2    0    0 -0.95959891732E+02  0.18388198453E+02  0.58169407803E+02  0.13860981451E+03  0.79262689907E+02 0.  0.
         25    2    1    2    0    0  0.33561738201E+02 -0.42728122526E+02  0.68036864599E+03  0.69390308763E+03  0.12509163776E+03 0.  0.
        -24    2    1    2    0    0  0.62398153531E+02  0.24339924073E+02  0.12226063317E+04  0.12267198928E+04  0.74762902879E+02 0.  0.
        -11    1    3    3    0    0 -0.10281791352E+03  0.77186135443E+01  0.29475444239E+02  0.10723759671E+03  0.00000000000E+00 0.  1.
         12    1    3    3    0    0  0.68580217832E+01  0.10669584909E+02  0.28693963564E+02  0.31372217804E+02  0.00000000000E+00 0. -1.
         11    1    5    5    0    0  0.11009034568E+02 -0.21905823643E+02  0.16004749176E+03  0.16191437110E+03  0.00000000000E+00 0. -1.
        -12    1    5    5    0    0  0.51389118962E+02  0.46245747716E+02  0.10625588400E+04  0.10648055217E+04  0.00000000000E+00 0.  1.
          5    1    4    4  501    0  0.32931738627E+02 -0.74563215716E+02  0.26474856773E+03  0.27704412837E+03  0.41800000000E+01 0.  1.
         -5    1    4    4    0  501  0.62999957441E+00  0.31835093190E+02  0.41562007826E+03  0.41685895926E+03  0.41800000000E+01 0.  1.
</event>
<event>
11    1  0.8299058E-009  0.1903858E+03  0.7561462E-02  0.1061539E+00
         22   -1    0    0    0    0  0.00000000000E+00  0.00000000000E+00  0.19681971580E+04  0.19681971580E+04  0.00000000000E+00 0.  1.
         22   -1    0    0    0    0 -0.00000000000E+00 -0.00000000000E+00 -0.13884993538E+04  0.13884993538E+04  0.00000000000E+00 0.  1.
         24    2    1    2    0    0  0.94997545233E+02  0.10725892332E+03 -0.13002739225E+04  0.13105924790E+04  0.80070982071E+02 0.  0.
         25    2    1    2    0    0 -0.13787948097E+03 -0.77234503374E+02  0.42268854772E+02  0.20593160091E+03  0.12508096732E+03 0.  0.
        -24    2    1    2    0    0  0.42881935741E+02 -0.30024419947E+02  0.18377028719E+04  0.18401724318E+04  0.79639230617E+02 0.  0.
        -13    1    3    3    0    0  0.10728001491E+03  0.10746947149E+03 -0.12026289091E+04  0.12121777848E+04  0.00000000000E+00 0.  1.
         14    1    3    3    0    0 -0.12282469672E+02 -0.21054816416E+00 -0.97645013470E+02  0.98414694265E+02  0.00000000000E+00 0. -1.
         13    1    5    5    0    0  0.20457264824E+02 -0.31399056140E+02  0.30348039906E+03  0.30578546896E+03  0.00000000000E+00 0. -1.
        -14    1    5    5    0    0  0.22424670917E+02  0.13746361933E+01  0.15342224729E+04  0.15343869629E+04  0.00000000000E+00 0.  1.
          5    1    4    4  501    0  0.10295379909E+02 -0.19422589177E+02  0.41125715595E+02  0.46819106154E+02  0.41800000000E+01 0. -1.
         -5    1    4    4    0  501 -0.14817486088E+03 -0.57811914197E+02  0.11431391763E+01  0.15911249476E+03  0.41800000000E+01 0. -1.
</event>
<event>
11    1  0.8299058E-009  0.1433013E+03  0.7561462E-02  0.1103927E+00
         22   -1    0    0    0    0  0.00000000000E+00  0.00000000000E+00  0.14957404226E+04  0.14957404226E+04  0.00000000000E+00 0. -1.
         22   -1    0    0    0    0 -0.00000000000E+00 -0.00000000000E+00 -0.53967964666E+03  0.53967964666E+03  0.00000000000E+00 0. -1.
        -24    2    1    2    0    0 -0.29161133973E+02  0.64882750894E+02 -0.47286386649E+03  0.48562580491E+03  0.84687915689E+02 0.  0.
         25    2    1    2    0    0  0.15618971678E+02 -0.52915948569E+02  0.19640337307E+02  0.13812456331E+03  0.12509437338E+03 0.  0.
         24    2    1    2    0    0  0.13542162296E+02 -0.11966802325E+02  0.14092843052E+04  0.14116697011E+04  0.80015608911E+02 0.  0.
        -13    1    5    5    0    0  0.61090445046E+01 -0.45422393586E+02  0.65098421819E+03  0.65259556127E+03  0.00000000000E+00 0.  1.
         14    1    5    5    0    0  0.74331177909E+01  0.33455591261E+02  0.75830008697E+03  0.75907413981E+03  0.00000000000E+00 0. -1.
         13    1    3    3    0    0 -0.12622054720E+02  0.47876470898E+02 -0.44987643564E+03  0.45259284139E+03  0.00000000000E+00 0. -1.
        -14    1    3    3    0    0 -0.16539079253E+02  0.17006279996E+02 -0.22987430844E+02  0.33032963516E+02  0.00000000000E+00 0.  1.
          5    1    4    4  501    0 -0.71703760717E+01 -0.84018947995E+02 -0.15440741254E+02  0.85828240141E+02  0.41800000000E+01 0.  1.
         -5    1    4    4    0  501  0.22789347749E+02  0.31102999426E+02  0.35081078561E+02  0.52296323170E+02  0.41800000000E+01 0.  1.
</event>
<event>
11    1  0.8299058E-009  0.3344132E+03  0.7561462E-02  0.9865944E-01
         22   -1    0    0    0    0  0.00000000000E+00  0.00000000000E+00  0.89152202070E+03  0.89152202070E+03  0.00000000000E+00 0.  1.
         22   -1    0    0    0    0 -0.00000000000E+00 -0.00000000000E+00 -0.27874293748E+03  0.27874293748E+03  0.00000000000E+00 0.  1.
         24    2    1    2    0    0 -0.75713623580E+02  0.10913226683E+02 -0.13153893648E+03  0.17166063646E+03  0.79455843002E+02 0.  0.
         25    2    1    2    0    0  0.18599673599E+03  0.26939196142E+03  0.34129905235E+03  0.48918115900E+03  0.12508536488E+03 0.  0.
        -24    2    1    2    0    0 -0.11028311240E+03 -0.28030518811E+03  0.40301896734E+03  0.50942316272E+03  0.79713909170E+02 0.  0.
        -13    1    3    3    0    0 -0.46647141551E+02 -0.28952297635E+02 -0.40891587390E+02  0.68456652507E+02  0.00000000000E+00 0.  1.
         14    1    3    3    0    0 -0.29066482030E+02  0.39865524318E+02 -0.90647349086E+02  0.10320398395E+03  0.00000000000E+00 0. -1.
         11    1    5    5    0    0 -0.73724622692E+02 -0.16545749808E+03  0.30201291620E+03  0.35216942686E+03  0.00000000000E+00 0. -1.
        -12    1    5    5    0    0 -0.36558489713E+02 -0.11484769003E+03  0.10100605114E+03  0.15725373586E+03  0.00000000000E+00 0.  1.
          5    1    4    4  501    0  0.13980326939E+03  0.26397420313E+03  0.26299017583E+03  0.39800582789E+03  0.41800000000E+01 0.  1.
         -5    1    4    4    0  501  0.46193466596E+02  0.54177582933E+01  0.78308876518E+02  0.91175331108E+02  0.41800000000E+01 0.  1.
</event>
<event>
11    1  0.8299058E-009  0.1947153E+03  0.7561462E-02  0.1058325E+00
         22   -1    0    0    0    0  0.00000000000E+00  0.00000000000E+00  0.18074329527E+04  0.18074329527E+04  0.00000000000E+00 0.  1.
         22   -1    0    0    0    0 -0.00000000000E+00 -0.00000000000E+00 -0.10540482797E+04  0.10540482797E+04  0.00000000000E+00 0.  1.
        -24    2    1    2    0    0 -0.13092327202E+03 -0.73255304836E+02 -0.10305415273E+04  0.10444367875E+04  0.79530627495E+02 0.  0.
         25    2    1    2    0    0  0.95376083753E+02  0.32256595344E+02  0.41843608680E+03  0.44818922331E+03  0.12509091037E+03 0.  0.
         24    2    1    2    0    0  0.35547188269E+02  0.40998709493E+02  0.13654901135E+04  0.13688552215E+04  0.79100383925E+02 0.  0.
        -11    1    5    5    0    0  0.11077244301E+02 -0.45163204095E+01  0.96138475363E+03  0.96145917594E+03  0.00000000000E+00 0.  1.
         12    1    5    5    0    0  0.24469943968E+02  0.45515029902E+02  0.40410535985E+03  0.40739604559E+03  0.00000000000E+00 0. -1.
         13    1    3    3    0    0 -0.53860545220E+02 -0.19938521849E+01 -0.54619633841E+03  0.54884913580E+03  0.00000000000E+00 0. -1.
        -14    1    3    3    0    0 -0.77062726802E+02 -0.71261452651E+02 -0.48434518893E+03  0.49558765171E+03  0.00000000000E+00 0.  1.
          5    1    4    4  501    0  0.21175568253E+02  0.13150246928E+02  0.33056228830E+03  0.33152712187E+03  0.41800000000E+01 0. -1.
         -5    1    4    4    0  501  0.74200515500E+02  0.19106348416E+02  0.87873798500E+02  0.11666210144E+03  0.41800000000E+01 0. -1.
</event>
<event>
11    1  0.8299058E-009  0.1525416E+03  0.7561462E-02  0.1094310E+00
         22   -1    0    0    0    0  0.00000000000E+00  0.00000000000E+00  0.41727210083E+03  0.41727210083E+03  0.00000000000E+00 0. -1.
         22   -1    0    0    0    0 -0.00000000000E+00 -0.00000000000E+00 -0.24019561849E+03  0.24019561849E+03  0.00000000000E+00 0.  1.
        -24    2    1    2    0    0 -0.62901255615E+02 -0.59842959357E+02 -0.14582460662E+03  0.18788311366E+03  0.80607076371E+02 0.  0.
         25    2    1    2    0    0  0.43898508244E+01  0.11752393914E+03  0.58127614972E+02  0.18126981266E+03  0.12509507704E+03 0.  0.
         24    2    1    2    0    0  0.58511404791E+02 -0.57680979781E+02  0.26477347399E+03  0.28831479299E+03  0.79181736589E+02 0.  0.
        -11    1    5    5    0    0 -0.10464293433E+02 -0.41438638901E+02  0.86769034225E+02  0.96723975990E+02  0.00000000000E+00 0.  1.
         12    1    5    5    0    0  0.68975698224E+02 -0.16242340880E+02  0.17800443977E+03  0.19159081700E+03  0.00000000000E+00 0. -1.
         13    1    3    3    0    0 -0.44239715380E+02  0.10523116548E+02 -0.50843575162E+02  0.68212590729E+02  0.00000000000E+00 0. -1.
        -14    1    3    3    0    0 -0.18661540235E+02 -0.70366075905E+02 -0.94981031459E+02  0.11967052293E+03  0.00000000000E+00 0.  1.
          5    1    4    4  501    0  0.11378098865E+02  0.12592888345E+03  0.47241062956E+01  0.12659910900E+03  0.41800000000E+01 0.  1.
         -5    1    4    4    0  501 -0.69882480402E+01 -0.84049443107E+01  0.53403508676E+02  0.54670703658E+02  0.41800000000E+01 0.  1.
</event>
<event>
11    1  0.8299058E-009  0.1257285E+03  0.7561462E-02  0.1124631E+00
         22   -1    0    0    0    0  0.00000000000E+00  0.00000000000E+00  0.44885878551E+03  0.44885878551E+03  0.00000000000E+00 0. -1.
         22   -1    0    0    0    0 -0.00000000000E+00 -0.00000000000E+00 -0.93317222098E+03  0.93317222098E+03  0.00000000000E+00 0.  1.
         24    2    1    2    0    0  0.62920268412E+01 -0.21871113261E+02 -0.81533827684E+03  0.81940831520E+03  0.78329727097E+02 0.  0.
         25    2    1    2    0    0 -0.18665225058E+02  0.19831223561E+02 -0.74828183709E+02  0.14828418713E+03  0.12508906835E+03 0.  0.
        -24    2    1    2    0    0  0.12373198217E+02  0.20398896999E+01  0.40585302508E+03  0.41433850415E+03  0.82477032370E+02 0.  0.
        -13    1    3    3    0    0 -0.26651717937E+02 -0.65731250187E+01 -0.62693490295E+03  0.62753557077E+03  0.00000000000E+00 0.  1.
         14    1    3    3    0    0  0.32943744778E+02 -0.15297988242E+02 -0.18840337389E+03  0.19187274444E+03  0.00000000000E+00 0. -1.
         11    1    5    5    0    0  0.78874515663E+01  0.32922609022E+02  0.33755786387E+03  0.33925126608E+03  0.00000000000E+00 0. -1.
        -12    1    5    5    0    0  0.44857466503E+01 -0.30882719322E+02  0.68295161205E+02  0.75087238062E+02  0.00000000000E+00 0.  1.
          5    1    4    4  501    0 -0.10715086622E+02 -0.45175751910E+02 -0.67806259527E+02  0.82285010014E+02  0.41800000000E+01 0.  1.
         -5    1    4    4    0  501 -0.79501384363E+01  0.65006975471E+02 -0.70219241820E+01  0.65999177118E+02  0.41800000000E+01 0.  1.
</event>
<event>
11    1  0.8299058E-009  0.1417869E+03  0.7561462E-02  0.1105579E+00
         22   -1    0    0    0    0  0.00000000000E+00  0.00000000000E+00  0.59756868063E+03  0.59756868063E+03  0.00000000000E+00 0. -1.
         22   -1    0    0    0    0 -0.00000000000E+00 -0.00000000000E+00 -0.16132393872E+04  0.16132393872E+04  0.00000000000E+00 0.  1.
        -24    2    1    2    0    0  0.18126410006E+01 -0.96192825072E+01 -0.13643410256E+04  0.13668423959E+04  0.82072436554E+02 0.  0.
         25    2    1    2    0    0  0.59987815645E+02  0.34729128691E+02 -0.22184177423E+03  0.26394533898E+03  0.12509483909E+03 0.  0.
         24    2    1    2    0    0 -0.61800456646E+02 -0.25109846183E+02  0.57051209327E+03  0.58002033294E+03  0.80558905383E+02 0.  0.
        -13    1    5    5    0    0  0.10070746832E+02 -0.52330329682E+01  0.11867126971E+02  0.16420513949E+02  0.00000000000E+00 0.  1.
         14    1    5    5    0    0 -0.71871203477E+02 -0.19876813215E+02  0.55864496630E+03  0.56359981899E+03  0.00000000000E+00 0. -1.
         13    1    3    3    0    0 -0.31094478623E+02  0.72977925678E+01 -0.27103185667E+03  0.27290729507E+03  0.00000000000E+00 0. -1.
        -14    1    3    3    0    0  0.32907119623E+02 -0.16917075075E+02 -0.10933091690E+04  0.10939351009E+04  0.00000000000E+00 0.  1.
          5    1    4    4  501    0  0.53938863174E+02  0.31904576993E+02 -0.26050375243E+02  0.67995569296E+02  0.41800000000E+01 0.  1.
         -5    1    4    4    0  501  0.60489524708E+01  0.28245516980E+01 -0.19579139899E+03  0.19594976968E+03  0.41800000000E+01 0.  1.
</event>
<event>
11    1  0.8299058E-009  0.1329003E+03  0.7561462E-02  0.1115756E+00
         22   -1    0    0    0    0  0.00000000000E+00  0.00000000000E+00  0.79180035862E+03  0.79180035862E+03  0.00000000000E+00 0.  1.
         22   -1    0    0    0    0 -0.00000000000E+00 -0.00000000000E+00 -0.29069823918E+03  0.29069823918E+03  0.00000000000E+00 0.  1.
         24    2    1    2    0    0  0.27948015343E+02  0.30079508509E+02 -0.17041711648E+03  0.19347273564E+03  0.81876965341E+02 0.  0.
         25    2    1    2    0    0 -0.13953397965E+02 -0.66345570048E+02 -0.58313402584E+02  0.15376618053E+03  0.12508858211E+03 0.  0.
        -24    2    1    2    0    0 -0.13994617378E+02  0.36266061539E+02  0.72983263851E+03  0.73525968163E+03  0.80249876337E+02 0.  0.
        -13    1    3    3    0    0  0.19978516449E+02  0.22015655866E+02 -0.17758706392E+03  0.18005831138E+03  0.00000000000E+00 0.  1.
         14    1    3    3    0    0  0.79694988938E+01  0.80638526429E+01  0.71699474423E+01  0.13414424266E+02  0.00000000000E+00 0. -1.
         11    1    5    5    0    0 -0.32279642992E+02  0.68601075283E+01  0.12029976412E+03  0.12474401659E+03  0.00000000000E+00 0. -1.
        -12    1    5    5    0    0  0.18285025614E+02  0.29405954010E+02  0.60953287440E+03  0.61051566504E+03  0.00000000000E+00 0.  1.
          5    1    4    4  501    0  0.41341653055E+02  0.11621552843E+02 -0.34308615721E+02  0.55124824539E+02  0.41800000000E+01 0. -1.
         -5    1    4    4    0  501 -0.55295051020E+02 -0.77967122891E+02 -0.24004786863E+02  0.98641355990E+02  0.41800000000E+01 0. -1.
</event>
<event>
11    1  0.8299058E-009  0.1570645E+03  0.7561462E-02  0.1089871E+00
         22   -1    0    0    0    0  0.00000000000E+00  0.00000000000E+00  0.72062545404E+03  0.72062545404E+03  0.00000000000E+00 0. -1.
         22   -1    0    0    0    0 -0.00000000000E+00 -0.00000000000E+00 -0.44348014987E+03  0.44348014987E+03  0.00000000000E+00 0.  1.
        -24    2    1    2    0    0  0.60166559443E+02  0.46362212261E+02 -0.39415280529E+03  0.40928914538E+03  0.79948114475E+02 0.  0.
         25    2    1    2    0    0  0.15524490921E+02 -0.10741609669E+03  0.16642153438E+03  0.23478378959E+03  0.12509225835E+03 0.  0.
         24    2    1    2    0    0 -0.75691050364E+02  0.61053884427E+02  0.50487657508E+03  0.52003266894E+03  0.77954530302E+02 0.  0.
        -13    1    5    5    0    0 -0.39568018823E+02 -0.24767131465E+01  0.84342990551E+02  0.93196042173E+02  0.00000000000E+00 0.  1.
         14    1    5    5    0    0 -0.36123031541E+02  0.63530597573E+02  0.42053358453E+03  0.42683662677E+03  0.00000000000E+00 0. -1.
         11    1    3    3    0    0 -0.17019373934E+01 -0.19658180518E+02 -0.76202988176E+02  0.78716174063E+02  0.00000000000E+00 0. -1.
        -12    1    3    3    0    0  0.61868496836E+02  0.66020392779E+02 -0.31794981711E+03  0.33057297132E+03  0.00000000000E+00 0.  1.
          5    1    4    4  501    0 -0.24168249911E+02 -0.11950022537E+03  0.13866981742E+03  0.18469217317E+03  0.41800000000E+01 0. -1.
         -5    1    4    4    0  501  0.39692740832E+02  0.12084128681E+02  0.27751716965E+02  0.50091616417E+02  0.41800000000E+01 0. -1.
</event>
<event>
11    1  0.8299058E-009  0.1512290E+03  0.7561462E-02  0.1095630E+00
         22   -1    0    0    0    0  0.00000000000E+00  0.00000000000E+00  0.99394460581E+03  0.99394460581E+03  0.00000000000E+00 0. -1.
         22   -1    0    0    0    0 -0.00000000000E+00 -0.00000000000E+00 -0.49438378242E+03  0.49438378242E+03  0.00000000000E+00 0.  1.
        -24    2    1    2    0    0  0.80347841545E+02  0.16572491107E+02 -0.41256908072E+03  0.42862176899E+03  0.82297942787E+02 0.  0.
         25    2    1    2    0    0 -0.11985339388E+03 -0.39945101556E+02  0.39412910718E+02  0.18210621704E+03  0.12509536199E+03 0.  0.
         24    2    1    2    0    0  0.39505552330E+02  0.23372610449E+02  0.87271699339E+03  0.87760040220E+03  0.80253023624E+02 0.  0.
        -13    1    5    5    0    0  0.11615050984E+02 -0.27068332264E+02  0.17082935703E+03  0.17335014637E+03  0.00000000000E+00 0.  1.
         14    1    5    5    0    0  0.27890501347E+02  0.50440942712E+02  0.70188763635E+03  0.70425025583E+03  0.00000000000E+00 0. -1.
         13    1    3    3    0    0 -0.17123803837E+02  0.20857864173E+01 -0.75360521628E+02  0.77309659053E+02  0.00000000000E+00 0. -1.
        -14    1    3    3    0    0  0.97471645382E+02  0.14486704690E+02 -0.33720855909E+03  0.35131210994E+03  0.00000000000E+00 0.  1.
          5    1    4    4  501    0 -0.56947740681E+02 -0.81483018594E+02  0.38253793613E+02  0.10659902726E+03  0.41800000000E+01 0.  1.
         -5    1    4    4    0  501 -0.62905653194E+02  0.41537917038E+02  0.11591171053E+01  0.75507189778E+02  0.41800000000E+01 0.  1.
</event>
<event>
11    1  0.8299058E-009  0.5212708E+03  0.7561462E-02  0.9347208E-01
         22   -1    0    0    0    0  0.00000000000E+00  0.00000000000E+00  0.15200808168E+03  0.15200808168E+03  0.00000000000E+00 0.  1.
         22   -1    0    0    0    0 -0.00000000000E+00 -0.00000000000E+00 -0.37921141305E+04  0.37921141305E+04  0.00000000000E+00 0.  1.
         24    2    1    2    0    0 -0.55685023869E+02 -0.67499570431E+02 -0.19948422467E+04  0.19983524111E+04  0.79748076967E+02 0.  0.
         25    2    1    2    0    0  0.36998922259E+03  0.40984247406E+03 -0.86237957684E+03  0.10316035191E+04  0.12507760678E+03 0.  0.
        -24    2    1    2    0    0 -0.31430419872E+03 -0.34234290363E+03 -0.78288422525E+03  0.91416628195E+03  0.82501441841E+02 0.  0.
        -11    1    3    3    0    0 -0.68660832163E+01 -0.25669754981E+02 -0.14636158471E+03  0.14875413573E+03  0.00000000000E+00 0.  1.
         12    1    3    3    0    0 -0.48818940653E+02 -0.41829815450E+02 -0.18484806620E+04  0.18495982754E+04  0.00000000000E+00 0. -1.
         11    1    5    5    0    0 -0.10513731884E+03 -0.14592444889E+03 -0.36964552642E+03  0.41107860052E+03  0.00000000000E+00 0. -1.
        -12    1    5    5    0    0 -0.20916687988E+03 -0.19641845474E+03 -0.41323869883E+03  0.50308768143E+03  0.00000000000E+00 0.  1.
          5    1    4    4  501    0  0.58289535572E+02  0.36033400239E+02 -0.51365938803E+02  0.85743850853E+02  0.41800000000E+01 0. -1.
         -5    1    4    4    0  501  0.31169968702E+03  0.37380907382E+03 -0.81101363803E+03  0.94585966826E+03  0.41800000000E+01 0. -1.
</event>
<event>
11    1  0.8299058E-009  0.1644736E+03  0.7561462E-02  0.1082944E+00
         22   -1    0    0    0    0  0.00000000000E+00  0.00000000000E+00  0.40972029982E+03  0.40972029982E+03  0.00000000000E+00 0.  1.
         22   -1    0    0    0    0 -0.00000000000E+00 -0.00000000000E+00 -0.97571900930E+02  0.97571900930E+02  0.00000000000E+00 0.  1.
        -24    2    1    2    0    0 -0.13051696746E+02  0.92882734301E+02  0.32114270848E+02  0.12830623790E+03  0.81447008365E+02 0.  0.
         25    2    1    2    0    0  0.10059184930E+01 -0.11480700099E+03  0.22640764872E+03  0.28298688928E+03  0.12505797358E+03 0.  0.
         24    2    1    2    0    0  0.12045778253E+02  0.21924266690E+02  0.53626479323E+02  0.95999073576E+02  0.75592649109E+02 0.  0.
        -13    1    5    5    0    0 -0.15371373275E+02 -0.19461976965E+02  0.28114170514E+01  0.24959000973E+02  0.00000000000E+00 0.  1.
         14    1    5    5    0    0  0.27417151528E+02  0.41386243655E+02  0.50815062271E+02  0.71040072603E+02  0.00000000000E+00 0. -1.
         11    1    3    3    0    0 -0.69179499936E+01 -0.10811345594E+02 -0.99468282409E+01  0.16238307108E+02  0.00000000000E+00 0. -1.
        -12    1    3    3    0    0 -0.61337467529E+01  0.10369407989E+03  0.42061099089E+02  0.11206793079E+03  0.00000000000E+00 0.  1.
          5    1    4    4  501    0  0.38722395651E+01  0.26391136018E+02  0.23874295255E+02  0.36040819545E+02  0.41800000000E+01 0.  1.
         -5    1    4    4    0  501 -0.28663210721E+01 -0.14119813701E+03  0.20253335346E+03  0.24694606973E+03  0.41800000000E+01 0.  1.
</event>
<event>
11    1  0.8299058E-009  0.1420741E+03  0.7561462E-02  0.1105264E+00
         22   -1    0    0    0    0  0.00000000000E+00  0.00000000000E+00  0.42109669166E+03  0.42109669166E+03  0.00000000000E+00 0. -1.
         22   -1    0    0    0    0 -0.00000000000E+00 -0.00000000000E+00 -0.40482232380E+03  0.40482232380E+03  0.00000000000E+00 0.  1.
         24    2    1    2    0    0 -0.26996905695E+02  0.62038786807E+01 -0.36226938273E+03  0.37225763055E+03  0.81051322084E+02 0.  0.
         25    2    1    2    0    0  0.15244260188E+02 -0.71266132143E+02  0.19625861596E+03  0.24387800924E+03  0.12509112676E+03 0.  0.
        -24    2    1    2    0    0  0.11752645508E+02  0.65062253462E+02  0.18228513464E+03  0.20978337566E+03  0.80062306318E+02 0.  0.
        -11    1    3    3    0    0  0.11630890921E+02 -0.16861415480E+02 -0.25650923583E+03  0.25732581103E+03  0.00000000000E+00 0.  1.
         12    1    3    3    0    0 -0.38627796617E+02  0.23065294161E+02 -0.10576014690E+03  0.11493181952E+03  0.00000000000E+00 0. -1.
         11    1    5    5    0    0  0.10172596865E+02  0.82460489635E+02  0.12665870606E+03  0.15147818952E+03  0.00000000000E+00 0. -1.
        -12    1    5    5    0    0  0.15800486423E+01 -0.17398236172E+02  0.55626428576E+02  0.58305186148E+02  0.00000000000E+00 0.  1.
          5    1    4    4  501    0  0.30777895458E+02  0.98490485348E+01  0.18785444441E+01  0.32638687704E+02  0.41800000000E+01 0. -1.
         -5    1    4    4    0  501 -0.15533635270E+02 -0.81115180678E+02  0.19438007151E+03  0.21123932154E+03  0.41800000000E+01 0. -1.
</event>
<event>
11    1  0.8299058E-009  0.1622833E+03  0.7561462E-02  0.1084949E+00
         22   -1    0    0    0    0  0.00000000000E+00  0.00000000000E+00  0.20687288969E+03  0.20687288969E+03  0.00000000000E+00 0. -1.
         22   -1    0    0    0    0 -0.00000000000E+00 -0.00000000000E+00 -0.28496173980E+04  0.28496173980E+04  0.00000000000E+00 0. -1.
        -24    2    1    2    0    0  0.22823905304E+02  0.64641228196E+00 -0.13405819087E+04  0.13432480492E+04  0.81450103906E+02 0.  0.
         25    2    1    2    0    0 -0.55111618912E+02 -0.98742828985E+02 -0.14814090420E+04  0.14909754224E+04  0.12509006249E+03 0.  0.
         24    2    1    2    0    0  0.32287713608E+02  0.98096416703E+02  0.17924644238E+03  0.22226681601E+03  0.81288664480E+02 0.  0.
        -11    1    5    5    0    0  0.10814978841E+01 -0.14405232000E+02  0.15836112491E+02  0.21435083519E+02  0.00000000000E+00 0.  1.
         12    1    5    5    0    0  0.31206215724E+02  0.11250164870E+03  0.16341032989E+03  0.20083173249E+03  0.00000000000E+00 0. -1.
         11    1    3    3    0    0  0.24709441202E+02 -0.26800616029E+02 -0.11608953706E+04  0.11614675592E+04  0.00000000000E+00 0. -1.
        -12    1    3    3    0    0 -0.18855358981E+01  0.27447028311E+02 -0.17968653803E+03  0.18178049003E+03  0.00000000000E+00 0.  1.
          5    1    4    4  501    0 -0.28367776935E+02  0.17972573480E+02 -0.13240841017E+03  0.13666456618E+03  0.41800000000E+01 0. -1.
         -5    1    4    4    0  501 -0.26743841977E+02 -0.11671540246E+03 -0.13490006319E+04  0.13543108563E+04  0.41800000000E+01 0. -1.
</event>
<event>
11    1  0.8299058E-009  0.1665422E+03  0.7561462E-02  0.1081081E+00
         22   -1    0    0    0    0  0.00000000000E+00  0.00000000000E+00  0.43198512687E+03  0.43198512687E+03  0.00000000000E+00 0.  1.
         22   -1    0    0    0    0 -0.00000000000E+00 -0.00000000000E+00 -0.99071196789E+03  0.99071196789E+03  0.00000000000E+00 0.  1.
         24    2    1    2    0    0  0.97317744237E+02 -0.67508494087E+02 -0.82778994955E+03  0.84029270752E+03  0.82628648921E+02 0.  0.
         25    2    1    2    0    0 -0.73726866392E+02  0.38761777337E+00 -0.11395234612E+03  0.18457585748E+03  0.12508920378E+03 0.  0.
        -24    2    1    2    0    0 -0.23590877845E+02  0.67120876314E+02  0.38301545465E+03  0.39782852976E+03  0.80653326247E+02 0.  0.
        -11    1    3    3    0    0  0.34797569271E+02 -0.63633480870E+02 -0.58800279507E+03  0.59245875614E+03  0.00000000000E+00 0.  1.
         12    1    3    3    0    0  0.62520174966E+02 -0.38750132177E+01 -0.23978715448E+03  0.24783395138E+03  0.00000000000E+00 0. -1.
         13    1    5    5    0    0  0.19277326221E+01 -0.16961059586E+02  0.10128028410E+03  0.10270876128E+03  0.00000000000E+00 0. -1.
        -14    1    5    5    0    0 -0.25518610468E+02  0.84081935900E+02  0.28173517055E+03  0.29511976849E+03  0.00000000000E+00 0.  1.
          5    1    4    4  501    0  0.21974601396E+02  0.26072410415E+02 -0.11462170057E+01  0.34372080309E+02  0.41800000000E+01 0.  1.
         -5    1    4    4    0  501 -0.95701467788E+02 -0.25684792641E+02 -0.11280612912E+03  0.15020377717E+03  0.41800000000E+01 0.  1.
</event>
<event>
11    1  0.8299058E-009  0.1394509E+03  0.7561462E-02  0.1108173E+00
         22   -1    0    0    0    0  0.00000000000E+00  0.00000000000E+00  0.38251351007E+03  0.38251351007E+03  0.00000000000E+00 0. -1.
         22   -1    0    0    0    0 -0.00000000000E+00 -0.00000000000E+00 -0.94654132471E+02  0.94654132471E+02  0.00000000000E+00 0. -1.
        -24    2    1    2    0    0 -0.37920005095E+02  0.51635446988E+02  0.23558191514E+02  0.10433766342E+03  0.78912695105E+02 0.  0.
         25    2    1    2    0    0 -0.17651461775E+02 -0.79467955183E+02  0.10053607604E+03  0.17995033501E+03  0.12509152841E+03 0.  0.
         24    2    1    2    0    0  0.55571466869E+02  0.27832508194E+02  0.16376511005E+03  0.19287964411E+03  0.80750909603E+02 0.  0.
        -11    1    5    5    0    0  0.35722238466E+01 -0.14929122461E+02  0.96491751666E+02  0.97705156569E+02  0.00000000000E+00 0.  1.
         12    1    5    5    0    0  0.51999243023E+02  0.42761630655E+02  0.67273358384E+02  0.95174487545E+02  0.00000000000E+00 0. -1.
         11    1    3    3    0    0  0.14944456415E+01  0.49353908019E+02 -0.12429052727E+02  0.50916823902E+02  0.00000000000E+00 0. -1.
        -12    1    3    3    0    0 -0.39414450736E+02  0.22815389690E+01  0.35987244241E+02  0.53420839519E+02  0.00000000000E+00 0.  1.
          5    1    4    4  501    0 -0.55317744788E+02 -0.92037377929E+01  0.65173686172E+01  0.56610159613E+02  0.41800000000E+01 0.  1.
         -5    1    4    4    0  501  0.37666283013E+02 -0.70264217390E+02  0.94018707419E+02  0.12334017539E+03  0.41800000000E+01 0.  1.
</event>
<event>
11    1  0.8299058E-009  0.1497220E+03  0.7561462E-02  0.1097163E+00
         22   -1    0    0    0    0  0.00000000000E+00  0.00000000000E+00  0.10874538710E+04  0.10874538710E+04  0.00000000000E+00 0. -1.
         22   -1    0    0    0    0 -0.00000000000E+00 -0.00000000000E+00 -0.17725539217E+03  0.17725539217E+03  0.00000000000E+00 0.  1.
         24    2    1    2    0    0  0.29524491077E+02 -0.73596554335E+02 -0.16025886403E+02  0.11376866643E+03  0.79989574591E+02 0.  0.
         25    2    1    2    0    0 -0.72719871846E+02  0.14080986673E+03 -0.15367054041E+02  0.20248155881E+03  0.12508811685E+03 0.  0.
        -24    2    1    2    0    0  0.43195380770E+02 -0.67213312397E+02  0.94159141924E+03  0.94845903790E+03  0.81219920642E+02 0.  0.
        -13    1    3    3    0    0  0.18698219875E+02 -0.90159351084E+02 -0.18210008055E+02  0.93861261486E+02  0.00000000000E+00 0.  1.
         14    1    3    3    0    0  0.10826271202E+02  0.16562796749E+02  0.21841216515E+01  0.19907404946E+02  0.00000000000E+00 0. -1.
         11    1    5    5    0    0 -0.11960636383E+02 -0.55990266061E+02  0.43554248621E+03  0.43928945357E+03  0.00000000000E+00 0. -1.
        -12    1    5    5    0    0  0.55156017153E+02 -0.11223046336E+02  0.50604893302E+03  0.50916958433E+03  0.00000000000E+00 0.  1.
          5    1    4    4  501    0 -0.89956983107E+02  0.51207651963E+02 -0.34441442353E+02  0.10917036127E+03  0.41800000000E+01 0. -1.
         -5    1    4    4    0  501  0.17237111261E+02  0.89602214769E+02  0.19074388312E+02  0.93311197536E+02  0.41800000000E+01 0. -1.
</event>
<event>
11    1  0.8299058E-009  0.1467549E+03  0.7561462E-02  0.1100241E+00
         22   -1    0    0    0    0  0.00000000000E+00  0.00000000000E+00  0.90448474284E+02  0.90448474284E+02  0.00000000000E+00 0. -1.
         22   -1    0    0    0    0 -0.00000000000E+00 -0.00000000000E+00 -0.37275652749E+03  0.37275652749E+03  0.00000000000E+00 0.  1.
         24    2    1    2    0    0  0.94228160108E+02 -0.16034796215E+02 -0.16145868387E+03  0.20396416600E+03  0.79977581659E+02 0.  0.
         25    2    1    2    0    0 -0.42026943596E+02  0.11845234310E+02 -0.79324517160E+02  0.15442105194E+03  0.12508760408E+03 0.  0.
        -24    2    1    2    0    0 -0.52201216511E+02  0.41895619044E+01 -0.41524852177E+02  0.10481978384E+03  0.80748710836E+02 0.  0.
        -13    1    3    3    0    0  0.72478791746E+02 -0.43898746483E+02 -0.13661140729E+03  0.16075743155E+03  0.00000000000E+00 0.  1.
         14    1    3    3    0    0  0.21749368362E+02  0.27863950269E+02 -0.24847276583E+02  0.43206734456E+02  0.00000000000E+00 0. -1.
         13    1    5    5    0    0 -0.61927523690E+02  0.10239965654E+02 -0.10731903570E+01  0.62777598111E+02  0.00000000000E+00 0. -1.
        -14    1    5    5    0    0  0.97263071789E+01 -0.60504037496E+01 -0.40451661820E+02  0.42042185729E+02  0.00000000000E+00 0.  1.
          5    1    4    4  501    0  0.43666581048E+01  0.57082985548E+02 -0.67177104089E+02  0.88361590388E+02  0.41800000000E+01 0. -1.
         -5    1    4    4    0  501 -0.46393601701E+02 -0.45237751237E+02 -0.12147413071E+02  0.66059461549E+02  0.41800000000E+01 0. -1.
</event>
<event>
11    1  0.8299058E-009  0.1535374E+03  0.7561462E-02  0.1093318E+00
         22   -1    0    0    0    0  0.00000000000E+00  0.00000000000E+00  0.11137854459E+04  0.11137854459E+04  0.00000000000E+00 0.  1.
         22   -1    0    0    0    0 -0.00000000000E+00 -0.00000000000E+00 -0.90099354340E+03  0.90099354340E+03  0.00000000000E+00 0.  1.
        -24    2    1    2    0    0 -0.71379834403E+02  0.21505479578E+01 -0.85254523282E+03  0.85934467807E+03  0.80871478983E+02 0.  0.
         25    2    1    2    0    0  0.15192481867E+03  0.15966816661E+02  0.19777492578E+03  0.27946080867E+03  0.12508929832E+03 0.  0.
         24    2    1    2    0    0 -0.80544984263E+02 -0.18117364619E+02  0.86756220955E+03  0.87597350258E+03  0.88598286629E+02 0.  0.
        -13    1    5    5    0    0 -0.82143378694E+02  0.18282960478E+02  0.64095792071E+03  0.64645870512E+03  0.00000000000E+00 0.  1.
         14    1    5    5    0    0  0.15983944303E+01 -0.36400325096E+02  0.22660428884E+03  0.22951479746E+03  0.00000000000E+00 0. -1.
         11    1    3    3    0    0 -0.46355925638E+02 -0.11855606690E+02 -0.18193866724E+03  0.18812523991E+03  0.00000000000E+00 0. -1.
        -12    1    3    3    0    0 -0.25023908765E+02  0.14006154647E+02 -0.67060656558E+03  0.67121943817E+03  0.00000000000E+00 0.  1.
          5    1    4    4  501    0  0.16634482048E+03  0.36487681469E+02  0.18315650445E+03  0.25013142090E+03  0.41800000000E+01 0.  1.
         -5    1    4    4    0  501 -0.14420001812E+02 -0.20520864809E+02  0.14618421331E+02  0.29329387770E+02  0.41800000000E+01 0.  1.
</event>
<event>
11    1  0.8299058E-009  0.4481836E+03  0.7561462E-02  0.9517397E-01
         22   -1    0    0    0    0  0.00000000000E+00  0.00000000000E+00  0.23692206921E+03  0.23692206921E+03  0.00000000000E+00 0. -1.
         22   -1    0    0    0    0 -0.00000000000E+00 -0.00000000000E+00 -0.15485164398E+04  0.15485164398E+04  0.00000000000E+00 0. -1.
         24    2    1    2    0    0 -0.97207584294E+02 -0.41531852149E+03 -0.10545223261E+04  0.11403640477E+04  0.80461396841E+02 0.  0.
         25    2    1    2    0    0  0.12557780678E+02  0.45109212670E+03 -0.20068259390E+03  0.50947187859E+03  0.12508511882E+03 0.  0.
        -24    2    1    2    0    0  0.84649803616E+02 -0.35773605215E+02 -0.56389450658E+02  0.13560258276E+03  0.82237158407E+02 0.  0.
        -11    1    3    3    0    0  0.10722940673E+02 -0.96393287556E+02 -0.21634695554E+03  0.23709207603E+03  0.00000000000E+00 0.  1.
         12    1    3    3    0    0 -0.10793052497E+03 -0.31892523393E+03 -0.83817537052E+03  0.90327197167E+03  0.00000000000E+00 0. -1.
         11    1    5    5    0    0  0.85178534407E+02 -0.30477050568E+02 -0.12423755611E+02  0.91315842210E+02  0.00000000000E+00 0. -1.
        -12    1    5    5    0    0 -0.52873079148E+00 -0.52965546472E+01 -0.43965695047E+02  0.44286740548E+02  0.00000000000E+00 0.  1.
          5    1    4    4  501    0 -0.14778462312E+02  0.42962809489E+03 -0.20075174003E+03  0.47446542170E+03  0.41800000000E+01 0. -1.
         -5    1    4    4    0  501  0.27336242990E+02  0.21464031816E+02  0.69146133014E-01  0.35006456887E+02  0.41800000000E+01 0. -1.
</event>
<event>
11    1  0.8299058E-009  0.1488862E+03  0.7561462E-02  0.1098022E+00
         22   -1    0    0    0    0  0.00000000000E+00  0.00000000000E+00  0.78371855539E+02  0.78371855539E+02  0.00000000000E+00 0.  1.
         22   -1    0    0    0    0 -0.00000000000E+00 -0.00000000000E+00 -0.19866544450E+04  0.19866544450E+04  0.00000000000E+00 0. -1.
        -24    2    1    2    0    0 -0.50776612752E+02 -0.68804190452E+02 -0.16170761723E+04  0.16214130207E+04  0.82052153330E+02 0.  0.
         25    2    1    2    0    0 -0.31736907023E+02  0.71946302628E+02 -0.29406456818E+03  0.32909724444E+03  0.12509006478E+03 0.  0.
         24    2    1    2    0    0  0.82513519775E+02 -0.31421121754E+01  0.28581509668E+01  0.11451603539E+03  0.79293124041E+02 0.  0.
        -13    1    5    5    0    0  0.65956570578E+02 -0.37354671851E+02 -0.39497203536E+01  0.75902839225E+02  0.00000000000E+00 0.  1.
         14    1    5    5    0    0  0.16556949197E+02  0.34212559676E+02  0.68078713203E+01  0.38613196166E+02  0.00000000000E+00 0. -1.
         13    1    3    3    0    0  0.14788792390E+02 -0.30508812887E+02 -0.82751664191E+03  0.82821089626E+03  0.00000000000E+00 0. -1.
        -14    1    3    3    0    0 -0.65565405142E+02 -0.38295377565E+02 -0.78955953035E+03  0.79320212447E+03  0.00000000000E+00 0.  1.
          5    1    4    4  501    0  0.29093819846E+02  0.33569511980E+01 -0.18134557261E+03  0.18374277831E+03  0.41800000000E+01 0. -1.
         -5    1    4    4    0  501 -0.60830726869E+02  0.68589351430E+02 -0.11271899557E+03  0.14535446613E+03  0.41800000000E+01 0. -1.
</event>
<event>
11    1  0.8299058E-009  0.1484973E+03  0.7561462E-02  0.1098424E+00
         22   -1    0    0    0    0  0.00000000000E+00  0.00000000000E+00  0.45401702715E+03  0.45401702715E+03  0.00000000000E+00 0.  1.
         22   -1    0    0    0    0 -0.00000000000E+00 -0.00000000000E+00 -0.54239432683E+03  0.54239432683E+03  0.00000000000E+00 0. -1.
        -24    2    1    2    0    0 -0.32962479443E+02 -0.60593649200E+02 -0.48106565262E+03  0.49265476249E+03  0.80786369543E+02 0.  0.
         25    2    1    2    0    0  0.10577294817E+03  0.42764445286E+02  0.12060189513E+03  0.20786928528E+03  0.12509239909E+03 0.  0.
         24    2    1    2    0    0 -0.72810468726E+02  0.17829203913E+02  0.27208645781E+03  0.29588730621E+03  0.88876389340E+02 0.  0.
        -13    1    5    5    0    0 -0.82791150503E+02 -0.12068643043E+02  0.21448950244E+03  0.23022982736E+03  0.00000000000E+00 0.  1.
         14    1    5    5    0    0  0.99806817763E+01  0.29897846957E+02  0.57596955367E+02  0.65657478850E+02  0.00000000000E+00 0. -1.
         11    1    3    3    0    0 -0.45527736997E+02 -0.47007011018E+01 -0.27461584122E+03  0.27840390025E+03  0.00000000000E+00 0. -1.
        -12    1    3    3    0    0  0.12565257554E+02 -0.55892948098E+02 -0.20644981140E+03  0.21425086224E+03  0.00000000000E+00 0.  1.
          5    1    4    4  501    0  0.63325661782E+02  0.66716228014E+01  0.13573060782E+03  0.14998306668E+03  0.41800000000E+01 0. -1.
         -5    1    4    4    0  501  0.42447286387E+02  0.36092822485E+02 -0.15128712694E+02  0.57886218605E+02  0.41800000000E+01 0. -1.
</event>
<event>
11    1  0.8299058E-009  0.1645231E+03  0.7561462E-02  0.1082899E+00
         22   -1    0    0    0    0  0.00000000000E+00  0.00000000000E+00  0.45448685790E+02  0.45448685790E+02  0.00000000000E+00 0.  1.
         22   -1    0    0    0    0 -0.00000000000E+00 -0.00000000000E+00 -0.18438064628E+04  0.18438064628E+04  0.00000000000E+00 0.  1.
         24    2    1    2    0    0  0.92301068267E+02 -0.46026362451E+02 -0.10820638425E+04  0.10897267663E+04  0.77487758741E+02 0.  0.
         25    2    1    2    0    0 -0.12189481498E+03  0.14663015906E+02 -0.68007868564E+03  0.70230161199E+03  0.12508871089E+03 0.  0.
        -24    2    1    2    0    0  0.29593746715E+02  0.31363346545E+02 -0.36215248893E+02  0.97226770295E+02  0.79259392241E+02 0.  0.
        -11    1    3    3    0    0  0.82362764025E+02 -0.43482569947E+02 -0.10693131595E+04  0.10733615383E+04  0.00000000000E+00 0.  1.
         12    1    3    3    0    0  0.99383042415E+01 -0.25437925042E+01 -0.12750682949E+02  0.16365227990E+02  0.00000000000E+00 0. -1.
         11    1    5    5    0    0  0.83041320917E+01  0.17592749714E+02 -0.59624383058E+02  0.62717864340E+02  0.00000000000E+00 0. -1.
        -12    1    5    5    0    0  0.21289614623E+02  0.13770596831E+02  0.23409134165E+02  0.34508905955E+02  0.00000000000E+00 0.  1.
          5    1    4    4  501    0 -0.12330469299E+03 -0.27894493135E+02 -0.41685633006E+03  0.43562463471E+03  0.41800000000E+01 0. -1.
         -5    1    4    4    0  501  0.14098780128E+01  0.42557509041E+02 -0.26322235558E+03  0.26667697727E+03  0.41800000000E+01 0. -1.
</event>
<event>
11    1  0.8299058E-009  0.1513631E+03  0.7561462E-02  0.1095494E+00
         22   -1    0    0    0    0  0.00000000000E+00  0.00000000000E+00  0.17215214030E+03  0.17215214030E+03  0.00000000000E+00 0. -1.
         22   -1    0    0    0    0 -0.00000000000E+00 -0.00000000000E+00 -0.17860459624E+04  0.17860459624E+04  0.00000000000E+00 0. -1.
        -24    2    1    2    0    0 -0.27520767531E+02  0.63995781868E+01 -0.78272558430E+03  0.78738095297E+03  0.80691248210E+02 0.  0.
         25    2    1    2    0    0  0.87781479758E+02 -0.65947284229E+02 -0.97330907491E+03  0.98743826263E+03  0.12509650164E+03 0.  0.
         24    2    1    2    0    0 -0.60260712227E+02  0.59547706042E+02  0.14214083715E+03  0.18337888705E+03  0.79034903037E+02 0.  0.
        -11    1    5    5    0    0  0.14553440460E+02  0.11521548332E+02  0.38190460550E+01  0.18950826314E+02  0.00000000000E+00 0.  1.
         12    1    5    5    0    0 -0.74814152687E+02  0.48026157710E+02  0.13832179110E+03  0.16442806074E+03  0.00000000000E+00 0. -1.
         13    1    3    3    0    0 -0.31625991454E+02  0.48009032710E+01 -0.78230132115E+03  0.78295504920E+03  0.00000000000E+00 0. -1.
        -14    1    3    3    0    0  0.41052239227E+01  0.15986749158E+01 -0.42426315546E+00  0.44259037684E+01  0.00000000000E+00 0.  1.
          5    1    4    4  501    0  0.44132564179E+02 -0.36125478092E+02 -0.86455807848E+03  0.86644727298E+03  0.41800000000E+01 0.  1.
         -5    1    4    4    0  501  0.43648915579E+02 -0.29821806137E+02 -0.10875099643E+03  0.12099098965E+03  0.41800000000E+01 0.  1.
</event>
<event>
11    1  0.8299058E-009  0.1326989E+03  0.7561462E-02  0.1115997E+00
         22   -1    0    0    0    0  0.00000000000E+00  0.00000000000E+00  0.29986487725E+03  0.29986487725E+03  0.00000000000E+00 0. -1.
         22   -1    0    0    0    0 -0.00000000000E+00 -0.00000000000E+00 -0.30967425669E+03  0.30967425669E+03  0.00000000000E+00 0.  1.
         24    2    1    2    0    0 -0.22734620376E+02 -0.80106444567E+01 -0.24673968848E+03  0.26056366393E+03  0.80199225074E+02 0.  0.
         25    2    1    2    0    0 -0.17283917082E+02 -0.19954010244E+02  0.45606203418E+02  0.13573379639E+03  0.12508733500E+03 0.  0.
        -24    2    1    2    0    0  0.40018537459E+02  0.27964654701E+02  0.19132410563E+03  0.21324167362E+03  0.80520759552E+02 0.  0.
        -13    1    3    3    0    0 -0.23586661893E+02  0.33263911192E+02 -0.14862226651E+03  0.15411488088E+03  0.00000000000E+00 0.  1.
         14    1    3    3    0    0  0.85204151633E+00 -0.41274555648E+02 -0.98117421971E+02  0.10644878305E+03  0.00000000000E+00 0. -1.
         11    1    5    5    0    0  0.46228139322E+02  0.42020321099E+02  0.18717493605E+03  0.19732512495E+03  0.00000000000E+00 0. -1.
        -12    1    5    5    0    0 -0.62096018638E+01 -0.14055666398E+02  0.41491695746E+01  0.15916548664E+02  0.00000000000E+00 0.  1.
          5    1    4    4  501    0 -0.35619525370E+02 -0.26223957650E+02 -0.32566796588E+02  0.55086433742E+02  0.41800000000E+01 0. -1.
         -5    1    4    4    0  501  0.18335608288E+02  0.62699474061E+01  0.78173000006E+02  0.80647362646E+02  0.41800000000E+01 0. -1.
</event>
<event>
11    1  0.8299058E-009  0.1745831E+03  0.7561462E-02  0.1074111E+00
         22   -1    0    0    0    0  0.00000000000E+00  0.00000000000E+00  0.18945505259E+03  0.18945505259E+03  0.00000000000E+00 0. -1.
         22   -1    0    0    0    0 -0.00000000000E+00 -0.00000000000E+00 -0.41578941088E+03  0.41578941088E+03  0.00000000000E+00 0.  1.
        -24    2    1    2    0    0  0.30191167957E+01  0.80351310587E+01 -0.21704979452E+03  0.23186241126E+03  0.81091837172E+02 0.  0.
         25    2    1    2    0    0 -0.52800087341E+02 -0.11722980391E+03 -0.98525671212E+02  0.20465956470E+03  0.12509018102E+03 0.  0.
         24    2    1    2    0    0  0.49780970545E+02  0.10919467285E+03  0.89241107448E+02  0.16872248752E+03  0.78113257065E+02 0.  0.
        -11    1    5    5    0    0 -0.63468081534E+01  0.54784235796E+02  0.68315072944E+02  0.87798312381E+02  0.00000000000E+00 0.  1.
         12    1    5    5    0    0  0.56127778698E+02  0.54410437053E+02  0.20926034503E+02  0.80924175139E+02  0.00000000000E+00 0. -1.
         11    1    3    3    0    0  0.54295919393E+01 -0.33980102751E+02 -0.13892832723E+03  0.14312654527E+03  0.00000000000E+00 0. -1.
        -12    1    3    3    0    0 -0.24104751436E+01  0.42015233810E+02 -0.78121467289E+02  0.88735865995E+02  0.00000000000E+00 0.  1.
          5    1    4    4  501    0 -0.75428758471E+02 -0.69665393334E+02 -0.11005978445E+03  0.15057686803E+03  0.41800000000E+01 0. -1.
         -5    1    4    4    0  501  0.22628671130E+02 -0.47564410574E+02  0.11534113240E+02  0.54082696665E+02  0.41800000000E+01 0. -1.
</event>
<event>
11    1  0.8299058E-009  0.1429271E+03  0.7561462E-02  0.1104333E+00
         22   -1    0    0    0    0  0.00000000000E+00  0.00000000000E+00  0.37039785118E+03  0.37039785118E+03  0.00000000000E+00 0. -1.
         22   -1    0    0    0    0 -0.00000000000E+00 -0.00000000000E+00 -0.41993192245E+03  0.41993192245E+03  0.00000000000E+00 0. -1.
         24    2    1    2    0    0 -0.64989384756E+02 -0.98060057591E+01 -0.27736095954E+03  0.29568880214E+03  0.78631977925E+02 0.  0.
         25    2    1    2    0    0  0.92451540237E+02 -0.42560379999E+02 -0.73676315131E+02  0.17729681775E+03  0.12508912397E+03 0.  0.
        -24    2    1    2    0    0 -0.27462155480E+02  0.52366385758E+02  0.30150320340E+03  0.31734415374E+03  0.79414872101E+02 0.  0.
        -13    1    3    3    0    0  0.26223748141E+01 -0.29395840277E+02 -0.54536530234E+02  0.62009881513E+02  0.00000000000E+00 0.  1.
         14    1    3    3    0    0 -0.67611759570E+02  0.19589834518E+02 -0.22282442931E+03  0.23367892063E+03  0.00000000000E+00 0. -1.
         13    1    5    5    0    0 -0.47751130448E+02  0.42689838009E+02  0.27606205252E+03  0.28339521798E+03  0.00000000000E+00 0. -1.
        -14    1    5    5    0    0  0.20288974968E+02  0.96765477497E+01  0.25441150882E+02  0.33948935768E+02  0.00000000000E+00 0.  1.
          5    1    4    4  501    0  0.17459283910E+02 -0.76690161323E+02 -0.35707659234E+02  0.86479574273E+02  0.41800000000E+01 0. -1.
         -5    1    4    4    0  501  0.74992256327E+02  0.34129781324E+02 -0.37968655897E+02  0.90817243477E+02  0.41800000000E+01 0. -1.
</event>
<event>
11    1  0.8299058E-009  0.1578116E+03  0.7561462E-02  0.1089154E+00
         22   -1    0    0    0    0  0.00000000000E+00  0.00000000000E+00  0.10720860540E+04  0.10720860540E+04  0.00000000000E+00 0.  1.
         22   -1    0    0    0    0 -0.00000000000E+00 -0.00000000000E+00 -0.24507948713E+03  0.24507948713E+03  0.00000000000E+00 0. -1.
        -24    2    1    2    0    0 -0.45020978649E+02  0.50276624009E+02 -0.19360115939E+03  0.22079403460E+03  0.81938814709E+02 0.  0.
         25    2    1    2    0    0  0.10854802718E+03  0.22887907636E+02  0.17695127968E+03  0.24344639245E+03  0.12509140696E+03 0.  0.
         24    2    1    2    0    0 -0.63527048529E+02 -0.73164531646E+02  0.84365644659E+03  0.85292511408E+03  0.79600978470E+02 0.  0.
        -11    1    5    5    0    0 -0.52187818987E+02 -0.75353972577E+02  0.82997485768E+03  0.83502099016E+03  0.00000000000E+00 0.  1.
         12    1    5    5    0    0 -0.11339229542E+02  0.21894409312E+01  0.13681588914E+02  0.17904123922E+02  0.00000000000E+00 0. -1.
         11    1    3    3    0    0 -0.65070047953E+02  0.16934207074E+02 -0.12410110845E+03  0.14114518634E+03  0.00000000000E+00 0. -1.
        -12    1    3    3    0    0  0.20049069305E+02  0.33342416935E+02 -0.69500050942E+02  0.79648848253E+02  0.00000000000E+00 0.  1.
          5    1    4    4  501    0  0.11414028568E+03 -0.14855325836E+02  0.83035419328E+02  0.14198957280E+03  0.41800000000E+01 0.  1.
         -5    1    4    4    0  501 -0.55922585011E+01  0.37743233472E+02  0.93915860354E+02  0.10145681965E+03  0.41800000000E+01 0.  1.
</event>
<event>
11    1  0.8299058E-009  0.1390396E+03  0.7561462E-02  0.1108636E+00
         22   -1    0    0    0    0  0.00000000000E+00  0.00000000000E+00  0.12501922997E+03  0.12501922997E+03  0.00000000000E+00 0. -1.
         22   -1    0    0    0    0 -0.00000000000E+00 -0.00000000000E+00 -0.97345845841E+03  0.97345845841E+03  0.00000000000E+00 0.  1.
         24    2    1    2    0    0 -0.20531198253E+02  0.67426449273E+02 -0.61469675886E+03  0.62385389005E+03  0.79835547302E+02 0.  0.
         25    2    1    2    0    0  0.31975844707E+01 -0.34461035055E+02 -0.32388524273E+03  0.34892016689E+03  0.12508335189E+03 0.  0.
        -24    2    1    2    0    0  0.17333613782E+02 -0.32965414218E+02  0.90142773148E+02  0.12570363144E+03  0.79300130542E+02 0.  0.
        -13    1    3    3    0    0 -0.45212788425E+02  0.37893211379E+02 -0.48476662753E+03  0.48834288658E+03  0.00000000000E+00 0.  1.
         14    1    3    3    0    0  0.24681590173E+02  0.29533237894E+02 -0.12993013133E+03  0.13551100347E+03  0.00000000000E+00 0. -1.
         13    1    5    5    0    0 -0.31801353041E+01 -0.26436511613E+02  0.98930683098E+02  0.10245136634E+03  0.00000000000E+00 0. -1.
        -14    1    5    5    0    0  0.20513749086E+02 -0.65289026053E+01 -0.87879099496E+01  0.23252265096E+02  0.00000000000E+00 0.  1.
          5    1    4    4  501    0  0.59909348401E+02  0.48397775850E+01 -0.16470064408E+03  0.17537482155E+03  0.41800000000E+01 0.  1.
         -5    1    4    4    0  501 -0.56711763930E+02 -0.39300812640E+02 -0.15918459865E+03  0.17354534534E+03  0.41800000000E+01 0.  1.
</event>
<event>
11    1  0.8299058E-009  0.1699542E+03  0.7561462E-02  0.1078072E+00
         22   -1    0    0    0    0  0.00000000000E+00  0.00000000000E+00  0.83709818105E+03  0.83709818105E+03  0.00000000000E+00 0. -1.
         22   -1    0    0    0    0 -0.00000000000E+00 -0.00000000000E+00 -0.35158550876E+03  0.35158550876E+03  0.00000000000E+00 0. -1.
         24    2    1    2    0    0  0.11609448058E+03 -0.44674893984E+02 -0.28802862726E+03  0.32457065724E+03  0.83137517667E+02 0.  0.
         25    2    1    2    0    0 -0.16306914477E+02  0.75024134396E+02  0.99628147488E+02  0.17739039213E+03  0.12508815789E+03 0.  0.
        -24    2    1    2    0    0 -0.99787566104E+02 -0.30349240412E+02  0.67391315207E+03  0.68672264044E+03  0.80934625570E+02 0.  0.
        -13    1    3    3    0    0 -0.75942860437E+01 -0.68903410722E+01 -0.72457790523E+02  0.73179788112E+02  0.00000000000E+00 0.  1.
         14    1    3    3    0    0  0.12368876663E+03 -0.37784552912E+02 -0.21557083674E+03  0.25139086913E+03  0.00000000000E+00 0. -1.
         13    1    5    5    0    0 -0.73898528271E+02 -0.17774651924E+02  0.62766470861E+03  0.63224988506E+03  0.00000000000E+00 0. -1.
        -14    1    5    5    0    0 -0.25889037833E+02 -0.12574588488E+02  0.46248443468E+02  0.54472755380E+02  0.00000000000E+00 0.  1.
          5    1    4    4  501    0  0.23479624486E+02 -0.21409842499E+02  0.55407009716E+02  0.64008462311E+02  0.41800000000E+01 0.  1.
         -5    1    4    4    0  501 -0.39786538964E+02  0.96433976895E+02  0.44221137773E+02  0.11338192981E+03  0.41800000000E+01 0.  1.
</event>
<event>
11    1  0.8299058E-009  0.1336597E+03  0.7561462E-02  0.1114852E+00
         22   -1    0    0    0    0  0.00000000000E+00  0.00000000000E+00  0.22662601989E+03  0.22662601989E+03  0.00000000000E+00 0.  1.
         22   -1    0    0    0    0 -0.00000000000E+00 -0.00000000000E+00 -0.35935371020E+03  0.35935371020E+03  0.00000000000E+00 0. -1.
         24    2    1    2    0    0  0.49200744219E+02 -0.57681836265E+00 -0.29189689561E+03  0.30694750849E+03  0.81190697445E+02 0.  0.
         25    2    1    2    0    0 -0.22413734986E+02  0.48351837647E+01  0.41136550140E+02  0.13366293205E+03  0.12509120324E+03 0.  0.
        -24    2    1    2    0    0 -0.26787009233E+02 -0.42583654020E+01  0.11803265516E+03  0.14536928956E+03  0.80404260603E+02 0.  0.
        -13    1    3    3    0    0  0.84361504500E+01  0.84173691523E+01  0.16395958194E+00  0.11918373237E+02  0.00000000000E+00 0.  1.
         14    1    3    3    0    0  0.40764593769E+02 -0.89941875149E+01 -0.29206085519E+03  0.29502913526E+03  0.00000000000E+00 0. -1.
         11    1    5    5    0    0 -0.48995947071E+02  0.18950442859E+02  0.78017163858E+02  0.94055302723E+02  0.00000000000E+00 0. -1.
        -12    1    5    5    0    0  0.22208937838E+02 -0.23208808261E+02  0.40015491299E+02  0.51313986833E+02  0.00000000000E+00 0.  1.
          5    1    4    4  501    0 -0.48754290883E+02 -0.47400375332E+02  0.27367078891E+02  0.73418021412E+02  0.41800000000E+01 0.  1.
         -5    1    4    4    0  501  0.26340555897E+02  0.52235559096E+02  0.13769471250E+02  0.60244910636E+02  0.41800000000E+01 0.  1.
</event>
<event>
11    1  0.8299058E-009  0.1318631E+03  0.7561462E-02  0.1117001E+00
         22   -1    0    0    0    0  0.00000000000E+00  0.00000000000E+00  0.76897283886E+03  0.76897283886E+03  0.00000000000E+00 0.  1.
         22   -1    0    0    0    0 -0.00000000000E+00 -0.00000000000E+00 -0.12243445391E+03  0.12243445391E+03  0.00000000000E+00 0. -1.
         24    2    1    2    0    0  0.40421085197E+02  0.62683158639E+01 -0.69392765351E+02  0.11234047926E+03  0.78306267211E+02 0.  0.
         25    2    1    2    0    0 -0.50024832909E+02  0.13619645711E+02  0.13230791057E+03  0.18931251053E+03  0.12508343131E+03 0.  0.
        -24    2    1    2    0    0  0.96037477120E+01 -0.19887961575E+02  0.58362323973E+03  0.58975430298E+03  0.81891934559E+02 0.  0.
        -11    1    3    3    0    0  0.38554082504E+02  0.29236448039E+02 -0.11078047658E+02  0.49637791163E+02  0.00000000000E+00 0.  1.
         12    1    3    3    0    0  0.18670026934E+01 -0.22968132175E+02 -0.58314717693E+02  0.62702688094E+02  0.00000000000E+00 0. -1.
         11    1    5    5    0    0  0.42274776801E+02 -0.21521585689E+02  0.24467396658E+03  0.24923018543E+03  0.00000000000E+00 0. -1.
        -12    1    5    5    0    0 -0.32671029089E+02  0.16336241142E+01  0.33894927315E+03  0.34052411756E+03  0.00000000000E+00 0.  1.
          5    1    4    4  501    0 -0.32837932839E+02  0.68673653414E+02  0.61892888335E+02  0.98196754187E+02  0.41800000000E+01 0.  1.
         -5    1    4    4    0  501 -0.17186900070E+02 -0.55054007703E+02  0.70415022236E+02  0.91115756347E+02  0.41800000000E+01 0.  1.
</event>
<event>
11    1  0.8299058E-009  0.2264449E+03  0.7561462E-02  0.1037254E+00
         22   -1    0    0    0    0  0.00000000000E+00  0.00000000000E+00  0.56592496852E+03  0.56592496852E+03  0.00000000000E+00 0.  1.
         22   -1    0    0    0    0 -0.00000000000E+00 -0.00000000000E+00 -0.20398688837E+03  0.20398688837E+03  0.00000000000E+00 0.  1.
         24    2    1    2    0    0  0.30406780706E+02  0.57568898549E+02 -0.37795642790E+02  0.11077287316E+03  0.81261112605E+02 0.  0.
         25    2    1    2    0    0  0.16328318197E+03 -0.67866647966E+02  0.10471877699E+02  0.21684316810E+03  0.12507605649E+03 0.  0.
        -24    2    1    2    0    0 -0.19368996268E+03  0.10297749417E+02  0.38926184525E+03  0.44229581563E+03  0.80491981410E+02 0.  0.
        -13    1    3    3    0    0  0.22017641552E+02 -0.63600393280E+01  0.15040564828E+02  0.27412501347E+02  0.00000000000E+00 0.  1.
         14    1    3    3    0    0  0.83891391543E+01  0.63928937877E+02 -0.52836207618E+02  0.83360371816E+02  0.00000000000E+00 0. -1.
         11    1    5    5    0    0 -0.21080802432E+02 -0.17148635224E+02  0.10621065972E+03  0.10963202160E+03  0.00000000000E+00 0. -1.
        -12    1    5    5    0    0 -0.17260916025E+03  0.27446384641E+02  0.28305118553E+03  0.33266379403E+03  0.00000000000E+00 0.  1.
          5    1    4    4  501    0  0.10361024264E+03  0.24488207717E+02  0.42137376796E+01  0.10663012090E+03  0.41800000000E+01 0. -1.
         -5    1    4    4    0  501  0.59672939329E+02 -0.92354855683E+02  0.62581400193E+01  0.11021304720E+03  0.41800000000E+01 0. -1.
</event>
<event>
11    1  0.8299058E-009  0.3906894E+03  0.7561462E-02  0.9677636E-01
         22   -1    0    0    0    0  0.00000000000E+00  0.00000000000E+00  0.31859934791E+04  0.31859934791E+04  0.00000000000E+00 0. -1.
         22   -1    0    0    0    0 -0.00000000000E+00 -0.00000000000E+00 -0.10209667072E+04  0.10209667072E+04  0.00000000000E+00 0. -1.
         24    2    1    2    0    0  0.60008494941E+02  0.17332583429E+02 -0.93751223201E+03  0.94306693966E+03  0.80898885033E+02 0.  0.
         25    2    1    2    0    0  0.14721223516E+03  0.29895184505E+03  0.40616523761E+03  0.54005710473E+03  0.12509127983E+03 0.  0.
        -24    2    1    2    0    0 -0.20722073010E+03 -0.31628442848E+03  0.26963737664E+04  0.27238361419E+04  0.76652263402E+02 0.  0.
        -11    1    3    3    0    0 -0.15567362384E+02  0.80864048149E+01 -0.37688647475E+03  0.37729451039E+03  0.00000000000E+00 0.  1.
         12    1    3    3    0    0  0.75575857325E+02  0.92461786145E+01 -0.56062575725E+03  0.56577242927E+03  0.00000000000E+00 0. -1.
         13    1    5    5    0    0 -0.19391967840E+03 -0.27524687445E+03  0.25130482914E+04  0.25355033816E+04  0.00000000000E+00 0. -1.
        -14    1    5    5    0    0 -0.13301051709E+02 -0.41037554023E+02  0.18332547499E+03  0.18833276028E+03  0.00000000000E+00 0.  1.
          5    1    4    4  501    0  0.54940237008E+02  0.23641640984E+03  0.25352809475E+03  0.35100586279E+03  0.41800000000E+01 0.  1.
         -5    1    4    4    0  501  0.92271998156E+02  0.62535435209E+02  0.15263714286E+03  0.18905124194E+03  0.41800000000E+01 0.  1.
</event>
<event>
11    1  0.8299058E-009  0.1739915E+03  0.7561462E-02  0.1074609E+00
         22   -1    0    0    0    0  0.00000000000E+00  0.00000000000E+00  0.16901586166E+03  0.16901586166E+03  0.00000000000E+00 0.  1.
         22   -1    0    0    0    0 -0.00000000000E+00 -0.00000000000E+00 -0.64740590325E+03  0.64740590325E+03  0.00000000000E+00 0. -1.
         24    2    1    2    0    0  0.30693539766E+02  0.42384025772E+02 -0.42432529842E+03  0.43509447716E+03  0.80726365919E+02 0.  0.
         25    2    1    2    0    0 -0.10363668293E+03 -0.12481352401E+03 -0.11141343562E+03  0.23319522524E+03  0.12509229239E+03 0.  0.
        -24    2    1    2    0    0  0.72943143165E+02  0.82429498234E+02  0.57348692452E+02  0.14813206250E+03  0.80863533816E+02 0.  0.
        -11    1    3    3    0    0 -0.18879613986E+00 -0.23156030292E+02 -0.83363493723E+02  0.86519994617E+02  0.00000000000E+00 0.  1.
         12    1    3    3    0    0  0.30882335906E+02  0.65540056064E+02 -0.34096180470E+03  0.34857448254E+03  0.00000000000E+00 0. -1.
         13    1    5    5    0    0  0.29290012993E+02 -0.19165376927E+01 -0.10759111378E+02  0.31262380835E+02  0.00000000000E+00 0. -1.
        -14    1    5    5    0    0  0.43653130172E+02  0.84346035926E+02  0.68107803829E+02  0.11686968167E+03  0.00000000000E+00 0.  1.
          5    1    4    4  501    0 -0.97038498200E+02 -0.13654487184E+03 -0.57014566952E+02  0.17700029775E+03  0.41800000000E+01 0. -1.
         -5    1    4    4    0  501 -0.65981847300E+01  0.11731347836E+02 -0.54398868665E+02  0.56194927492E+02  0.41800000000E+01 0. -1.
</event>
<event>
11    1  0.8299058E-009  0.1596625E+03  0.7561462E-02  0.1087395E+00
         22   -1    0    0    0    0  0.00000000000E+00  0.00000000000E+00  0.21536762387E+03  0.21536762387E+03  0.00000000000E+00 0.  1.
         22   -1    0    0    0    0 -0.00000000000E+00 -0.00000000000E+00 -0.17002597078E+04  0.17002597078E+04  0.00000000000E+00 0. -1.
        -24    2    1    2    0    0 -0.40350819406E+02 -0.35990582548E+02 -0.11873343543E+04  0.11912473304E+04  0.79898827731E+02 0.  0.
         25    2    1    2    0    0  0.69475155625E+02 -0.59820150251E+02 -0.47748487040E+03  0.50204072561E+03  0.12509133096E+03 0.  0.
         24    2    1    2    0    0 -0.29124336219E+02  0.95810732799E+02  0.17992714076E+03  0.22233927566E+03  0.83863305672E+02 0.  0.
        -13    1    5    5    0    0  0.17310290512E+01  0.15726947297E+02  0.11139109669E+03  0.11250915409E+03  0.00000000000E+00 0.  1.
         14    1    5    5    0    0 -0.30855365270E+02  0.80083785501E+02  0.68536044069E+02  0.10983012156E+03  0.00000000000E+00 0. -1.
         11    1    3    3    0    0 -0.58130401579E+02 -0.22151381995E+02 -0.10676456066E+04  0.10694563893E+04  0.00000000000E+00 0. -1.
        -12    1    3    3    0    0  0.17779582173E+02 -0.13839200553E+02 -0.11968874773E+03  0.12179094116E+03  0.00000000000E+00 0.  1.
          5    1    4    4  501    0 -0.25681050324E+02 -0.27848844550E+01 -0.22120979444E+03  0.22275214361E+03  0.41800000000E+01 0. -1.
         -5    1    4    4    0  501  0.95156205949E+02 -0.57035265796E+02 -0.25627507597E+03  0.27928858200E+03  0.41800000000E+01 0. -1.
</event>
<event>
11    1  0.8299058E-009  0.1614458E+03  0.7561462E-02  0.1085725E+00
         22   -1    0    0    0    0  0.00000000000E+00  0.00000000000E+00  0.44094834182E+03  0.44094834182E+03  0.00000000000E+00 0. -1.
         22   -1    0    0    0    0 -0.00000000000E+00 -0.00000000000E+00 -0.97939354193E+03  0.97939354193E+03  0.00000000000E+00 0. -1.
        -24    2    1    2    0    0 -0.32318038420E+02  0.14438925608E+02 -0.80899794134E+03  0.81384942532E+03  0.81365102030E+02 0.  0.
         25    2    1    2    0    0  0.13123113287E+03 -0.28500820436E+02 -0.10383121306E+03  0.21086250048E+03  0.12509263088E+03 0.  0.
         24    2    1    2    0    0 -0.98913094454E+02  0.14061894828E+02  0.37438395429E+03  0.39562995795E+03  0.79863516421E+02 0.  0.
        -11    1    5    5    0    0 -0.17531071498E+02 -0.19649342551E+02  0.18375948372E+03  0.18563669623E+03  0.00000000000E+00 0.  1.
         12    1    5    5    0    0 -0.81382022957E+02  0.33711237379E+02  0.19062447057E+03  0.20999326171E+03  0.00000000000E+00 0. -1.
         11    1    3    3    0    0 -0.38144357901E+02  0.43560966590E+02 -0.47002495461E+03  0.47357787935E+03  0.00000000000E+00 0. -1.
        -12    1    3    3    0    0  0.58263194811E+01 -0.29122040982E+02 -0.33897298672E+03  0.34027154597E+03  0.00000000000E+00 0.  1.
          5    1    4    4  501    0  0.37244449504E+02 -0.48128625562E+02  0.10078412637E+02  0.61826858392E+02  0.41800000000E+01 0.  1.
         -5    1    4    4    0  501  0.93986683370E+02  0.19627805126E+02 -0.11390962570E+03  0.14903564209E+03  0.41800000000E+01 0.  1.
</event>
<event>
11    1  0.8299058E-009  0.1347416E+03  0.7561462E-02  0.1113577E+00
         22   -1    0    0    0    0  0.00000000000E+00  0.00000000000E+00  0.19802773228E+03  0.19802773228E+03  0.00000000000E+00 0.  1.
         22   -1    0    0    0    0 -0.00000000000E+00 -0.00000000000E+00 -0.31270627977E+03  0.31270627977E+03  0.00000000000E+00 0.  1.
        -24    2    1    2    0    0  0.31568410779E+02  0.68801096830E+01 -0.20676791043E+03  0.22349733091E+03  0.78448630769E+02 0.  0.
         25    2    1    2    0    0 -0.62544151367E+02 -0.39902954105E+02 -0.14575407018E+02  0.14616558907E+03  0.12509164769E+03 0.  0.
         24    2    1    2    0    0  0.30975740587E+02  0.33022844422E+02  0.10666476997E+03  0.14107109207E+03  0.80459151793E+02 0.  0.
        -11    1    5    5    0    0  0.45824805364E+02  0.95868630122E+01  0.10292957016E+03  0.11307659856E+03  0.00000000000E+00 0.  1.
         12    1    5    5    0    0 -0.14849064776E+02  0.23435981409E+02  0.37351998109E+01  0.27994493512E+02  0.00000000000E+00 0. -1.
         13    1    3    3    0    0  0.31899878017E+00  0.46862610805E+01  0.64563381223E+01  0.79841784227E+01  0.00000000000E+00 0. -1.
        -14    1    3    3    0    0  0.31249411999E+02  0.21938486025E+01 -0.21322424855E+03  0.21551315248E+03  0.00000000000E+00 0.  1.
          5    1    4    4  501    0  0.14701663363E+02  0.34116367362E+02  0.36404674196E+01  0.37560495612E+02  0.41800000000E+01 0.  1.
         -5    1    4    4    0  501 -0.77245814730E+02 -0.74019321467E+02 -0.18215874437E+02  0.10860509346E+03  0.41800000000E+01 0.  1.
</event>
<event>
11    1  0.8299058E-009  0.1804734E+03  0.7561462E-02  0.1069261E+00
         22   -1    0    0    0    0  0.00000000000E+00  0.00000000000E+00  0.12674584991E+04  0.12674584991E+04  0.00000000000E+00 0.  1.
         22   -1    0    0    0    0 -0.00000000000E+00 -0.00000000000E+00 -0.90204844818E+02  0.90204844818E+02  0.00000000000E+00 0.  1.
        -24    2    1    2    0    0  0.94336684316E+02  0.28701393710E+02  0.10755399761E+03  0.16628510542E+03  0.79747688822E+02 0.  0.
         25    2    1    2    0    0 -0.15739317507E+03 -0.88912722970E+02  0.15471119163E+03  0.26881227199E+03  0.12508557428E+03 0.  0.
         24    2    1    2    0    0  0.63056490754E+02  0.60211329260E+02  0.91498846501E+03  0.92256596647E+03  0.79514440220E+02 0.  0.
        -13    1    5    5    0    0  0.71907291529E+02  0.69680694682E+02  0.87013380888E+03  0.87587607751E+03  0.00000000000E+00 0.  1.
         14    1    5    5    0    0 -0.88508007758E+01 -0.94693654217E+01  0.44854656125E+02  0.46689888969E+02  0.00000000000E+00 0. -1.
         11    1    3    3    0    0  0.46542551593E+01  0.15211932910E+02  0.63496057714E+02  0.65458493254E+02  0.00000000000E+00 0. -1.
        -12    1    3    3    0    0  0.89682429157E+02  0.13489460800E+02  0.44057939899E+02  0.10082661216E+03  0.00000000000E+00 0.  1.
          5    1    4    4  501    0 -0.10778182798E+03 -0.11358242513E+03  0.14285507312E+03  0.21199748597E+03  0.41800000000E+01 0. -1.
         -5    1    4    4    0  501 -0.49611347094E+02  0.24669702155E+02  0.11856118504E+02  0.56814786023E+02  0.41800000000E+01 0. -1.
</event>
<event>
11    1  0.8299058E-009  0.1572983E+03  0.7561462E-02  0.1089646E+00
         22   -1    0    0    0    0  0.00000000000E+00  0.00000000000E+00  0.81745045314E+03  0.81745045314E+03  0.00000000000E+00 0.  1.
         22   -1    0    0    0    0 -0.00000000000E+00 -0.00000000000E+00 -0.85745700109E+03  0.85745700109E+03  0.00000000000E+00 0. -1.
         24    2    1    2    0    0  0.84335220553E+02  0.44070917291E+02 -0.82967324769E+03  0.83920331717E+03  0.82763726588E+02 0.  0.
         25    2    1    2    0    0 -0.10074061838E+03 -0.70638596682E+02  0.60030175803E+03  0.62541929922E+03  0.12509442676E+03 0.  0.
        -24    2    1    2    0    0  0.16405397832E+02  0.26567679391E+02  0.18936494171E+03  0.21028483784E+03  0.85939823194E+02 0.  0.
        -13    1    3    3    0    0  0.10550918780E+02  0.87228107301E+01 -0.14524956550E+02  0.19959551020E+02  0.00000000000E+00 0.  1.
         14    1    3    3    0    0  0.73784301773E+02  0.35348106561E+02 -0.81514829114E+03  0.81924376615E+03  0.00000000000E+00 0. -1.
         11    1    5    5    0    0  0.38003439139E+01 -0.30008559434E+02  0.40620378476E+02  0.50645546701E+02  0.00000000000E+00 0. -1.
        -12    1    5    5    0    0  0.12605053918E+02  0.56576238825E+02  0.14874456323E+03  0.15963929114E+03  0.00000000000E+00 0.  1.
          5    1    4    4  501    0 -0.10593555676E+03 -0.12748639332E+02  0.27624570124E+03  0.29616554466E+03  0.41800000000E+01 0. -1.
         -5    1    4    4    0  501  0.51949383765E+01 -0.57889957350E+02  0.32405605679E+03  0.32925375456E+03  0.41800000000E+01 0. -1.
</event>
<event>
11    1  0.8299058E-009  0.1736687E+03  0.7561462E-02  0.1074882E+00
         22   -1    0    0    0    0  0.00000000000E+00  0.00000000000E+00  0.10914034072E+03  0.10914034072E+03  0.00000000000E+00 0. -1.
         22   -1    0    0    0    0 -0.00000000000E+00 -0.00000000000E+00 -0.20591672516E+04  0.20591672516E+04  0.00000000000E+00 0. -1.
         24    2    1    2    0    0 -0.21426768456E+02  0.12065572640E+03 -0.16267092918E+04  0.16333067084E+04  0.80565333065E+02 0.  0.
         25    2    1    2    0    0  0.50434657843E+02 -0.10144485320E+03 -0.39029873222E+03  0.42522953889E+03  0.12510934184E+03 0.  0.
        -24    2    1    2    0    0 -0.29007889388E+02 -0.19210873198E+02  0.66981113164E+02  0.10977134503E+03  0.79704224312E+02 0.  0.
        -13    1    3    3    0    0 -0.44717233078E+01  0.34988898105E+02 -0.15305025417E+03  0.15706240671E+03  0.00000000000E+00 0.  1.
         14    1    3    3    0    0 -0.16955045148E+02  0.85666828294E+02 -0.14736590377E+04  0.14762443017E+04  0.00000000000E+00 0. -1.
         11    1    5    5    0    0 -0.31639147504E+02 -0.23446996341E+02  0.83605144889E+02  0.92415461608E+02  0.00000000000E+00 0. -1.
        -12    1    5    5    0    0  0.26312581165E+01  0.42361231436E+01 -0.16624031725E+02  0.17355883422E+02  0.00000000000E+00 0.  1.
          5    1    4    4  501    0  0.33192965692E+02 -0.91027506493E+02 -0.39271699504E+03  0.40451438849E+03  0.41800000000E+01 0. -1.
         -5    1    4    4    0  501  0.17241692151E+02 -0.10417346708E+02  0.24182628153E+01  0.20715150391E+02  0.41800000000E+01 0. -1.
</event>
<event>
11    1  0.8299058E-009  0.1297002E+03  0.7561462E-02  0.1119638E+00
         22   -1    0    0    0    0  0.00000000000E+00  0.00000000000E+00  0.51774886331E+03  0.51774886331E+03  0.00000000000E+00 0.  1.
         22   -1    0    0    0    0 -0.00000000000E+00 -0.00000000000E+00 -0.33184640416E+03  0.33184640416E+03  0.00000000000E+00 0.  1.
        -24    2    1    2    0    0  0.23646670233E+02  0.25154231357E+02 -0.28592723319E+03  0.29893333578E+03  0.80092797390E+02 0.  0.
         25    2    1    2    0    0 -0.14776274878E+02 -0.27103389253E+02  0.80627400657E+02  0.15198925102E+03  0.12508805970E+03 0.  0.
         24    2    1    2    0    0 -0.88703953550E+01  0.19491578966E+01  0.39120229168E+03  0.39867268066E+03  0.76277061823E+02 0.  0.
        -11    1    5    5    0    0 -0.22152041246E+02  0.16018710698E+02  0.36540372749E+03  0.36642488465E+03  0.00000000000E+00 0.  1.
         12    1    5    5    0    0  0.13281645891E+02 -0.14069552802E+02  0.25798564187E+02  0.32247796013E+02  0.00000000000E+00 0. -1.
         11    1    3    3    0    0  0.15749510806E+01 -0.28750488259E+02 -0.85878658863E+02  0.90577122356E+02  0.00000000000E+00 0. -1.
        -12    1    3    3    0    0  0.22071719153E+02  0.53904719616E+02 -0.20004857433E+03  0.20835621343E+03  0.00000000000E+00 0.  1.
          5    1    4    4  501    0  0.13508141540E+02  0.95067046800E+01  0.10015914075E+03  0.10159809643E+03  0.41800000000E+01 0. -1.
         -5    1    4    4    0  501 -0.28284416419E+02 -0.36610093933E+02 -0.19531740093E+02  0.50391154591E+02  0.41800000000E+01 0. -1.
</event>
<event>
11    1  0.8299058E-009  0.1287774E+03  0.7561462E-02  0.1120780E+00
         22   -1    0    0    0    0  0.00000000000E+00  0.00000000000E+00  0.21474097635E+04  0.21474097635E+04  0.00000000000E+00 0. -1.
         22   -1    0    0    0    0 -0.00000000000E+00 -0.00000000000E+00 -0.67529125047E+03  0.67529125047E+03  0.00000000000E+00 0.  1.
        -24    2    1    2    0    0 -0.19074065250E+02  0.24567795760E+02 -0.63421603970E+03  0.64065015181E+03  0.85060187247E+02 0.  0.
         25    2    1    2    0    0  0.31836276018E+01 -0.15076718448E+02  0.70178644063E+02  0.14425549940E+03  0.12508862499E+03 0.  0.
         24    2    1    2    0    0  0.15890437648E+02 -0.94910773115E+01  0.20361559087E+04  0.20377953628E+04  0.79601944255E+02 0.  0.
        -11    1    5    5    0    0  0.45866525855E+02  0.60291462213E+01  0.96578104481E+03  0.96688836756E+03  0.00000000000E+00 0.  1.
         12    1    5    5    0    0 -0.29976088207E+02 -0.15520223533E+02  0.10703748639E+04  0.10709069952E+04  0.00000000000E+00 0. -1.
         13    1    3    3    0    0 -0.20687340033E+02  0.48092433704E+02 -0.23602509286E+03  0.24176164435E+03  0.00000000000E+00 0. -1.
        -14    1    3    3    0    0  0.16132747828E+01 -0.23524637944E+02 -0.39819094684E+03  0.39888850747E+03  0.00000000000E+00 0.  1.
          5    1    4    4  501    0 -0.57915462275E+02  0.88615272062E+00  0.14249066674E+02  0.59795437437E+02  0.41800000000E+01 0. -1.
         -5    1    4    4    0  501  0.61099089877E+02 -0.15962871169E+02  0.55929577390E+02  0.84460061963E+02  0.41800000000E+01 0. -1.
</event>
<event>
11    1  0.8299058E-009  0.1318126E+03  0.7561462E-02  0.1117062E+00
         22   -1    0    0    0    0  0.00000000000E+00  0.00000000000E+00  0.15458310469E+04  0.15458310469E+04  0.00000000000E+00 0.  1.
         22   -1    0    0    0    0 -0.00000000000E+00 -0.00000000000E+00 -0.70062581878E+02  0.70062581878E+02  0.00000000000E+00 0. -1.
        -24    2    1    2    0    0  0.39330691899E+02 -0.14804251759E+02 -0.25783741578E+02  0.93851307612E+02  0.79857356676E+02 0.  0.
         25    2    1    2    0    0 -0.38523398571E+02 -0.39257138867E+01  0.48261949494E+03  0.50006810135E+03  0.12508823135E+03 0.  0.
         24    2    1    2    0    0 -0.80729332805E+00  0.18729965646E+02  0.10189327117E+04  0.10219742198E+04  0.76524321312E+02 0.  0.
        -11    1    5    5    0    0 -0.62178755936E+01  0.23632590826E+02  0.10105992533E+04  0.10108946593E+04  0.00000000000E+00 0.  1.
         12    1    5    5    0    0  0.54105822655E+01 -0.49026251806E+01  0.83334583354E+01  0.11079560548E+02  0.00000000000E+00 0. -1.
         11    1    3    3    0    0 -0.23306176664E+02 -0.37448545462E+00 -0.17275586571E+02  0.29013169448E+02  0.00000000000E+00 0. -1.
        -12    1    3    3    0    0  0.62636868563E+02 -0.14429766304E+02 -0.85081550071E+01  0.64838138164E+02  0.00000000000E+00 0.  1.
          5    1    4    4  501    0  0.16400414817E+02  0.37303200080E+02  0.65085466854E+02  0.76903138675E+02  0.41800000000E+01 0. -1.
         -5    1    4    4    0  501 -0.54923813388E+02 -0.41228913966E+02  0.41753402809E+03  0.42316496268E+03  0.41800000000E+01 0. -1.
</event>
<event>
11    1  0.8299058E-009  0.2089704E+03  0.7561462E-02  0.1048355E+00
         22   -1    0    0    0    0  0.00000000000E+00  0.00000000000E+00  0.12482499559E+04  0.12482499559E+04  0.00000000000E+00 0. -1.
         22   -1    0    0    0    0 -0.00000000000E+00 -0.00000000000E+00 -0.31768132210E+03  0.31768132210E+03  0.00000000000E+00 0. -1.
        -24    2    1    2    0    0 -0.16410266021E+03  0.43761950187E+02 -0.26480482955E+03  0.32456622421E+03  0.79855148705E+02 0.  0.
         25    2    1    2    0    0  0.12916468218E+03 -0.36186700703E+02  0.38695218664E+03  0.42821886783E+03  0.12508561704E+03 0.  0.
         24    2    1    2    0    0  0.34937978034E+02 -0.75752494841E+01  0.80842127671E+03  0.81314618595E+03  0.79898137536E+02 0.  0.
        -11    1    5    5    0    0  0.21984419184E+02  0.34570764576E+02  0.48605496983E+03  0.48777852161E+03  0.00000000000E+00 0.  1.
         12    1    5    5    0    0  0.12953558850E+02 -0.42146014060E+02  0.32236630688E+03  0.32536766434E+03  0.00000000000E+00 0. -1.
         11    1    3    3    0    0 -0.15905010370E+03  0.54193491426E+02 -0.26401301312E+03  0.31294846397E+03  0.00000000000E+00 0. -1.
        -12    1    3    3    0    0 -0.50525565080E+01 -0.10431541239E+02 -0.79181642605E+00  0.11617760246E+02  0.00000000000E+00 0.  1.
          5    1    4    4  501    0  0.10321876671E+03 -0.48983504293E+02  0.14569420337E+03  0.18519657338E+03  0.41800000000E+01 0. -1.
         -5    1    4    4    0  501  0.25945915467E+02  0.12796803590E+02  0.24125798327E+03  0.24302229445E+03  0.41800000000E+01 0. -1.
</event>
<event>
11    1  0.8299058E-009  0.1523368E+03  0.7561462E-02  0.1094515E+00
         22   -1    0    0    0    0  0.00000000000E+00  0.00000000000E+00  0.19170289836E+04  0.19170289836E+04  0.00000000000E+00 0.  1.
         22   -1    0    0    0    0 -0.00000000000E+00 -0.00000000000E+00 -0.16599631393E+04  0.16599631393E+04  0.00000000000E+00 0.  1.
        -24    2    1    2    0    0 -0.82093821959E+00  0.91239639018E+02 -0.16380823913E+04  0.16425939139E+04  0.80470489827E+02 0.  0.
         25    2    1    2    0    0  0.39400821728E+02 -0.26631948931E+01  0.23103310661E+03  0.26567539995E+03  0.12509038504E+03 0.  0.
         24    2    1    2    0    0 -0.38579883508E+02 -0.88576444125E+02  0.16641151291E+04  0.16687228090E+04  0.77604489193E+02 0.  0.
        -13    1    5    5    0    0 -0.22052449701E+02 -0.88126147229E+01  0.89327244319E+03  0.89358806532E+03  0.00000000000E+00 0.  1.
         14    1    5    5    0    0 -0.16527433807E+02 -0.79763829402E+02  0.77084268587E+03  0.77513474371E+03  0.00000000000E+00 0. -1.
         13    1    3    3    0    0 -0.16104710408E+02  0.41205514665E+02 -0.27736260206E+03  0.28086877569E+03  0.00000000000E+00 0. -1.
        -14    1    3    3    0    0  0.15283772188E+02  0.50034124353E+02 -0.13607197892E+04  0.13617251382E+04  0.00000000000E+00 0.  1.
          5    1    4    4  501    0  0.81203949146E+02  0.86051492486E+01  0.18541827968E+03  0.20264634413E+03  0.41800000000E+01 0. -1.
         -5    1    4    4    0  501 -0.41803127418E+02 -0.11268344142E+02  0.45614826935E+02  0.63029055823E+02  0.41800000000E+01 0. -1.
</event>
<event>
11    1  0.8299058E-009  0.1415243E+03  0.7561462E-02  0.1105868E+00
         22   -1    0    0    0    0  0.00000000000E+00  0.00000000000E+00  0.89252215546E+02  0.89252215546E+02  0.00000000000E+00 0. -1.
         22   -1    0    0    0    0 -0.00000000000E+00 -0.00000000000E+00 -0.21564478212E+04  0.21564478212E+04  0.00000000000E+00 0.  1.
        -24    2    1    2    0    0 -0.21082010650E+02 -0.10833496311E+02 -0.95180427238E+03  0.95556788306E+03  0.81343656142E+02 0.  0.
         25    2    1    2    0    0  0.83344776041E+02  0.31371501917E+02 -0.11653111229E+04  0.11753842192E+04  0.12509007438E+03 0.  0.
         24    2    1    2    0    0 -0.62262765391E+02 -0.20538005606E+02  0.49919789644E+02  0.11474793449E+03  0.79853875574E+02 0.  0.
        -11    1    5    5    0    0 -0.46312516229E+01  0.12648069693E+02 -0.16132609916E+02  0.21016261829E+02  0.00000000000E+00 0.  1.
         12    1    5    5    0    0 -0.57631513768E+02 -0.33186075299E+02  0.66052399561E+02  0.93731672665E+02  0.00000000000E+00 0. -1.
         13    1    3    3    0    0  0.12285800050E+02  0.22536827923E+02 -0.60780962144E+03  0.60835136674E+03  0.00000000000E+00 0. -1.
        -14    1    3    3    0    0 -0.33367810700E+02 -0.33370324234E+02 -0.34399465094E+03  0.34721651632E+03  0.00000000000E+00 0.  1.
          5    1    4    4  501    0  0.13964470474E+02  0.70504724642E+02 -0.46415051950E+03  0.46970107492E+03  0.41800000000E+01 0. -1.
         -5    1    4    4    0  501  0.69380305566E+02 -0.39133222725E+02 -0.70116060343E+03  0.70568314428E+03  0.41800000000E+01 0. -1.
</event>
<event>
11    1  0.8299058E-009  0.1416347E+03  0.7561462E-02  0.1105747E+00
         22   -1    0    0    0    0  0.00000000000E+00  0.00000000000E+00  0.67674588941E+02  0.67674588941E+02  0.00000000000E+00 0.  1.
         22   -1    0    0    0    0 -0.00000000000E+00 -0.00000000000E+00 -0.13016402258E+04  0.13016402258E+04  0.00000000000E+00 0.  1.
        -24    2    1    2    0    0  0.57639635299E+01  0.67846332355E+02 -0.10666439587E+04  0.10718660296E+04  0.80815238413E+02 0.  0.
         25    2    1    2    0    0 -0.35558261404E+01 -0.51135638802E+02 -0.16720109756E+03  0.21501340557E+03  0.12508820925E+03 0.  0.
         24    2    1    2    0    0 -0.22081373895E+01 -0.16710693553E+02 -0.12058060321E+00  0.82435379543E+02  0.80693581597E+02 0.  0.
        -13    1    5    5    0    0 -0.23645765513E+02 -0.40426175689E+02  0.11832190010E+02  0.48305265013E+02  0.00000000000E+00 0.  1.
         14    1    5    5    0    0  0.21437628124E+02  0.23715482136E+02 -0.11952770614E+02  0.34130114530E+02  0.00000000000E+00 0. -1.
         11    1    3    3    0    0  0.27393496053E+02  0.47817003596E+02 -0.32519316528E+03  0.32982944714E+03  0.00000000000E+00 0. -1.
        -12    1    3    3    0    0 -0.21629532523E+02  0.20029328759E+02 -0.74145079338E+03  0.74203658245E+03  0.00000000000E+00 0.  1.
          5    1    4    4  501    0  0.13627542155E+02 -0.57814130890E+02 -0.18168828842E+03  0.19119699313E+03  0.41800000000E+01 0.  1.
         -5    1    4    4    0  501 -0.17183368296E+02  0.66784920879E+01  0.14487190854E+02  0.23816412437E+02  0.41800000000E+01 0.  1.
</event>
<event>
11    1  0.8299058E-009  0.2883628E+03  0.7561462E-02  0.1005240E+00
         22   -1    0    0    0    0  0.00000000000E+00  0.00000000000E+00  0.17982371799E+04  0.17982371799E+04  0.00000000000E+00 0.  1.
         22   -1    0    0    0    0 -0.00000000000E+00 -0.00000000000E+00 -0.70638068256E+02  0.70638068256E+02  0.00000000000E+00 0.  1.
         24    2    1    2    0    0 -0.19922210724E+03 -0.18998972472E+03  0.78828589995E+03  0.83907224797E+03  0.82837393359E+02 0.  0.
         25    2    1    2    0    0  0.24034233666E+03  0.91509657917E+02  0.58382715289E+03  0.65010798737E+03  0.12509114484E+03 0.  0.
        -24    2    1    2    0    0 -0.41120229412E+02  0.98480066807E+02  0.35548605884E+03  0.37969501285E+03  0.80054780776E+02 0.  0.
        -11    1    3    3    0    0 -0.90618602145E+02 -0.14150688796E+03  0.48608130227E+03  0.51430629280E+03  0.00000000000E+00 0.  1.
         12    1    3    3    0    0 -0.10860350510E+03 -0.48482836766E+02  0.30220459768E+03  0.32476595517E+03  0.00000000000E+00 0. -1.
         13    1    5    5    0    0 -0.52585093203E+02  0.31771551405E+02  0.21735969331E+03  0.22587576183E+03  0.00000000000E+00 0. -1.
        -14    1    5    5    0    0  0.11464863790E+02  0.66708515403E+02  0.13812636553E+03  0.15381925101E+03  0.00000000000E+00 0.  1.
          5    1    4    4  501    0  0.94394151367E+02  0.78711841467E+02  0.16097067764E+03  0.20257058340E+03  0.41800000000E+01 0.  1.
         -5    1    4    4    0  501  0.14594818529E+03  0.12797816449E+02  0.42285647525E+03  0.44753740397E+03  0.41800000000E+01 0.  1.
</event>
<event>
11    1  0.8299058E-009  0.1704294E+03  0.7561462E-02  0.1077659E+00
         22   -1    0    0    0    0  0.00000000000E+00  0.00000000000E+00  0.48627931420E+02  0.48627931420E+02  0.00000000000E+00 0. -1.
         22   -1    0    0    0    0 -0.00000000000E+00 -0.00000000000E+00 -0.24749555422E+04  0.24749555422E+04  0.00000000000E+00 0. -1.
         24    2    1    2    0    0 -0.94348546996E+01 -0.14768034558E+02 -0.12075979111E+04  0.12103662012E+04  0.79915673180E+02 0.  0.
         25    2    1    2    0    0  0.11925234788E+03  0.47100156484E+02 -0.11376989938E+04  0.11517146720E+04  0.12509251841E+03 0.  0.
        -24    2    1    2    0    0 -0.10981749318E+03 -0.32332121926E+02 -0.81030705909E+02  0.16150260036E+03  0.80074132570E+02 0.  0.
        -13    1    3    3    0    0  0.28837471418E+02 -0.14610791339E+02 -0.26093335825E+03  0.26292830283E+03  0.00000000000E+00 0.  1.
         14    1    3    3    0    0 -0.38272326117E+02 -0.15724321817E+00 -0.94666455281E+03  0.94743789834E+03  0.00000000000E+00 0. -1.
         13    1    5    5    0    0 -0.53607999372E+02  0.22810208115E+02 -0.19052344304E+02  0.61295309889E+02  0.00000000000E+00 0. -1.
        -14    1    5    5    0    0 -0.56209493805E+02 -0.55142330041E+02 -0.61978361604E+02  0.10020729047E+03  0.00000000000E+00 0.  1.
          5    1    4    4  501    0  0.94339075361E+01 -0.26471376227E+02 -0.48059920918E+03  0.48143826669E+03  0.41800000000E+01 0.  1.
         -5    1    4    4    0  501  0.10981844034E+03  0.73571532711E+02 -0.65709978459E+03  0.67027640535E+03  0.41800000000E+01 0.  1.
</event>
<event>
11    1  0.8299058E-009  0.1613026E+03  0.7561462E-02  0.1085858E+00
         22   -1    0    0    0    0  0.00000000000E+00  0.00000000000E+00  0.68847722480E+03  0.68847722480E+03  0.00000000000E+00 0. -1.
         22   -1    0    0    0    0 -0.00000000000E+00 -0.00000000000E+00 -0.18218507456E+03  0.18218507456E+03  0.00000000000E+00 0. -1.
        -24    2    1    2    0    0 -0.33623985566E+02  0.58668890753E+01 -0.72986184070E+02  0.10028549932E+03  0.59709341944E+02 0.  0.
         25    2    1    2    0    0  0.39592241038E+02  0.96057560636E+02 -0.13740197637E+02  0.16318773823E+03  0.12508734697E+03 0.  0.
         24    2    1    2    0    0 -0.59682554717E+01 -0.10192444971E+03  0.59301853194E+03  0.60718906182E+03  0.81137932197E+02 0.  0.
        -11    1    5    5    0    0  0.73696115973E+01 -0.50898560537E+02  0.11148267643E+03  0.12277362006E+03  0.00000000000E+00 0.  1.
         12    1    5    5    0    0 -0.13337867069E+02 -0.51025889174E+02  0.48153585552E+03  0.48441544176E+03  0.00000000000E+00 0. -1.
         11    1    3    3    0    0 -0.17758706426E+02  0.11411369995E+02 -0.79504811909E+02  0.82259383269E+02  0.00000000000E+00 0. -1.
        -12    1    3    3    0    0 -0.15865279140E+02 -0.55444809201E+01  0.65186278392E+01  0.18026116048E+02  0.00000000000E+00 0.  1.
          5    1    4    4  501    0 -0.30328059891E+02 -0.10912503897E+02 -0.13838234423E+02  0.35324822575E+02  0.41800000000E+01 0. -1.
         -5    1    4    4    0  501  0.69920300929E+02  0.10697006453E+03  0.98036786142E-01  0.12786291565E+03  0.41800000000E+01 0. -1.
</event>
<event>
11    1  0.8299058E-009  0.1617782E+03  0.7561462E-02  0.1085417E+00
         22   -1    0    0    0    0  0.00000000000E+00  0.00000000000E+00  0.21084698560E+04  0.21084698560E+04  0.00000000000E+00 0.  1.
         22   -1    0    0    0    0 -0.00000000000E+00 -0.00000000000E+00 -0.53953285795E+02  0.53953285795E+02  0.00000000000E+00 0. -1.
         24    2    1    2    0    0 -0.30621866659E+02 -0.23689371395E+02  0.69769044186E+02  0.11422714820E+03  0.81738833025E+02 0.  0.
         25    2    1    2    0    0  0.15441846504E+02  0.12367962295E+03  0.23643754841E+03  0.29510331445E+03  0.12509257429E+03 0.  0.
        -24    2    1    2    0    0  0.15180020155E+02 -0.99990251553E+02  0.17483099776E+04  0.17530926792E+04  0.80732152657E+02 0.  0.
        -11    1    3    3    0    0  0.87676700851E+01 -0.28913357391E+01  0.69064084230E+02  0.69678401184E+02  0.00000000000E+00 0.  1.
         12    1    3    3    0    0 -0.39389536744E+02 -0.20798035656E+02  0.70495995611E+00  0.44548747015E+02  0.00000000000E+00 0. -1.
         11    1    5    5    0    0  0.19787618610E+02 -0.98804890915E+02  0.10628233938E+04  0.10675895853E+04  0.00000000000E+00 0. -1.
        -12    1    5    5    0    0 -0.46075984555E+01 -0.11853606383E+01  0.68548658383E+03  0.68550309383E+03  0.00000000000E+00 0.  1.
          5    1    4    4  501    0 -0.14247948870E+02  0.83000692676E+01  0.14200817384E+03  0.14302338632E+03  0.41800000000E+01 0. -1.
         -5    1    4    4    0  501  0.29689795374E+02  0.11537955368E+03  0.94429374572E+02  0.15207992813E+03  0.41800000000E+01 0. -1.
</event>
<event>
11    1  0.8299058E-009  0.1767591E+03  0.7561462E-02  0.1072295E+00
         22   -1    0    0    0    0  0.00000000000E+00  0.00000000000E+00  0.41911264157E+03  0.41911264157E+03  0.00000000000E+00 0. -1.
         22   -1    0    0    0    0 -0.00000000000E+00 -0.00000000000E+00 -0.26445226511E+03  0.26445226511E+03  0.00000000000E+00 0. -1.
         24    2    1    2    0    0  0.54992269420E+02 -0.10416921980E+03 -0.16583110590E+03  0.21890408476E+03  0.80892932887E+02 0.  0.
         25    2    1    2    0    0 -0.72509740508E+02  0.16860978130E+03  0.16092299179E+03  0.27428116182E+03  0.12508807146E+03 0.  0.
        -24    2    1    2    0    0  0.17517471088E+02 -0.64440561502E+02  0.15956849057E+03  0.19037966010E+03  0.79516438785E+02 0.  0.
        -11    1    3    3    0    0  0.10037065379E+02  0.69501663882E+01  0.22946007018E+01  0.12422265760E+02  0.00000000000E+00 0.  1.
         12    1    3    3    0    0  0.44955204041E+02 -0.11111938619E+03 -0.16812570660E+03  0.20648181900E+03  0.00000000000E+00 0. -1.
         11    1    5    5    0    0 -0.13056192017E+02 -0.68179059476E+02  0.13154514972E+03  0.14873793974E+03  0.00000000000E+00 0. -1.
        -12    1    5    5    0    0  0.30573663105E+02  0.37384979741E+01  0.28023340849E+02  0.41641720367E+02  0.00000000000E+00 0.  1.
          5    1    4    4  501    0  0.34621349043E+01  0.12791685492E+03  0.13042586207E+03  0.18276511168E+03  0.41800000000E+01 0.  1.
         -5    1    4    4    0  501 -0.75971875412E+02  0.40692926381E+02  0.30497129721E+02  0.91516050135E+02  0.41800000000E+01 0.  1.
</event>
<event>
11    1  0.8299058E-009  0.2916828E+03  0.7561462E-02  0.1003774E+00
         22   -1    0    0    0    0  0.00000000000E+00  0.00000000000E+00  0.64814568015E+03  0.64814568015E+03  0.00000000000E+00 0. -1.
         22   -1    0    0    0    0 -0.00000000000E+00 -0.00000000000E+00 -0.22712263854E+03  0.22712263854E+03  0.00000000000E+00 0. -1.
        -24    2    1    2    0    0  0.44183742004E+02 -0.48066036200E+02 -0.21196292276E+02  0.10823912844E+03  0.83689182253E+02 0.  0.
         25    2    1    2    0    0 -0.22741337822E+03 -0.14194585974E+03  0.70463889861E+02  0.30410257083E+03  0.12509093541E+03 0.  0.
         24    2    1    2    0    0  0.18322963622E+03  0.19001189594E+03  0.37175544402E+03  0.46292661941E+03  0.80133168013E+02 0.  0.
        -11    1    5    5    0    0  0.89836420261E+02  0.75228520376E+02  0.22939027030E+03  0.25758456629E+03  0.00000000000E+00 0.  1.
         12    1    5    5    0    0  0.93393215954E+02  0.11478337556E+03  0.14236517372E+03  0.20534205312E+03  0.00000000000E+00 0. -1.
         11    1    3    3    0    0  0.64229642473E+02 -0.51547915207E+02 -0.27681675014E+02  0.86884461591E+02  0.00000000000E+00 0. -1.
        -12    1    3    3    0    0 -0.20045900469E+02  0.34818790072E+01  0.64853827378E+01  0.21354666851E+02  0.00000000000E+00 0.  1.
          5    1    4    4  501    0 -0.17189145899E+03 -0.36642367741E+02  0.53629724444E+02  0.18380140514E+03  0.41800000000E+01 0.  1.
         -5    1    4    4    0  501 -0.55521919231E+02 -0.10530349200E+03  0.16834165417E+02  0.12030116569E+03  0.41800000000E+01 0.  1.
</event>
<event>
11    1  0.8299058E-009  0.1722978E+03  0.7561462E-02  0.1076049E+00
         22   -1    0    0    0    0  0.00000000000E+00  0.00000000000E+00  0.17719932015E+03  0.17719932015E+03  0.00000000000E+00 0. -1.
         22   -1    0    0    0    0 -0.00000000000E+00 -0.00000000000E+00 -0.55305782783E+03  0.55305782783E+03  0.00000000000E+00 0. -1.
         24    2    1    2    0    0  0.18177857444E+02 -0.32340782348E+02 -0.20715151533E+03  0.22586723131E+03  0.82023747589E+02 0.  0.
         25    2    1    2    0    0 -0.62104830158E+02  0.13815769058E+03 -0.26880177228E+03  0.33293893715E+03  0.12509750474E+03 0.  0.
        -24    2    1    2    0    0  0.43926972714E+02 -0.10581690823E+03  0.10009477994E+03  0.17145097952E+03  0.79054894899E+02 0.  0.
        -11    1    3    3    0    0 -0.11660960517E+01  0.15373476348E+02 -0.14196752571E+03  0.14280224757E+03  0.00000000000E+00 0.  1.
         12    1    3    3    0    0  0.19343953496E+02 -0.47714258696E+02 -0.65183989628E+02  0.83064983739E+02  0.00000000000E+00 0. -1.
         13    1    5    5    0    0 -0.14834402676E+02 -0.60703441482E+02  0.29437464691E+02  0.69076274060E+02  0.00000000000E+00 0. -1.
        -14    1    5    5    0    0  0.58761375390E+02 -0.45113466751E+02  0.70657315250E+02  0.10237470546E+03  0.00000000000E+00 0.  1.
          5    1    4    4  501    0  0.36718740152E+02  0.45947869092E+02 -0.59618718923E+02  0.83853065528E+02  0.41800000000E+01 0. -1.
         -5    1    4    4    0  501 -0.98823570310E+02  0.92209821490E+02 -0.20918305336E+03  0.24908587162E+03  0.41800000000E+01 0. -1.
</event>
<event>
11    1  0.8299058E-009  0.1326104E+03  0.7561462E-02  0.1116103E+00
         22   -1    0    0    0    0  0.00000000000E+00  0.00000000000E+00  0.27486250198E+03  0.27486250198E+03  0.00000000000E+00 0.  1.
         22   -1    0    0    0    0 -0.00000000000E+00 -0.00000000000E+00 -0.29250070435E+03  0.29250070435E+03  0.00000000000E+00 0. -1.
         24    2    1    2    0    0 -0.31678233121E+01 -0.45569006696E+02 -0.22543541394E+03  0.24411357653E+03  0.81754161438E+02 0.  0.
         25    2    1    2    0    0  0.43298770288E+02  0.21855620624E+02  0.52719163190E+02  0.14415144597E+03  0.12509147671E+03 0.  0.
        -24    2    1    2    0    0 -0.40130946976E+02  0.23713386072E+02  0.15507804838E+03  0.17909818383E+03  0.76512357022E+02 0.  0.
        -13    1    3    3    0    0 -0.30856818748E+01  0.21904151591E+02 -0.29406675859E+02  0.36797634090E+02  0.00000000000E+00 0.  1.
         14    1    3    3    0    0 -0.82141437288E-01 -0.67473158287E+02 -0.19602873808E+03  0.20731594244E+03  0.00000000000E+00 0. -1.
         11    1    5    5    0    0 -0.34838581156E+01  0.53036856945E+01 -0.84152794467E+01  0.10539605186E+02  0.00000000000E+00 0. -1.
        -12    1    5    5    0    0 -0.36647088860E+02  0.18409700378E+02  0.16349332783E+03  0.16855857864E+03  0.00000000000E+00 0.  1.
          5    1    4    4  501    0  0.33961183643E+02  0.73604698033E+02  0.36189400712E+02  0.88871585396E+02  0.41800000000E+01 0. -1.
         -5    1    4    4    0  501  0.93375866452E+01 -0.51749077409E+02  0.16529762478E+02  0.55279860570E+02  0.41800000000E+01 0. -1.
</event>
<event>
11    1  0.8299058E-009  0.1995529E+03  0.7561462E-02  0.1054840E+00
         22   -1    0    0    0    0  0.00000000000E+00  0.00000000000E+00  0.99044036571E+03  0.99044036571E+03  0.00000000000E+00 0.  1.
         22   -1    0    0    0    0 -0.00000000000E+00 -0.00000000000E+00 -0.29794729081E+03  0.29794729081E+03  0.00000000000E+00 0. -1.
         24    2    1    2    0    0 -0.14048820858E+03 -0.25698817671E+02 -0.12096663067E+03  0.20253384390E+03  0.77392933859E+02 0.  0.
         25    2    1    2    0    0  0.19093629553E+03 -0.27507023169E+02 -0.33034074986E+02  0.23227560711E+03  0.12508957700E+03 0.  0.
        -24    2    1    2    0    0 -0.50448086953E+02  0.53205840841E+02  0.84649378055E+03  0.85357820550E+03  0.81658811024E+02 0.  0.
        -11    1    3    3    0    0 -0.33190746433E+02 -0.37639885400E+02 -0.17913818340E+02  0.53285002667E+02  0.00000000000E+00 0.  1.
         12    1    3    3    0    0 -0.10729746215E+03  0.11941067728E+02 -0.10305281233E+03  0.14924884123E+03  0.00000000000E+00 0. -1.
         11    1    5    5    0    0  0.18954075425E+02  0.23502831426E+02  0.15024716270E+03  0.15325093788E+03  0.00000000000E+00 0. -1.
        -12    1    5    5    0    0 -0.69402162378E+02  0.29703009414E+02  0.69624661784E+03  0.70032726762E+03  0.00000000000E+00 0.  1.
          5    1    4    4  501    0  0.20695396854E+02  0.20957434451E+02 -0.45962620497E+02  0.54749871166E+02  0.41800000000E+01 0.  1.
         -5    1    4    4    0  501  0.17024089868E+03 -0.48464457620E+02  0.12928545511E+02  0.17752573595E+03  0.41800000000E+01 0.  1.
</event>
<event>
11    1  0.8299058E-009  0.1377240E+03  0.7561462E-02  0.1110127E+00
         22   -1    0    0    0    0  0.00000000000E+00  0.00000000000E+00  0.99076461290E+03  0.99076461290E+03  0.00000000000E+00 0.  1.
         22   -1    0    0    0    0 -0.00000000000E+00 -0.00000000000E+00 -0.12123216584E+03  0.12123216584E+03  0.00000000000E+00 0.  1.
         24    2    1    2    0    0  0.18833104820E+02  0.63392560725E+02 -0.37088159106E+02  0.11258628674E+03  0.83227626560E+02 0.  0.
         25    2    1    2    0    0  0.21764513986E+02 -0.40188519411E+02  0.57143823238E+02  0.14492474617E+03  0.12509578074E+03 0.  0.
        -24    2    1    2    0    0 -0.40597618805E+02 -0.23204041314E+02  0.84947678293E+03  0.85448574583E+03  0.79677417772E+02 0.  0.
        -13    1    3    3    0    0  0.15053919260E+02  0.81849758760E+02 -0.41851432653E+02  0.93153346205E+02  0.00000000000E+00 0.  1.
         14    1    3    3    0    0  0.37791855600E+01 -0.18457198035E+02  0.47632735470E+01  0.19432940531E+02  0.00000000000E+00 0. -1.
         13    1    5    5    0    0 -0.73576036476E+01 -0.45985085393E+02  0.30674312973E+03  0.31025813454E+03  0.00000000000E+00 0. -1.
        -14    1    5    5    0    0 -0.33240015158E+02  0.22781044079E+02  0.54273365320E+03  0.54422761129E+03  0.00000000000E+00 0.  1.
          5    1    4    4  501    0  0.61250618006E+02 -0.56482905590E+02  0.14977135392E+02  0.84756969121E+02  0.41800000000E+01 0.  1.
         -5    1    4    4    0  501 -0.39486104020E+02  0.16294386179E+02  0.42166687846E+02  0.60167777054E+02  0.41800000000E+01 0.  1.
</event>
<event>
11    1  0.8299058E-009  0.1462202E+03  0.7561462E-02  0.1100805E+00
         22   -1    0    0    0    0  0.00000000000E+00  0.00000000000E+00  0.51663009962E+03  0.51663009962E+03  0.00000000000E+00 0. -1.
         22   -1    0    0    0    0 -0.00000000000E+00 -0.00000000000E+00 -0.49633693761E+03  0.49633693761E+03  0.00000000000E+00 0. -1.
         24    2    1    2    0    0  0.30515279262E+02  0.70254748728E+00 -0.41838006120E+03  0.42714758323E+03  0.80507803393E+02 0.  0.
         25    2    1    2    0    0 -0.53116899295E+02 -0.71900943295E+02  0.22517780922E+02  0.15539052769E+03  0.12509202613E+03 0.  0.
        -24    2    1    2    0    0  0.22601620033E+02  0.71198395807E+02  0.41615544229E+03  0.43042892632E+03  0.80645295407E+02 0.  0.
        -11    1    3    3    0    0  0.27659706958E+02  0.23928564612E+02 -0.80051037699E+02  0.88010250711E+02  0.00000000000E+00 0.  1.
         12    1    3    3    0    0  0.28555723040E+01 -0.23226017125E+02 -0.33832902350E+03  0.33913733252E+03  0.00000000000E+00 0. -1.
         11    1    5    5    0    0  0.39110133608E+02  0.28136347810E+02  0.32201251434E+03  0.32559686118E+03  0.00000000000E+00 0. -1.
        -12    1    5    5    0    0 -0.16508513576E+02  0.43062047997E+02  0.94142927943E+02  0.10483206513E+03  0.00000000000E+00 0.  1.
          5    1    4    4  501    0 -0.51951216398E+02 -0.40890644551E+02  0.71362633552E+02  0.97370794207E+02  0.41800000000E+01 0.  1.
         -5    1    4    4    0  501 -0.11656828969E+01 -0.31010298744E+02 -0.48844852631E+02  0.58019733482E+02  0.41800000000E+01 0.  1.
</event>
<event>
11    1  0.8299058E-009  0.1482461E+03  0.7561462E-02  0.1098685E+00
         22   -1    0    0    0    0  0.00000000000E+00  0.00000000000E+00  0.19586195628E+04  0.19586195628E+04  0.00000000000E+00 0. -1.
         22   -1    0    0    0    0 -0.00000000000E+00 -0.00000000000E+00 -0.29709237044E+03  0.29709237044E+03  0.00000000000E+00 0. -1.
         24    2    1    2    0    0 -0.44396276419E+02  0.22117903916E+02 -0.17417846946E+03  0.19778466611E+03  0.79500967876E+02 0.  0.
         25    2    1    2    0    0  0.12319448257E+03 -0.18558904053E+02 -0.38063201895E+02  0.18059603842E+03  0.12507920811E+03 0.  0.
        -24    2    1    2    0    0 -0.78798206147E+02 -0.35589998625E+01  0.18737688637E+04  0.18773312287E+04  0.84504223890E+02 0.  0.
        -13    1    3    3    0    0 -0.66227427048E+02  0.68674906639E+01 -0.11486939553E+03  0.13277127909E+03  0.00000000000E+00 0.  1.
         14    1    3    3    0    0  0.21831150629E+02  0.15250413252E+02 -0.59309073925E+02  0.65013387021E+02  0.00000000000E+00 0. -1.
         11    1    5    5    0    0 -0.11946351710E+02 -0.74415950578E+00  0.12367474344E+04  0.12368053548E+04  0.00000000000E+00 0. -1.
        -12    1    5    5    0    0 -0.66851854437E+02 -0.28148403567E+01  0.63702142923E+03  0.64052587385E+03  0.00000000000E+00 0.  1.
          5    1    4    4  501    0  0.18627436159E+02  0.30003132739E+02  0.30104256077E+02  0.46593003616E+02  0.41800000000E+01 0. -1.
         -5    1    4    4    0  501  0.10456704641E+03 -0.48562036793E+02 -0.68167457971E+02  0.13400303481E+03  0.41800000000E+01 0. -1.
</event>
<event>
11    1  0.8299058E-009  0.1481245E+03  0.7561462E-02  0.1098811E+00
         22   -1    0    0    0    0  0.00000000000E+00  0.00000000000E+00  0.90634840554E+03  0.90634840554E+03  0.00000000000E+00 0.  1.
         22   -1    0    0    0    0 -0.00000000000E+00 -0.00000000000E+00 -0.28609444777E+03  0.28609444777E+03  0.00000000000E+00 0. -1.
        -24    2    1    2    0    0  0.59187187913E+02  0.54287581231E+02 -0.25855301291E+03  0.28202655509E+03  0.78987673723E+02 0.  0.
         25    2    1    2    0    0 -0.92404517224E+01 -0.52132555217E+02  0.40821261208E+03  0.43022885903E+03  0.12512451884E+03 0.  0.
         24    2    1    2    0    0 -0.49946736191E+02 -0.21550260141E+01  0.47059435860E+03  0.48018743919E+03  0.81373250028E+02 0.  0.
        -11    1    5    5    0    0  0.19323115870E+02 -0.55330201468E+01  0.19370020334E+03  0.19474025237E+03  0.00000000000E+00 0.  1.
         12    1    5    5    0    0 -0.69269852061E+02  0.33779941327E+01  0.27689415526E+03  0.28544718682E+03  0.00000000000E+00 0. -1.
         11    1    3    3    0    0 -0.14095516907E+02  0.29109293272E+02 -0.10747413129E+03  0.11223512574E+03  0.00000000000E+00 0. -1.
        -12    1    3    3    0    0  0.73282704821E+02  0.25178287958E+02 -0.15107888162E+03  0.16979142935E+03  0.00000000000E+00 0.  1.
          5    1    4    4  501    0 -0.23078042957E+02  0.11626994303E+02  0.12243952531E+02  0.28899305127E+02  0.41800000000E+01 0. -1.
         -5    1    4    4    0  501  0.13837591235E+02 -0.63759549520E+02  0.39596865955E+03  0.40132955390E+03  0.41800000000E+01 0. -1.
</event>
<event>
11    1  0.8299058E-009  0.1995234E+03  0.7561462E-02  0.1054861E+00
         22   -1    0    0    0    0  0.00000000000E+00  0.00000000000E+00  0.90581391690E+03  0.90581391690E+03  0.00000000000E+00 0.  1.
         22   -1    0    0    0    0 -0.00000000000E+00 -0.00000000000E+00 -0.48119243238E+03  0.48119243238E+03  0.00000000000E+00 0.  1.
         24    2    1    2    0    0  0.59662782558E+02 -0.14122803155E+03 -0.40184829041E+03  0.43762999923E+03  0.80826748085E+02 0.  0.
         25    2    1    2    0    0 -0.10754577558E+03  0.15046053220E+03  0.15798659326E+03  0.27352824164E+03  0.12511382710E+03 0.  0.
        -24    2    1    2    0    0  0.47882993022E+02 -0.92325006455E+01  0.66848318167E+03  0.67584810841E+03  0.86734545395E+02 0.  0.
        -13    1    3    3    0    0  0.50266793582E+02 -0.13107769688E+03 -0.26324976260E+03  0.29834300841E+03  0.00000000000E+00 0.  1.
         14    1    3    3    0    0  0.93959889759E+01 -0.10150334673E+02 -0.13859852781E+03  0.13928699083E+03  0.00000000000E+00 0. -1.
         11    1    5    5    0    0  0.20679420204E+02  0.10312792574E+02  0.37992406923E+02  0.44468135720E+02  0.00000000000E+00 0. -1.
        -12    1    5    5    0    0  0.27203572818E+02 -0.19545293220E+02  0.63049077475E+03  0.63137997268E+03  0.00000000000E+00 0.  1.
          5    1    4    4  501    0  0.25253633650E+02  0.51101110520E+02  0.35170343264E+02  0.67108084120E+02  0.41800000000E+01 0.  1.
         -5    1    4    4    0  501 -0.13279940923E+03  0.99359421681E+02  0.12281625000E+03  0.20642015752E+03  0.41800000000E+01 0.  1.
</event>
<event>
11    1  0.8299058E-009  0.2979848E+03  0.7561462E-02  0.1001048E+00
         22   -1    0    0    0    0  0.00000000000E+00  0.00000000000E+00  0.15246198239E+04  0.15246198239E+04  0.00000000000E+00 0.  1.
         22   -1    0    0    0    0 -0.00000000000E+00 -0.00000000000E+00 -0.38109815684E+03  0.38109815684E+03  0.00000000000E+00 0.  1.
         24    2    1    2    0    0 -0.27308313956E+02 -0.18092723129E+02 -0.24831246023E+03  0.26247750466E+03  0.78500139525E+02 0.  0.
         25    2    1    2    0    0  0.94322637313E+02  0.27706336240E+03  0.11866920808E+03  0.33969241631E+03  0.12509072731E+03 0.  0.
        -24    2    1    2    0    0 -0.67014323357E+02 -0.25897063927E+03  0.12731649192E+04  0.13035480597E+04  0.82048285077E+02 0.  0.
        -11    1    3    3    0    0 -0.10551608389E+02 -0.29994396515E+01 -0.23698820943E+03  0.23724195347E+03  0.00000000000E+00 0.  1.
         12    1    3    3    0    0 -0.16756705567E+02 -0.15093283478E+02 -0.11324250800E+02  0.25235551188E+02  0.00000000000E+00 0. -1.
         13    1    5    5    0    0  0.41358743342E+01  0.42917320824E+01  0.49847280509E+02  0.50202348501E+02  0.00000000000E+00 0. -1.
        -14    1    5    5    0    0 -0.71150197691E+02 -0.26326237136E+03  0.12233176387E+04  0.12533457112E+04  0.00000000000E+00 0.  1.
          5    1    4    4  501    0 -0.29982997457E+02  0.46223132540E+02  0.11590602643E+02  0.56456820562E+02  0.41800000000E+01 0. -1.
         -5    1    4    4    0  501  0.12430563477E+03  0.23084022986E+03  0.10707860544E+03  0.28323559575E+03  0.41800000000E+01 0. -1.
</event>
<event>
11    1  0.8299058E-009  0.1464876E+03  0.7561462E-02  0.1100523E+00
         22   -1    0    0    0    0  0.00000000000E+00  0.00000000000E+00  0.30481645015E+04  0.30481645015E+04  0.00000000000E+00 0.  1.
         22   -1    0    0    0    0 -0.00000000000E+00 -0.00000000000E+00 -0.25276934178E+02  0.25276934178E+02  0.00000000000E+00 0.  1.
        -24    2    1    2    0    0 -0.18100760429E+01 -0.59773579358E+01  0.71534390500E+02  0.10679643995E+03  0.79052548210E+02 0.  0.
         25    2    1    2    0    0 -0.33007596787E+02 -0.63184715663E+02  0.83686544975E+03  0.84916063447E+03  0.12509273522E+03 0.  0.
         24    2    1    2    0    0  0.34817672830E+02  0.69162073599E+02  0.21144877271E+04  0.21174843613E+04  0.81768022338E+02 0.  0.
        -11    1    5    5    0    0  0.40121454699E+02  0.45597310085E+02  0.19740843996E+04  0.19750184968E+04  0.00000000000E+00 0.  1.
         12    1    5    5    0    0 -0.53037818688E+01  0.23564763514E+02  0.14040332748E+03  0.14246586451E+03  0.00000000000E+00 0. -1.
         13    1    3    3    0    0 -0.10644337073E+02 -0.39605938976E+02  0.54136995739E+02  0.67917204165E+02  0.00000000000E+00 0. -1.
        -14    1    3    3    0    0  0.88342610304E+01  0.33628581040E+02  0.17397394761E+02  0.38879235785E+02  0.00000000000E+00 0.  1.
          5    1    4    4  501    0 -0.63969384544E+02 -0.78196687830E+02  0.47524675655E+03  0.48588450908E+03  0.41800000000E+01 0. -1.
         -5    1    4    4    0  501  0.30961787757E+02  0.15011972167E+02  0.36161869320E+03  0.36327612539E+03  0.41800000000E+01 0. -1.
</event>
<event>
11    1  0.8299058E-009  0.1725460E+03  0.7561462E-02  0.1075837E+00
         22   -1    0    0    0    0  0.00000000000E+00  0.00000000000E+00  0.22347818081E+03  0.22347818081E+03  0.00000000000E+00 0.  1.
         22   -1    0    0    0    0 -0.00000000000E+00 -0.00000000000E+00 -0.14593336858E+04  0.14593336858E+04  0.00000000000E+00 0.  1.
         24    2    1    2    0    0  0.16136801426E+02  0.36521090474E+02 -0.13172329128E+04  0.13203916765E+04  0.82081949173E+02 0.  0.
         25    2    1    2    0    0 -0.11615666277E+03 -0.85351177676E+02 -0.21039782891E+02  0.19200623555E+03  0.12508608312E+03 0.  0.
        -24    2    1    2    0    0  0.10001986134E+03  0.48830087203E+02  0.10241719074E+03  0.17041395452E+03  0.78506591169E+02 0.  0.
        -13    1    3    3    0    0  0.37434654534E+02  0.14600249918E+02 -0.11272604552E+04  0.11279763537E+04  0.00000000000E+00 0.  1.
         14    1    3    3    0    0 -0.21297853108E+02  0.21920840555E+02 -0.18997245763E+03  0.19241532282E+03  0.00000000000E+00 0. -1.
         11    1    5    5    0    0  0.80594360880E+01  0.11081244422E+02 -0.12444403118E+02  0.18509771931E+02  0.00000000000E+00 0. -1.
        -12    1    5    5    0    0  0.91960425254E+02  0.37748842781E+02  0.11486159386E+03  0.15190418259E+03  0.00000000000E+00 0.  1.
          5    1    4    4  501    0 -0.36401059306E+02  0.21537335596E+02 -0.38614907739E+02  0.57423666227E+02  0.41800000000E+01 0.  1.
         -5    1    4    4    0  501 -0.79755603462E+02 -0.10688851327E+03  0.17575124848E+02  0.13458256933E+03  0.41800000000E+01 0.  1.
</event>
<event>
11    1  0.8299058E-009  0.1278974E+03  0.7561462E-02  0.1121880E+00
         22   -1    0    0    0    0  0.00000000000E+00  0.00000000000E+00  0.49914143782E+03  0.49914143782E+03  0.00000000000E+00 0. -1.
         22   -1    0    0    0    0 -0.00000000000E+00 -0.00000000000E+00 -0.75259257570E+03  0.75259257570E+03  0.00000000000E+00 0.  1.
         24    2    1    2    0    0 -0.31636276499E+02 -0.74500323612E+01 -0.59848864508E+03  0.60281977477E+03  0.64394608355E+02 0.  0.
         25    2    1    2    0    0  0.55196920463E+02  0.17836683217E+02 -0.11542573553E+03  0.17981970008E+03  0.12508867582E+03 0.  0.
        -24    2    1    2    0    0 -0.23560643964E+02 -0.10386650855E+02  0.46046324273E+03  0.46909453867E+03  0.85792201574E+02 0.  0.
        -13    1    3    3    0    0 -0.17738594019E+02 -0.14514088036E+02 -0.56901987382E+03  0.56948128439E+03  0.00000000000E+00 0.  1.
         14    1    3    3    0    0 -0.13897682481E+02  0.70640556744E+01 -0.29468771266E+02  0.33338490380E+02  0.00000000000E+00 0. -1.
         13    1    5    5    0    0 -0.26006302759E+02  0.47077100047E+01  0.44950720292E+03  0.45028348381E+03  0.00000000000E+00 0. -1.
        -14    1    5    5    0    0  0.24456587957E+01 -0.15094360860E+02  0.10956039804E+02  0.18811054859E+02  0.00000000000E+00 0.  1.
          5    1    4    4  501    0  0.54832669002E+02 -0.44055467787E+02 -0.36262738064E+02  0.79246226432E+02  0.41800000000E+01 0. -1.
         -5    1    4    4    0  501  0.36425146071E+00  0.61892151004E+02 -0.79162997461E+02  0.10057347365E+03  0.41800000000E+01 0. -1.
</event>
<event>
11    1  0.8734156E-009  0.1531823E+03  0.7561462E-02  0.1093671E+00
         22   -1    0    0    0    0  0.00000000000E+00  0.00000000000E+00  0.11203456258E+04  0.11203456258E+04  0.00000000000E+00 0.  1.
         22   -1    0    0    0    0 -0.00000000000E+00 -0.00000000000E+00 -0.15748298147E+04  0.15748298147E+04  0.00000000000E+00 0. -1.
        -24    2    1    2    0    0 -0.58066103293E+02 -0.54671871351E+02 -0.14550538944E+04  0.14594791788E+04  0.80851418174E+02 0.  0.
         25    2    1    2    0    0  0.63795192872E+00  0.12170259833E+03 -0.47441734741E+02  0.18086418141E+03  0.12509678053E+03 0.  0.
         24    2    1    2    0    0  0.57428151364E+02 -0.67030726982E+02  0.10480114402E+04  0.10548320803E+04  0.80942127191E+02 0.  0.
        -11    1    5    5    0    0  0.27410424381E+02 -0.26618299799E+01  0.64656599129E+03  0.64715222150E+03  0.00000000000E+00 0.  1.
         12    1    5    5    0    0  0.30017726984E+02 -0.64368897002E+02  0.40144544887E+03  0.40767985878E+03  0.00000000000E+00 0. -1.
         13    1    3    3    0    0 -0.74400239413E+02 -0.22910596815E+02 -0.10035188497E+04  0.10065338408E+04  0.00000000000E+00 0. -1.
        -14    1    3    3    0    0  0.16334136120E+02 -0.31761274536E+02 -0.45153504474E+03  0.45294533798E+03  0.00000000000E+00 0.  1.
          5    1    4    4  501    0 -0.58755384932E+02  0.57951874116E+02 -0.43881000717E+02  0.93560833664E+02  0.41800000000E+01 0.  1.
         -5    1    4    4    0  501  0.59393336860E+02  0.63750724217E+02 -0.35607340241E+01  0.87303347750E+02  0.41800000000E+01 0.  1.
</event>
<event>
11    1  0.8299058E-009  0.3291860E+03  0.7561462E-02  0.9885436E-01
         22   -1    0    0    0    0  0.00000000000E+00  0.00000000000E+00  0.11762669465E+03  0.11762669465E+03  0.00000000000E+00 0. -1.
         22   -1    0    0    0    0 -0.00000000000E+00 -0.00000000000E+00 -0.23877349626E+04  0.23877349626E+04  0.00000000000E+00 0. -1.
         24    2    1    2    0    0 -0.16463024862E+03 -0.21238369769E+03 -0.12516805232E+04  0.12825638171E+04  0.77819400241E+02 0.  0.
         25    2    1    2    0    0  0.26349690126E+03  0.31718696911E+03 -0.95199777427E+03  0.10449810601E+04  0.12508982137E+03 0.  0.
        -24    2    1    2    0    0 -0.98866652632E+02 -0.10480327142E+03 -0.66429970424E+02  0.17781677996E+03  0.80296485371E+02 0.  0.
        -13    1    3    3    0    0 -0.54000975403E+02 -0.80545831539E+02 -0.29511265431E+03  0.31063678961E+03  0.00000000000E+00 0.  1.
         14    1    3    3    0    0 -0.11062927322E+03 -0.13183786615E+03 -0.95656786890E+03  0.97192702753E+03  0.00000000000E+00 0. -1.
         13    1    5    5    0    0 -0.87636392813E+02 -0.49263836558E+02 -0.15680634215E+02  0.10174942372E+03  0.00000000000E+00 0. -1.
        -14    1    5    5    0    0 -0.11230259819E+02 -0.55539434861E+02 -0.50749336209E+02  0.76067356244E+02  0.00000000000E+00 0.  1.
          5    1    4    4  501    0  0.54402893767E+02  0.43558139230E+02 -0.29544560085E+03  0.30358287469E+03  0.41800000000E+01 0. -1.
         -5    1    4    4    0  501  0.20909400749E+03  0.27362882988E+03 -0.65655217342E+03  0.74139818541E+03  0.41800000000E+01 0. -1.
</event>
<event>
11    1  0.8299058E-009  0.1706197E+03  0.7561462E-02  0.1077494E+00
         22   -1    0    0    0    0  0.00000000000E+00  0.00000000000E+00  0.12561602857E+04  0.12561602857E+04  0.00000000000E+00 0.  1.
         22   -1    0    0    0    0 -0.00000000000E+00 -0.00000000000E+00 -0.38390639008E+03  0.38390639008E+03  0.00000000000E+00 0. -1.
         24    2    1    2    0    0  0.59740941343E+02 -0.98610578070E+02 -0.35291360280E+03  0.37894316275E+03  0.75874128469E+02 0.  0.
         25    2    1    2    0    0 -0.72090657825E+02  0.13831346858E+03  0.68398253064E+03  0.71260577595E+03  0.12508881311E+03 0.  0.
        -24    2    1    2    0    0  0.12349716482E+02 -0.39702890510E+02  0.54118496781E+03  0.54851773710E+03  0.79130926459E+02 0.  0.
        -11    1    3    3    0    0 -0.14342054478E+02 -0.51395795899E+01 -0.18911620132E+02  0.24284957917E+02  0.00000000000E+00 0.  1.
         12    1    3    3    0    0  0.74082995821E+02 -0.93470998480E+02 -0.33400198267E+03  0.35465820483E+03  0.00000000000E+00 0. -1.
         11    1    5    5    0    0 -0.11588325381E+02  0.15510802981E+02  0.27198190594E+03  0.27267018805E+03  0.00000000000E+00 0. -1.
        -12    1    5    5    0    0  0.23938041862E+02 -0.55213693492E+02  0.26920306187E+03  0.27584754905E+03  0.00000000000E+00 0.  1.
          5    1    4    4  501    0 -0.74969763429E+02  0.10614232895E+03  0.65860873564E+03  0.67131929697E+03  0.41800000000E+01 0. -1.
         -5    1    4    4    0  501  0.28791056042E+01  0.32171139626E+02  0.25373794997E+02  0.41286478979E+02  0.41800000000E+01 0. -1.
</event>
<event>
11    1  0.8299058E-009  0.1358820E+03  0.7561462E-02  0.1112246E+00
         22   -1    0    0    0    0  0.00000000000E+00  0.00000000000E+00  0.17741624605E+04  0.17741624605E+04  0.00000000000E+00 0.  1.
         22   -1    0    0    0    0 -0.00000000000E+00 -0.00000000000E+00 -0.14149383210E+04  0.14149383210E+04  0.00000000000E+00 0. -1.
         24    2    1    2    0    0 -0.33269861570E+02 -0.92575908830E+01 -0.13442130284E+04  0.13471502375E+04  0.81929909185E+02 0.  0.
         25    2    1    2    0    0  0.85051719114E+02  0.93360404193E+00  0.16370053550E+02  0.15215308239E+03  0.12509162757E+03 0.  0.
        -24    2    1    2    0    0 -0.51781857544E+02  0.83239868411E+01  0.16870671144E+04  0.16897974616E+04  0.80432352189E+02 0.  0.
        -13    1    3    3    0    0 -0.37901452354E+02 -0.72370124841E+01 -0.25300482294E+03  0.25593033207E+03  0.00000000000E+00 0.  1.
         14    1    3    3    0    0  0.46315907844E+01 -0.20205783989E+01 -0.10912082054E+04  0.10912199054E+04  0.00000000000E+00 0. -1.
         13    1    5    5    0    0  0.56015464942E+01  0.27439669442E+02  0.88928105028E+03  0.88972192239E+03  0.00000000000E+00 0. -1.
        -14    1    5    5    0    0 -0.57383404039E+02 -0.19115682601E+02  0.79778606411E+03  0.80007553923E+03  0.00000000000E+00 0.  1.
          5    1    4    4  501    0 -0.17210152150E+01 -0.38952280438E+02 -0.26561682363E+02  0.47362827350E+02  0.41800000000E+01 0. -1.
         -5    1    4    4    0  501  0.86772734329E+02  0.39885884480E+02  0.42931735913E+02  0.10479025504E+03  0.41800000000E+01 0. -1.
</event>
<event>
11    1  0.8299058E-009  0.1285578E+03  0.7561462E-02  0.1121054E+00
         22   -1    0    0    0    0  0.00000000000E+00  0.00000000000E+00  0.13960858018E+03  0.13960858018E+03  0.00000000000E+00 0. -1.
         22   -1    0    0    0    0 -0.00000000000E+00 -0.00000000000E+00 -0.41772669269E+03  0.41772669269E+03  0.00000000000E+00 0.  1.
         24    2    1    2    0    0 -0.46365739443E+01  0.10215871601E+02 -0.32221245813E+03  0.33293998377E+03  0.83080098497E+02 0.  0.
         25    2    1    2    0    0  0.89158717566E+01 -0.36172673124E+02  0.36165384369E+01  0.13060053691E+03  0.12512180402E+03 0.  0.
        -24    2    1    2    0    0 -0.42792978123E+01  0.25956801523E+02  0.40477807179E+02  0.93794752189E+02  0.80417253927E+02 0.  0.
        -13    1    3    3    0    0  0.28503974214E+02  0.32939139971E+02 -0.17536479495E+03  0.18069387039E+03  0.00000000000E+00 0.  1.
         14    1    3    3    0    0 -0.33140548158E+02 -0.22723268370E+02 -0.14684766318E+03  0.15224611338E+03  0.00000000000E+00 0. -1.
         11    1    5    5    0    0  0.32474689622E+02 -0.52158757576E+01  0.29908904209E+02  0.44456196159E+02  0.00000000000E+00 0. -1.
        -12    1    5    5    0    0 -0.36753987434E+02  0.31172677280E+02  0.10568902970E+02  0.49338556030E+02  0.00000000000E+00 0.  1.
          5    1    4    4  501    0 -0.45813861501E+02 -0.34417876276E+02  0.35071936301E+02  0.67312801374E+02  0.41800000000E+01 0.  1.
         -5    1    4    4    0  501  0.54729733258E+02 -0.17547968478E+01 -0.31455397864E+02  0.63287735535E+02  0.41800000000E+01 0.  1.
</event>
<event>
11    1  0.8299058E-009  0.1816967E+03  0.7561462E-02  0.1068279E+00
         22   -1    0    0    0    0  0.00000000000E+00  0.00000000000E+00  0.33471521191E+04  0.33471521191E+04  0.00000000000E+00 0. -1.
         22   -1    0    0    0    0 -0.00000000000E+00 -0.00000000000E+00 -0.26485376652E+04  0.26485376652E+04  0.00000000000E+00 0.  1.
        -24    2    1    2    0    0 -0.13077327777E+03 -0.18049229241E+02 -0.26267517832E+04  0.26312555195E+04  0.79077514740E+02 0.  0.
         25    2    1    2    0    0  0.92156384418E+02  0.37213358801E+02  0.32378065238E+03  0.36105291230E+03  0.12509061260E+03 0.  0.
         24    2    1    2    0    0  0.38616893352E+02 -0.19164129560E+02  0.30015855848E+04  0.30033813526E+04  0.94472207908E+02 0.  0.
        -13    1    5    5    0    0  0.25482943776E+01  0.28930518569E+02  0.38062032891E+03  0.38172673929E+03  0.00000000000E+00 0.  1.
         14    1    5    5    0    0  0.36068598974E+02 -0.48094648130E+02  0.26209652559E+04  0.26216546133E+04  0.00000000000E+00 0. -1.
         13    1    3    3    0    0 -0.34147306997E+02  0.16741218401E+02 -0.32564443275E+03  0.32785759645E+03  0.00000000000E+00 0. -1.
        -14    1    3    3    0    0 -0.96625970772E+02 -0.34790447642E+02 -0.23011073505E+04  0.23033979230E+04  0.00000000000E+00 0.  1.
          5    1    4    4  501    0  0.68918763662E+02 -0.57036783514E+01  0.29750940775E+03  0.30546955336E+03  0.41800000000E+01 0. -1.
         -5    1    4    4    0  501  0.23237620756E+02  0.42917037153E+02  0.26271244630E+02  0.55583358937E+02  0.41800000000E+01 0. -1.
</event>
<event>
11    1  0.8299058E-009  0.1265496E+03  0.7561462E-02  0.1123583E+00
         22   -1    0    0    0    0  0.00000000000E+00  0.00000000000E+00  0.22710419510E+03  0.22710419510E+03  0.00000000000E+00 0.  1.
         22   -1    0    0    0    0 -0.00000000000E+00 -0.00000000000E+00 -0.30713866679E+03  0.30713866679E+03  0.00000000000E+00 0.  1.
        -24    2    1    2    0    0 -0.31958123175E+01 -0.42436491860E+00 -0.25021664094E+03  0.26317493572E+03  0.81500221357E+02 0.  0.
         25    2    1    2    0    0 -0.42019893639E+01  0.18373889433E+02  0.93713441871E+02  0.15743493738E+03  0.12509314047E+03 0.  0.
         24    2    1    2    0    0  0.73978016814E+01 -0.17949524514E+02  0.76468727383E+02  0.11363298879E+03  0.81780663809E+02 0.  0.
        -13    1    5    5    0    0 -0.10551387774E+01 -0.15226802166E+02  0.93333294875E+02  0.94573107987E+02  0.00000000000E+00 0.  1.
         14    1    5    5    0    0  0.84529404588E+01 -0.27227223478E+01 -0.16864567493E+02  0.19059880800E+02  0.00000000000E+00 0. -1.
         11    1    3    3    0    0 -0.30171198593E+02  0.15740304258E+02 -0.49865601939E+02  0.60370826228E+02  0.00000000000E+00 0. -1.
        -12    1    3    3    0    0  0.26975386276E+02 -0.16164669177E+02 -0.20035103901E+03  0.20280410949E+03  0.00000000000E+00 0.  1.
          5    1    4    4  501    0 -0.39996080665E+02  0.54955741505E+02  0.78408416881E+02  0.10385168381E+03  0.41800000000E+01 0. -1.
         -5    1    4    4    0  501  0.35794091301E+02 -0.36581852073E+02  0.15305024990E+02  0.53583253570E+02  0.41800000000E+01 0. -1.
</event>
<event>
11    1  0.8299058E-009  0.1727256E+03  0.7561462E-02  0.1075684E+00
         22   -1    0    0    0    0  0.00000000000E+00  0.00000000000E+00  0.15418078970E+04  0.15418078970E+04  0.00000000000E+00 0. -1.
         22   -1    0    0    0    0 -0.00000000000E+00 -0.00000000000E+00 -0.31876027469E+03  0.31876027469E+03  0.00000000000E+00 0. -1.
        -24    2    1    2    0    0 -0.11201429834E+03 -0.56684545315E+02 -0.25342110007E+03  0.29442349382E+03  0.81869402352E+02 0.  0.
         25    2    1    2    0    0  0.15060006485E+02  0.10895730389E+03  0.12647837565E+03  0.20915241551E+03  0.12509778391E+03 0.  0.
         24    2    1    2    0    0  0.96954291859E+02 -0.52272758574E+02  0.13499903467E+04  0.13569922623E+04  0.82592299077E+02 0.  0.
        -11    1    5    5    0    0 -0.69270471224E+01 -0.27367589668E+02  0.18886363939E+03  0.19096188947E+03  0.00000000000E+00 0.  1.
         12    1    5    5    0    0  0.10388133898E+03 -0.24905168906E+02  0.11611267073E+04  0.11660303729E+04  0.00000000000E+00 0. -1.
         13    1    3    3    0    0 -0.11218819010E+03 -0.64335002170E+02 -0.25561008937E+03  0.28646413439E+03  0.00000000000E+00 0. -1.
        -14    1    3    3    0    0  0.17389175315E+00  0.76504568542E+01  0.21889893020E+01  0.79593594331E+01  0.00000000000E+00 0.  1.
          5    1    4    4  501    0 -0.54835846052E+01  0.27454417684E+02  0.12160419220E+03  0.12485538318E+03  0.41800000000E+01 0.  1.
         -5    1    4    4    0  501  0.20543591091E+02  0.81502886205E+02  0.48741834595E+01  0.84297032327E+02  0.41800000000E+01 0.  1.
</event>
<event>
11    1  0.8299058E-009  0.1531865E+03  0.7561462E-02  0.1093667E+00
         22   -1    0    0    0    0  0.00000000000E+00  0.00000000000E+00  0.64563590646E+03  0.64563590646E+03  0.00000000000E+00 0.  1.
         22   -1    0    0    0    0 -0.00000000000E+00 -0.00000000000E+00 -0.20202990647E+03  0.20202990647E+03  0.00000000000E+00 0.  1.
        -24    2    1    2    0    0 -0.97235698252E+00  0.10741697876E+02 -0.76071268569E+02  0.11120274713E+03  0.80392061278E+02 0.  0.
         25    2    1    2    0    0  0.73433900501E+02  0.40472838432E+02 -0.46248413414E+02  0.15754078144E+03  0.12509833604E+03 0.  0.
         24    2    1    2    0    0 -0.72461543518E+02 -0.51214536308E+02  0.56592568197E+03  0.57892228437E+03  0.83699042999E+02 0.  0.
        -13    1    5    5    0    0 -0.78371161913E+02 -0.65647459166E+02  0.42439624505E+03  0.43653613908E+03  0.00000000000E+00 0.  1.
         14    1    5    5    0    0  0.59096183950E+01  0.14432922859E+02  0.14152943692E+03  0.14238614528E+03  0.00000000000E+00 0. -1.
         13    1    3    3    0    0 -0.30174120093E+01 -0.22369889032E+01  0.16897599366E+02  0.17310047918E+02  0.00000000000E+00 0. -1.
        -14    1    3    3    0    0  0.20450550268E+01  0.12978686779E+02 -0.92968867935E+02  0.93892699214E+02  0.00000000000E+00 0.  1.
          5    1    4    4  501    0  0.82031127032E+02 -0.23543252595E+02 -0.20415772824E+02  0.87850251707E+02  0.41800000000E+01 0.  1.
         -5    1    4    4    0  501 -0.85972265316E+01  0.64016091027E+02 -0.25832640590E+02  0.69690529732E+02  0.41800000000E+01 0.  1.
</event>
<event>
11    1  0.8299058E-009  0.2176550E+03  0.7561462E-02  0.1042696E+00
         22   -1    0    0    0    0  0.00000000000E+00  0.00000000000E+00  0.36210177786E+03  0.36210177786E+03  0.00000000000E+00 0.  1.
         22   -1    0    0    0    0 -0.00000000000E+00 -0.00000000000E+00 -0.28263074171E+04  0.28263074171E+04  0.00000000000E+00 0.  1.
        -24    2    1    2    0    0  0.13847876776E+03  0.10391941463E+03 -0.25023379397E+04  0.25099173681E+04  0.89523272973E+02 0.  0.
         25    2    1    2    0    0 -0.27197636265E+03 -0.12960168175E+03 -0.20780680401E+03  0.38678151751E+03  0.12509411152E+03 0.  0.
         24    2    1    2    0    0  0.13349759488E+03  0.25682267127E+02  0.24593910450E+03  0.29171030933E+03  0.78279465793E+02 0.  0.
        -11    1    5    5    0    0  0.56745676726E-01  0.12120830719E+02  0.66970223108E+02  0.68058273123E+02  0.00000000000E+00 0.  1.
         12    1    5    5    0    0  0.13344084920E+03  0.13561436409E+02  0.17896888139E+03  0.22365203621E+03  0.00000000000E+00 0. -1.
         11    1    3    3    0    0  0.30283517987E+02  0.25149069444E+01 -0.15808674514E+03  0.16098085354E+03  0.00000000000E+00 0. -1.
        -12    1    3    3    0    0  0.10819524978E+03  0.10140450768E+03 -0.23442511946E+04  0.23489365146E+04  0.00000000000E+00 0.  1.
          5    1    4    4  501    0 -0.26897905169E+03 -0.14660905270E+03 -0.20540180123E+03  0.36885134801E+03  0.41800000000E+01 0.  1.
         -5    1    4    4    0  501 -0.29973109579E+01  0.17007370950E+02 -0.24050027805E+01  0.17930169491E+02  0.41800000000E+01 0.  1.
</event>
<event>
11    1  0.8299058E-009  0.1491095E+03  0.7561462E-02  0.1097792E+00
         22   -1    0    0    0    0  0.00000000000E+00  0.00000000000E+00  0.23718939863E+02  0.23718939863E+02  0.00000000000E+00 0. -1.
         22   -1    0    0    0    0 -0.00000000000E+00 -0.00000000000E+00 -0.15676689707E+04  0.15676689707E+04  0.00000000000E+00 0. -1.
         24    2    1    2    0    0  0.66116206578E+02  0.61174389502E+02 -0.88726548705E+03  0.89448014376E+03  0.68855096884E+02 0.  0.
         25    2    1    2    0    0 -0.44187474815E+02 -0.36620531955E+02 -0.48127117759E+03  0.50056191951E+03  0.12508674030E+03 0.  0.
        -24    2    1    2    0    0 -0.21928731763E+02 -0.24553857547E+02 -0.17541336617E+03  0.19634584726E+03  0.81841807828E+02 0.  0.
        -11    1    3    3    0    0  0.16280680138E+02  0.47191447991E+01 -0.34942405844E+02  0.38836871650E+02  0.00000000000E+00 0.  1.
         12    1    3    3    0    0  0.49835526440E+02  0.56455244703E+02 -0.85232308120E+03  0.85564327211E+03  0.00000000000E+00 0. -1.
         13    1    5    5    0    0 -0.62945805347E+01 -0.54163663671E+02 -0.10212206476E+03  0.11576804532E+03  0.00000000000E+00 0. -1.
        -14    1    5    5    0    0 -0.15634151228E+02  0.29609806125E+02 -0.73291301402E+02  0.80577801934E+02  0.00000000000E+00 0.  1.
          5    1    4    4  501    0 -0.44829804743E+02  0.31811069117E+02 -0.11031417418E+03  0.12332211860E+03  0.41800000000E+01 0.  1.
         -5    1    4    4    0  501  0.64232992814E+00 -0.68431601072E+02 -0.37095700341E+03  0.37723980091E+03  0.41800000000E+01 0.  1.
</event>
<event>
11    1  0.8299058E-009  0.1904356E+03  0.7561462E-02  0.1061501E+00
         22   -1    0    0    0    0  0.00000000000E+00  0.00000000000E+00  0.38292122163E+03  0.38292122163E+03  0.00000000000E+00 0.  1.
         22   -1    0    0    0    0 -0.00000000000E+00 -0.00000000000E+00 -0.71955337522E+03  0.71955337522E+03  0.00000000000E+00 0.  1.
        -24    2    1    2    0    0  0.19153316052E+02 -0.45773719206E+02 -0.58057646739E+03  0.58829363021E+03  0.80983195616E+02 0.  0.
         25    2    1    2    0    0  0.54193352505E+02 -0.87374974843E+02 -0.53414310264E+02  0.17052605726E+03  0.12511891135E+03 0.  0.
         24    2    1    2    0    0 -0.73346668558E+02  0.13314869405E+03  0.29735862407E+03  0.34365490938E+03  0.81044660040E+02 0.  0.
        -11    1    5    5    0    0 -0.66290865836E+02  0.14369919518E+03  0.26197200746E+03  0.30606089309E+03  0.00000000000E+00 0.  1.
         12    1    5    5    0    0 -0.70558027213E+01 -0.10550501126E+02  0.35386616610E+02  0.37594016295E+02  0.00000000000E+00 0. -1.
         13    1    3    3    0    0  0.21908555416E+02 -0.41453822512E+02 -0.13914326634E+03  0.14683069423E+03  0.00000000000E+00 0. -1.
        -14    1    3    3    0    0 -0.27552393633E+01 -0.43198966946E+01 -0.44143320105E+03  0.44146293598E+03  0.00000000000E+00 0.  1.
          5    1    4    4  501    0  0.23745214011E+02 -0.11662193618E+03 -0.33842616497E+02  0.12380349865E+03  0.41800000000E+01 0.  1.
         -5    1    4    4    0  501  0.30448138494E+02  0.29246961341E+02 -0.19571693768E+02  0.46722558603E+02  0.41800000000E+01 0.  1.
</event>
<event>
11    1  0.8299058E-009  0.1363294E+03  0.7561462E-02  0.1111728E+00
         22   -1    0    0    0    0  0.00000000000E+00  0.00000000000E+00  0.82695408314E+03  0.82695408314E+03  0.00000000000E+00 0. -1.
         22   -1    0    0    0    0 -0.00000000000E+00 -0.00000000000E+00 -0.12751729393E+04  0.12751729393E+04  0.00000000000E+00 0. -1.
         24    2    1    2    0    0 -0.54625902536E+02  0.15404099336E+01 -0.12336764602E+04  0.12374672799E+04  0.79883029034E+02 0.  0.
         25    2    1    2    0    0  0.29286519213E+02  0.11827101634E+02  0.75308904029E+02  0.14938117834E+03  0.12508287203E+03 0.  0.
        -24    2    1    2    0    0  0.25339383323E+02 -0.13367511568E+02  0.71014870006E+03  0.71527856412E+03  0.80569680259E+02 0.  0.
        -11    1    3    3    0    0 -0.79930824380E+01 -0.14513624130E+02 -0.48256229194E+02  0.51021547490E+02  0.00000000000E+00 0.  1.
         12    1    3    3    0    0 -0.46632820098E+02  0.16054034064E+02 -0.11854202310E+04  0.11864457325E+04  0.00000000000E+00 0. -1.
         13    1    5    5    0    0  0.15111659830E+02 -0.47510272250E+02  0.42052564908E+03  0.42347067167E+03  0.00000000000E+00 0. -1.
        -14    1    5    5    0    0  0.10227723493E+02  0.34142760682E+02  0.28962305098E+03  0.29180789245E+03  0.00000000000E+00 0.  1.
          5    1    4    4  501    0  0.70975916199E+02  0.35857573127E+02  0.56073960616E+02  0.97391517547E+02  0.41800000000E+01 0.  1.
         -5    1    4    4    0  501 -0.41689396986E+02 -0.24030471493E+02  0.19234943413E+02  0.51989660792E+02  0.41800000000E+01 0.  1.
</event>
<event>
11    1  0.8299058E-009  0.1715858E+03  0.7561462E-02  0.1076660E+00
         22   -1    0    0    0    0  0.00000000000E+00  0.00000000000E+00  0.44493808451E+03  0.44493808451E+03  0.00000000000E+00 0.  1.
         22   -1    0    0    0    0 -0.00000000000E+00 -0.00000000000E+00 -0.31673856478E+04  0.31673856478E+04  0.00000000000E+00 0.  1.
         24    2    1    2    0    0 -0.36286066297E+02 -0.53923046803E+02 -0.30297600163E+04  0.30315565250E+04  0.81638436357E+02 0.  0.
         25    2    1    2    0    0 -0.62342819874E+02  0.11760207051E+03 -0.55808920068E+02  0.19099393493E+03  0.12508866232E+03 0.  0.
        -24    2    1    2    0    0  0.98628886170E+02 -0.63679023709E+02  0.36312137311E+03  0.38977327236E+03  0.79267881170E+02 0.  0.
        -13    1    3    3    0    0 -0.35097247101E+00 -0.37890743581E+02 -0.25183022063E+04  0.25185872695E+04  0.00000000000E+00 0.  1.
         14    1    3    3    0    0 -0.35935093826E+02 -0.16032303223E+02 -0.51145780997E+03  0.51296925551E+03  0.00000000000E+00 0. -1.
         11    1    5    5    0    0  0.30568450032E+02 -0.17359886451E+02  0.28741570518E+02  0.45407859130E+02  0.00000000000E+00 0. -1.
        -12    1    5    5    0    0  0.68060436138E+02 -0.46319137258E+02  0.33437980259E+03  0.34436541323E+03  0.00000000000E+00 0.  1.
          5    1    4    4  501    0  0.64277267597E+01  0.42899861763E+02 -0.75789031499E+02  0.87425188053E+02  0.41800000000E+01 0.  1.
         -5    1    4    4    0  501 -0.68770546634E+02  0.74702208748E+02  0.19980111431E+02  0.10356874687E+03  0.41800000000E+01 0.  1.
</event>
<event>
11    1  0.8299058E-009  0.1541870E+03  0.7561462E-02  0.1092676E+00
         22   -1    0    0    0    0  0.00000000000E+00  0.00000000000E+00  0.10539289687E+04  0.10539289687E+04  0.00000000000E+00 0. -1.
         22   -1    0    0    0    0 -0.00000000000E+00 -0.00000000000E+00 -0.10402735534E+04  0.10402735534E+04  0.00000000000E+00 0.  1.
        -24    2    1    2    0    0 -0.49593617275E+02  0.92800493934E+02 -0.85388548469E+03  0.86412105217E+03  0.80705100675E+02 0.  0.
         25    2    1    2    0    0  0.31541405387E+02 -0.63143238876E+01 -0.15433879098E+03  0.20125256604E+03  0.12508957589E+03 0.  0.
         24    2    1    2    0    0  0.18052211888E+02 -0.86486170046E+02  0.10218796910E+04  0.10288289040E+04  0.80281198943E+02 0.  0.
        -13    1    5    5    0    0  0.42490211872E+02 -0.17467761245E+02  0.42472641033E+03  0.42720377388E+03  0.00000000000E+00 0.  1.
         14    1    5    5    0    0 -0.24437999984E+02 -0.69018408801E+02  0.59715328063E+03  0.60162513009E+03  0.00000000000E+00 0. -1.
         13    1    3    3    0    0 -0.38268512992E+01 -0.12896401591E+01 -0.32288818141E+03  0.32291343369E+03  0.00000000000E+00 0. -1.
        -14    1    3    3    0    0 -0.45766765975E+02  0.94090134093E+02 -0.53099730328E+03  0.54120761847E+03  0.00000000000E+00 0.  1.
          5    1    4    4  501    0 -0.12152439999E+02 -0.58386236126E+02 -0.86304850064E+02  0.10498873231E+03  0.41800000000E+01 0.  1.
         -5    1    4    4    0  501  0.43693845386E+02  0.52071912239E+02 -0.68033940912E+02  0.96263833732E+02  0.41800000000E+01 0.  1.
</event>
<event>
11    1  0.8299058E-009  0.1495961E+03  0.7561462E-02  0.1097292E+00
         22   -1    0    0    0    0  0.00000000000E+00  0.00000000000E+00  0.59055226581E+03  0.59055226581E+03  0.00000000000E+00 0.  1.
         22   -1    0    0    0    0 -0.00000000000E+00 -0.00000000000E+00 -0.91263018412E+03  0.91263018412E+03  0.00000000000E+00 0. -1.
        -24    2    1    2    0    0 -0.30255930765E+02  0.30903721792E+02 -0.82176714695E+03  0.82681372862E+03  0.80307139554E+02 0.  0.
         25    2    1    2    0    0  0.10947740167E+03 -0.39182261813E+02  0.69483000163E+01  0.17091455810E+03  0.12507180410E+03 0.  0.
         24    2    1    2    0    0 -0.79221470906E+02  0.82785400212E+01  0.49274092862E+03  0.50545416320E+03  0.79659981697E+02 0.  0.
        -13    1    5    5    0    0 -0.69919460721E+02 -0.26494036796E+02  0.37298206470E+03  0.38040279384E+03  0.00000000000E+00 0.  1.
         14    1    5    5    0    0 -0.93020101845E+01  0.34772576818E+02  0.11975886392E+03  0.12505136936E+03  0.00000000000E+00 0. -1.
         13    1    3    3    0    0 -0.36485376235E+02  0.11164400409E+02 -0.77161778927E+03  0.77256057318E+03  0.00000000000E+00 0. -1.
        -14    1    3    3    0    0  0.62294454702E+01  0.19739321383E+02 -0.50149357676E+02  0.54253155436E+02  0.00000000000E+00 0.  1.
          5    1    4    4  501    0  0.90493770011E+02  0.16897373218E+02  0.42764897267E+02  0.10159208862E+03  0.41800000000E+01 0. -1.
         -5    1    4    4    0  501  0.18983631660E+02 -0.56079635032E+02 -0.35816597251E+02  0.69322469481E+02  0.41800000000E+01 0. -1.
</event>
<event>
11    1  0.8299058E-009  0.1464748E+03  0.7561462E-02  0.1100536E+00
         22   -1    0    0    0    0  0.00000000000E+00  0.00000000000E+00  0.12164811834E+04  0.12164811834E+04  0.00000000000E+00 0.  1.
         22   -1    0    0    0    0 -0.00000000000E+00 -0.00000000000E+00 -0.28264770758E+03  0.28264770758E+03  0.00000000000E+00 0. -1.
         24    2    1    2    0    0  0.64616209515E+02 -0.38156405037E+02 -0.25241747013E+03  0.27423980104E+03  0.76561893065E+02 0.  0.
         25    2    1    2    0    0 -0.11185867266E+03  0.83010069375E+02  0.56830395993E+03  0.59834752003E+03  0.12508928645E+03 0.  0.
        -24    2    1    2    0    0  0.47242463144E+02 -0.44853664337E+02  0.61794698606E+03  0.62654156996E+03  0.80325337049E+02 0.  0.
        -13    1    3    3    0    0  0.51917409349E+01 -0.27403950219E+01  0.49862052006E+01  0.77023490647E+01  0.00000000000E+00 0.  1.
         14    1    3    3    0    0  0.59424468580E+02 -0.35416010015E+02 -0.25740367533E+03  0.26653745197E+03  0.00000000000E+00 0. -1.
         13    1    5    5    0    0  0.99331826578E+01 -0.17030054009E+00  0.55414230521E+01  0.11375609409E+02  0.00000000000E+00 0. -1.
        -14    1    5    5    0    0  0.37309280486E+02 -0.44683363797E+02  0.61240556301E+03  0.61516596055E+03  0.00000000000E+00 0.  1.
          5    1    4    4  501    0 -0.60918480093E+02  0.17467111091E+02  0.44584579358E+03  0.45034665008E+03  0.41800000000E+01 0. -1.
         -5    1    4    4    0  501 -0.50940192566E+02  0.65542958284E+02  0.12245816635E+03  0.14800086995E+03  0.41800000000E+01 0. -1.
</event>
<event>
11    1  0.8299058E-009  0.2447130E+03  0.7561462E-02  0.1026754E+00
         22   -1    0    0    0    0  0.00000000000E+00  0.00000000000E+00  0.12700011865E+04  0.12700011865E+04  0.00000000000E+00 0.  1.
         22   -1    0    0    0    0 -0.00000000000E+00 -0.00000000000E+00 -0.74001671188E+03  0.74001671188E+03  0.00000000000E+00 0.  1.
         24    2    1    2    0    0  0.21664087013E+02 -0.73706661700E+02 -0.50046060485E+03  0.51264029975E+03  0.80232507595E+02 0.  0.
         25    2    1    2    0    0  0.17919307011E+03  0.13584669545E+03 -0.14869136001E+03  0.29718752626E+03  0.12508726628E+03 0.  0.
        -24    2    1    2    0    0 -0.20085715712E+03 -0.62140033746E+02  0.11791364394E+04  0.12001900723E+04  0.76736467925E+02 0.  0.
        -11    1    3    3    0    0  0.23818094797E+02 -0.78077730882E+02 -0.50111811763E+03  0.50772315441E+03  0.00000000000E+00 0.  1.
         12    1    3    3    0    0 -0.21540077834E+01  0.43710691813E+01  0.65751277873E+00  0.49171453480E+01  0.00000000000E+00 0. -1.
         13    1    5    5    0    0 -0.10125594006E+03 -0.72587481588E+01  0.39433937270E+03  0.40719650746E+03  0.00000000000E+00 0. -1.
        -14    1    5    5    0    0 -0.99601217067E+02 -0.54881285588E+02  0.78479706674E+03  0.79299356486E+03  0.00000000000E+00 0.  1.
          5    1    4    4  501    0  0.14541393577E+03  0.98541565462E+02 -0.16802266273E+03  0.24311466519E+03  0.41800000000E+01 0. -1.
         -5    1    4    4    0  501  0.33779134342E+02  0.37305129985E+02  0.19331302717E+02  0.54072861075E+02  0.41800000000E+01 0. -1.
</event>
<event>
11    1  0.8299058E-009  0.1333118E+03  0.7561462E-02  0.1115265E+00
         22   -1    0    0    0    0  0.00000000000E+00  0.00000000000E+00  0.89041463221E+03  0.89041463221E+03  0.00000000000E+00 0. -1.
         22   -1    0    0    0    0 -0.00000000000E+00 -0.00000000000E+00 -0.41764615740E+03  0.41764615740E+03  0.00000000000E+00 0. -1.
        -24    2    1    2    0    0  0.37702658821E+02  0.27038983387E+02 -0.39446605193E+03  0.40420269999E+03  0.74991729168E+02 0.  0.
         25    2    1    2    0    0 -0.39409258738E+02  0.72243351654E+01  0.26917130686E+03  0.29951062309E+03  0.12509252660E+03 0.  0.
         24    2    1    2    0    0  0.17065999168E+01 -0.34263318553E+02  0.59806321987E+03  0.60434746654E+03  0.79870882437E+02 0.  0.
        -11    1    5    5    0    0 -0.14180024933E+02  0.13551274324E+02  0.46228685470E+02  0.50217541787E+02  0.00000000000E+00 0.  1.
         12    1    5    5    0    0  0.15886624850E+02 -0.47814592877E+02  0.55183453440E+03  0.55412992475E+03  0.00000000000E+00 0. -1.
         11    1    3    3    0    0  0.49187419484E+02  0.36107566257E+02 -0.37455520971E+03  0.37949277160E+03  0.00000000000E+00 0. -1.
        -12    1    3    3    0    0 -0.11484760664E+02 -0.90685828696E+01 -0.19910842223E+02  0.24709928385E+02  0.00000000000E+00 0.  1.
          5    1    4    4  501    0 -0.20942801809E+02 -0.58723531405E+02  0.11902110993E+03  0.13442674993E+03  0.41800000000E+01 0.  1.
         -5    1    4    4    0  501 -0.18466456928E+02  0.65947866570E+02  0.15015019693E+03  0.16508387315E+03  0.41800000000E+01 0.  1.
</event>
<event>
11    1  0.8299058E-009  0.1289937E+03  0.7561462E-02  0.1120512E+00
         22   -1    0    0    0    0  0.00000000000E+00  0.00000000000E+00  0.45851472302E+03  0.45851472302E+03  0.00000000000E+00 0. -1.
         22   -1    0    0    0    0 -0.00000000000E+00 -0.00000000000E+00 -0.45954087250E+03  0.45954087250E+03  0.00000000000E+00 0. -1.
        -24    2    1    2    0    0 -0.13008581715E+01 -0.85154456192E+01 -0.41693114348E+03  0.42313131443E+03  0.71654209923E+02 0.  0.
         25    2    1    2    0    0 -0.24414380790E+02  0.25753533141E+02  0.90327579181E+02  0.15832327053E+03  0.12509148641E+03 0.  0.
         24    2    1    2    0    0  0.25715238961E+02 -0.17238087522E+02  0.32557741482E+03  0.33660101056E+03  0.79631413997E+02 0.  0.
        -13    1    5    5    0    0  0.29438342154E+01  0.97151462823E+01  0.11000521364E+01  0.10210795360E+02  0.00000000000E+00 0.  1.
         14    1    5    5    0    0  0.22771404746E+02 -0.26953233804E+02  0.32447736268E+03  0.32639021520E+03  0.00000000000E+00 0. -1.
         13    1    3    3    0    0 -0.11329037534E+02 -0.19434757706E+02 -0.39997799797E+03  0.40061010441E+03  0.00000000000E+00 0. -1.
        -14    1    3    3    0    0  0.10028179363E+02  0.10919312087E+02 -0.16953145509E+02  0.22521210013E+02  0.00000000000E+00 0.  1.
          5    1    4    4  501    0  0.12137689201E+02 -0.27882199062E+02  0.88044988823E+02  0.93242334701E+02  0.41800000000E+01 0.  1.
         -5    1    4    4    0  501 -0.36552069991E+02  0.53635732203E+02  0.22825903576E+01  0.65080935828E+02  0.41800000000E+01 0.  1.
</event>
<event>
11    1  0.8299058E-009  0.1651099E+03  0.7561462E-02  0.1082367E+00
         22   -1    0    0    0    0  0.00000000000E+00  0.00000000000E+00  0.20907722503E+03  0.20907722503E+03  0.00000000000E+00 0. -1.
         22   -1    0    0    0    0 -0.00000000000E+00 -0.00000000000E+00 -0.98631530604E+03  0.98631530604E+03  0.00000000000E+00 0. -1.
        -24    2    1    2    0    0 -0.56018257258E+02  0.71613422141E+02 -0.74110653772E+03  0.75091355196E+03  0.79785555583E+02 0.  0.
         25    2    1    2    0    0  0.14651019907E+03 -0.16330229949E+02 -0.16828855065E+03  0.25631662002E+03  0.12508100806E+03 0.  0.
         24    2    1    2    0    0 -0.90491941813E+02 -0.55283192192E+02  0.13215700737E+03  0.18816235909E+03  0.81820388111E+02 0.  0.
        -13    1    5    5    0    0  0.11057677605E+02  0.85307567049E+01  0.12455048168E+02  0.18712943885E+02  0.00000000000E+00 0.  1.
         14    1    5    5    0    0 -0.10154961942E+03 -0.63813948896E+02  0.11970195920E+03  0.16944941521E+03  0.00000000000E+00 0. -1.
         11    1    3    3    0    0 -0.51940892057E+02  0.84727987144E+02 -0.70984627707E+03  0.71676943653E+03  0.00000000000E+00 0. -1.
        -12    1    3    3    0    0 -0.40773652013E+01 -0.13114565003E+02 -0.31260260655E+02  0.34144115429E+02  0.00000000000E+00 0.  1.
          5    1    4    4  501    0  0.12147888386E+02 -0.24655350665E+02  0.12821584555E+02  0.30615730257E+02  0.41800000000E+01 0.  1.
         -5    1    4    4    0  501  0.13436231069E+03  0.83251207157E+01 -0.18111013521E+03  0.22570088977E+03  0.41800000000E+01 0.  1.
</event>
<event>
11    1  0.8299058E-009  0.1391493E+03  0.7561462E-02  0.1108512E+00
         22   -1    0    0    0    0  0.00000000000E+00  0.00000000000E+00  0.42568260029E+03  0.42568260029E+03  0.00000000000E+00 0.  1.
         22   -1    0    0    0    0 -0.00000000000E+00 -0.00000000000E+00 -0.13674352876E+04  0.13674352876E+04  0.00000000000E+00 0.  1.
         24    2    1    2    0    0 -0.47245446350E+02 -0.17480472664E+02 -0.12564685086E+04  0.12597573555E+04  0.75748151377E+02 0.  0.
         25    2    1    2    0    0  0.45376180911E+02  0.77369700452E+02 -0.44998214251E+02  0.16036330442E+03  0.12508589759E+03 0.  0.
        -24    2    1    2    0    0  0.18692654387E+01 -0.59889227788E+02  0.35971403559E+03  0.37299722795E+03  0.78374299980E+02 0.  0.
        -13    1    3    3    0    0 -0.17011768813E+02 -0.45449684822E+02 -0.78211650917E+03  0.78362064039E+03  0.00000000000E+00 0.  1.
         14    1    3    3    0    0 -0.30233677536E+02  0.27969212158E+02 -0.47435199946E+03  0.47613671511E+03  0.00000000000E+00 0. -1.
         11    1    5    5    0    0 -0.19227246388E+02 -0.61231434480E+02  0.16345913033E+03  0.17560712645E+03  0.00000000000E+00 0. -1.
        -12    1    5    5    0    0  0.21096511827E+02  0.13422066924E+01  0.19625490525E+03  0.19739010149E+03  0.00000000000E+00 0.  1.
          5    1    4    4  501    0  0.22795185241E+02  0.60361751105E+02 -0.87714164088E+02  0.10896975933E+03  0.41800000000E+01 0.  1.
         -5    1    4    4    0  501  0.22580995670E+02  0.17007949347E+02  0.42715949836E+02  0.51393545089E+02  0.41800000000E+01 0.  1.
</event>
<event>
11    1  0.8299058E-009  0.1584188E+03  0.7561462E-02  0.1088574E+00
         22   -1    0    0    0    0  0.00000000000E+00  0.00000000000E+00  0.84766285397E+03  0.84766285397E+03  0.00000000000E+00 0. -1.
         22   -1    0    0    0    0 -0.00000000000E+00 -0.00000000000E+00 -0.11819881391E+03  0.11819881391E+03  0.00000000000E+00 0. -1.
        -24    2    1    2    0    0 -0.10113819919E+03 -0.47402865846E+02 -0.29484397203E+02  0.14177257610E+03  0.82183737011E+02 0.  0.
         25    2    1    2    0    0  0.58669022764E+02 -0.19550081401E+02  0.16903903405E+03  0.21921169044E+03  0.12512118237E+03 0.  0.
         24    2    1    2    0    0  0.42469176426E+02  0.66952947247E+02  0.58990940321E+03  0.60487740134E+03  0.10769047576E+03 0.  0.
        -13    1    5    5    0    0  0.20568715011E+02 -0.24936870368E+02  0.79859324633E+02  0.86153533136E+02  0.00000000000E+00 0.  1.
         14    1    5    5    0    0  0.21900461415E+02  0.91889817615E+02  0.51005007858E+03  0.51872386821E+03  0.00000000000E+00 0. -1.
         11    1    3    3    0    0 -0.10182654861E+03 -0.17008508646E+02 -0.60999137831E+01  0.10341733083E+03  0.00000000000E+00 0. -1.
        -12    1    3    3    0    0  0.68834942080E+00 -0.30394357200E+02 -0.23384483420E+02  0.38355245265E+02  0.00000000000E+00 0.  1.
          5    1    4    4  501    0  0.80887856917E+02 -0.41276320337E+02  0.68299689217E+02  0.11370532074E+03  0.41800000000E+01 0.  1.
         -5    1    4    4    0  501 -0.22218834153E+02  0.21726238936E+02  0.10073934484E+03  0.10550636970E+03  0.41800000000E+01 0.  1.
</event>
<event>
11    1  0.8299058E-009  0.1454749E+03  0.7561462E-02  0.1101594E+00
         22   -1    0    0    0    0  0.00000000000E+00  0.00000000000E+00  0.10264478723E+04  0.10264478723E+04  0.00000000000E+00 0.  1.
         22   -1    0    0    0    0 -0.00000000000E+00 -0.00000000000E+00 -0.31138927464E+04  0.31138927464E+04  0.00000000000E+00 0. -1.
         24    2    1    2    0    0 -0.21602384061E+02 -0.20254568683E+02 -0.30713462497E+04  0.30727011598E+04  0.86300183823E+02 0.  0.
         25    2    1    2    0    0 -0.45225047229E+02  0.54360733838E+02  0.95295276414E+02  0.17242053381E+03  0.12508899429E+03 0.  0.
        -24    2    1    2    0    0  0.66827431290E+02 -0.34106165155E+02  0.88860609925E+03  0.89521892506E+03  0.78530173115E+02 0.  0.
        -13    1    3    3    0    0  0.26147552809E+02 -0.27980474584E+02 -0.89728544320E+03  0.89810231492E+03  0.00000000000E+00 0.  1.
         14    1    3    3    0    0 -0.47749936870E+02  0.77259059006E+01 -0.21740608065E+04  0.21745988449E+04  0.00000000000E+00 0. -1.
         11    1    5    5    0    0  0.63337575770E+02  0.55048470477E+01  0.40261140269E+03  0.40760016366E+03  0.00000000000E+00 0. -1.
        -12    1    5    5    0    0  0.34898555197E+01 -0.39611012203E+02  0.48599469656E+03  0.48761876140E+03  0.00000000000E+00 0.  1.
          5    1    4    4  501    0 -0.52694573054E+02  0.91117176586E+02  0.76986682204E+02  0.13047405694E+03  0.41800000000E+01 0. -1.
         -5    1    4    4    0  501  0.74695258255E+01 -0.36756442748E+02  0.18308594210E+02  0.41946476866E+02  0.41800000000E+01 0. -1.
</event>
<event>
11    1  0.8299058E-009  0.1401921E+03  0.7561462E-02  0.1107344E+00
         22   -1    0    0    0    0  0.00000000000E+00  0.00000000000E+00  0.71210722733E+03  0.71210722733E+03  0.00000000000E+00 0. -1.
         22   -1    0    0    0    0 -0.00000000000E+00 -0.00000000000E+00 -0.62268580629E+03  0.62268580629E+03  0.00000000000E+00 0.  1.
         24    2    1    2    0    0 -0.40601961806E+02 -0.50313819804E+02 -0.57352215879E+03  0.58284511993E+03  0.81245107156E+02 0.  0.
         25    2    1    2    0    0  0.67501943417E+01  0.36756118444E+02  0.62027438523E+02  0.14454387684E+03  0.12509577066E+03 0.  0.
        -24    2    1    2    0    0  0.33851767464E+02  0.13557701359E+02  0.60091614131E+03  0.60740403685E+03  0.80682722239E+02 0.  0.
        -11    1    3    3    0    0 -0.42125315840E+02 -0.66231256222E+02 -0.54033734898E+03  0.54600876572E+03  0.00000000000E+00 0.  1.
         12    1    3    3    0    0  0.15233540341E+01  0.15917436418E+02 -0.33184809808E+02  0.36836354212E+02  0.00000000000E+00 0. -1.
         13    1    5    5    0    0  0.10050656464E+02  0.43226891491E+02  0.43120103071E+03  0.43347884462E+03  0.00000000000E+00 0. -1.
        -14    1    5    5    0    0  0.23801111001E+02 -0.29669190132E+02  0.16971511060E+03  0.17392519223E+03  0.00000000000E+00 0.  1.
          5    1    4    4  501    0 -0.26138624719E+02  0.38775131580E+02 -0.23710856399E+02  0.52596726537E+02  0.41800000000E+01 0. -1.
         -5    1    4    4    0  501  0.32888819061E+02 -0.20190131355E+01  0.85738294922E+02  0.91947150306E+02  0.41800000000E+01 0. -1.
</event>
<event>
11    1  0.8299058E-009  0.1575666E+03  0.7561462E-02  0.1089389E+00
         22   -1    0    0    0    0  0.00000000000E+00  0.00000000000E+00  0.14704622617E+04  0.14704622617E+04  0.00000000000E+00 0.  1.
         22   -1    0    0    0    0 -0.00000000000E+00 -0.00000000000E+00 -0.13865813268E+04  0.13865813268E+04  0.00000000000E+00 0.  1.
        -24    2    1    2    0    0  0.34391760986E+02  0.24850652457E+02 -0.13561144855E+04  0.13591366543E+04  0.80034986552E+02 0.  0.
         25    2    1    2    0    0 -0.13822688346E+02  0.72241297310E+02  0.17874481949E+03  0.23023241434E+03  0.12508949743E+03 0.  0.
         24    2    1    2    0    0 -0.20569072640E+02 -0.97091949766E+02  0.12612506010E+04  0.12676745199E+04  0.79972973624E+02 0.  0.
        -13    1    5    5    0    0 -0.18887917650E+02 -0.41721119265E+02  0.97719825601E+03  0.97827084020E+03  0.00000000000E+00 0.  1.
         14    1    5    5    0    0 -0.16811549900E+01 -0.55370830502E+02  0.28405234495E+03  0.28940367970E+03  0.00000000000E+00 0. -1.
         11    1    3    3    0    0 -0.10119121228E+02 -0.19392328807E+01 -0.25423406756E+02  0.27431858298E+02  0.00000000000E+00 0. -1.
        -12    1    3    3    0    0  0.44510882214E+02  0.26789885337E+02 -0.13306910787E+04  0.13317047960E+04  0.00000000000E+00 0.  1.
          5    1    4    4  501    0 -0.58650291329E+02  0.16662555505E+02  0.13007910401E+03  0.14372036435E+03  0.41800000000E+01 0. -1.
         -5    1    4    4    0  501  0.44827602983E+02  0.55578741805E+02  0.48665715484E+02  0.86512049989E+02  0.41800000000E+01 0. -1.
</event>
<event>
11    1  0.8299058E-009  0.1922577E+03  0.7561462E-02  0.1060138E+00
         22   -1    0    0    0    0  0.00000000000E+00  0.00000000000E+00  0.12373367576E+03  0.12373367576E+03  0.00000000000E+00 0.  1.
         22   -1    0    0    0    0 -0.00000000000E+00 -0.00000000000E+00 -0.11532918754E+04  0.11532918754E+04  0.00000000000E+00 0.  1.
         24    2    1    2    0    0  0.13142359994E+03  0.41158044769E+02 -0.79035092744E+03  0.80617144475E+03  0.79320001015E+02 0.  0.
         25    2    1    2    0    0 -0.19069927320E+03 -0.19992809032E+02 -0.27977507195E+03  0.36150867880E+03  0.12509399966E+03 0.  0.
        -24    2    1    2    0    0  0.59275673262E+02 -0.21165235737E+02  0.40567799693E+02  0.10934542765E+03  0.79681262113E+02 0.  0.
        -11    1    3    3    0    0  0.12953443565E+03  0.28800526138E+02 -0.77544649530E+03  0.78671844227E+03  0.00000000000E+00 0.  1.
         12    1    3    3    0    0  0.18891642878E+01  0.12357518631E+02 -0.14904432137E+02  0.19453002486E+02  0.00000000000E+00 0. -1.
         11    1    5    5    0    0  0.15119412648E+01 -0.89231335483E+01 -0.21712857751E+02  0.23523530144E+02  0.00000000000E+00 0. -1.
        -12    1    5    5    0    0  0.57763731997E+02 -0.12242102189E+02  0.62280657444E+02  0.85821897508E+02  0.00000000000E+00 0.  1.
          5    1    4    4  501    0 -0.79901967462E+02 -0.70095872372E+02 -0.11461943954E+03  0.15637405171E+03  0.41800000000E+01 0. -1.
         -5    1    4    4    0  501 -0.11079730574E+03  0.50103063341E+02 -0.16515563241E+03  0.20513462709E+03  0.41800000000E+01 0. -1.
</event>
<event>
11    1  0.8299058E-009  0.1497490E+03  0.7561462E-02  0.1097136E+00
         22   -1    0    0    0    0  0.00000000000E+00  0.00000000000E+00  0.46713353850E+03  0.46713353850E+03  0.00000000000E+00 0.  1.
         22   -1    0    0    0    0 -0.00000000000E+00 -0.00000000000E+00 -0.75439322838E+03  0.75439322838E+03  0.00000000000E+00 0. -1.
         24    2    1    2    0    0 -0.22936293708E+02 -0.10092401540E+02 -0.68025306080E+03  0.68422866535E+03  0.69258281984E+02 0.  0.
         25    2    1    2    0    0 -0.55811517910E+02  0.40316585178E+02  0.16329508894E+02  0.14373588903E+03  0.12511195132E+03 0.  0.
        -24    2    1    2    0    0  0.78747811619E+02 -0.30224183638E+02  0.37666386202E+03  0.39356221249E+03  0.76816866863E+02 0.  0.
        -13    1    3    3    0    0  0.16722772655E+02  0.14451702265E+02 -0.11855721284E+03  0.12059981567E+03  0.00000000000E+00 0.  1.
         14    1    3    3    0    0 -0.39659066363E+02 -0.24544103805E+02 -0.56169584796E+03  0.56362884968E+03  0.00000000000E+00 0. -1.
         11    1    5    5    0    0  0.16026726857E+01  0.12250383899E+02  0.14818087394E+03  0.14869502973E+03  0.00000000000E+00 0. -1.
        -12    1    5    5    0    0  0.77145138933E+02 -0.42474567537E+02  0.22848298808E+03  0.24486718276E+03  0.00000000000E+00 0.  1.
          5    1    4    4  501    0 -0.73080350765E+02 -0.22386011246E+02 -0.14710090812E-01  0.76546350558E+02  0.41800000000E+01 0.  1.
         -5    1    4    4    0  501  0.17268832854E+02  0.62702596424E+02  0.16344218984E+02  0.67189538476E+02  0.41800000000E+01 0.  1.
</event>
<event>
11    1  0.8299058E-009  0.1318694E+03  0.7561462E-02  0.1116993E+00
         22   -1    0    0    0    0  0.00000000000E+00  0.00000000000E+00  0.23590986954E+03  0.23590986954E+03  0.00000000000E+00 0.  1.
         22   -1    0    0    0    0 -0.00000000000E+00 -0.00000000000E+00 -0.46367885200E+03  0.46367885200E+03  0.00000000000E+00 0. -1.
         24    2    1    2    0    0 -0.15075141526E+02 -0.38430553285E+02 -0.38759159129E+03  0.39800811929E+03  0.80492571475E+02 0.  0.
         25    2    1    2    0    0  0.32818497322E+02  0.38759432285E+02  0.16118303506E+02  0.13596809593E+03  0.12509266983E+03 0.  0.
        -24    2    1    2    0    0 -0.17743355796E+02 -0.32887900023E+00  0.14370430532E+03  0.16561250632E+03  0.80384327101E+02 0.  0.
        -13    1    3    3    0    0 -0.21294437421E+02  0.20976983470E+02 -0.10495169952E+03  0.10912536888E+03  0.00000000000E+00 0.  1.
         14    1    3    3    0    0  0.62192958949E+01 -0.59407536756E+02 -0.28263989177E+03  0.28888275041E+03  0.00000000000E+00 0. -1.
         11    1    5    5    0    0 -0.46364939024E+02  0.13798989644E+02  0.10375467268E+03  0.11447773490E+03  0.00000000000E+00 0. -1.
        -12    1    5    5    0    0  0.28621583228E+02 -0.14127868645E+02  0.39949632644E+02  0.51134771412E+02  0.00000000000E+00 0.  1.
          5    1    4    4  501    0  0.32693970438E+02  0.58408371014E+02  0.58545515583E+02  0.89025183529E+02  0.41800000000E+01 0. -1.
         -5    1    4    4    0  501  0.12452688386E+00 -0.19648938729E+02 -0.42427212077E+02  0.46942912402E+02  0.41800000000E+01 0. -1.
</event>
<event>
11    1  0.8299058E-009  0.1771064E+03  0.7561462E-02  0.1072008E+00
         22   -1    0    0    0    0  0.00000000000E+00  0.00000000000E+00  0.43564236963E+03  0.43564236963E+03  0.00000000000E+00 0. -1.
         22   -1    0    0    0    0 -0.00000000000E+00 -0.00000000000E+00 -0.61422831725E+03  0.61422831725E+03  0.00000000000E+00 0.  1.
        -24    2    1    2    0    0 -0.43570196121E+02 -0.10061751168E+03 -0.36117719695E+03  0.39076707978E+03  0.10113207895E+03 0.  0.
         25    2    1    2    0    0  0.87334283774E+02  0.16005533420E+03 -0.17712904820E+03  0.28331535296E+03  0.12509157598E+03 0.  0.
         24    2    1    2    0    0 -0.43764087653E+02 -0.59437822521E+02  0.35972029754E+03  0.37578825414E+03  0.79812087903E+02 0.  0.
        -11    1    5    5    0    0 -0.34474947214E+02 -0.67858972479E+02  0.17742323633E+03  0.19306052658E+03  0.00000000000E+00 0.  1.
         12    1    5    5    0    0 -0.92891404392E+01  0.84211499588E+01  0.18229706120E+03  0.18272772756E+03  0.00000000000E+00 0. -1.
         11    1    3    3    0    0 -0.30553665453E+01  0.20873210286E+02 -0.50776992013E+02  0.54984807813E+02  0.00000000000E+00 0. -1.
        -12    1    3    3    0    0 -0.40514829575E+02 -0.12149072196E+03 -0.31040020494E+03  0.33578227197E+03  0.00000000000E+00 0.  1.
          5    1    4    4  501    0  0.86159337473E+02  0.45685216397E+02 -0.42092728670E+02  0.10630070855E+03  0.41800000000E+01 0.  1.
         -5    1    4    4    0  501  0.11749463004E+01  0.11437011780E+03 -0.13503631953E+03  0.17701464442E+03  0.41800000000E+01 0.  1.
</event>
<event>
11    1  0.8299058E-009  0.1274714E+03  0.7561462E-02  0.1122415E+00
         22   -1    0    0    0    0  0.00000000000E+00  0.00000000000E+00  0.62639734184E+03  0.62639734184E+03  0.00000000000E+00 0. -1.
         22   -1    0    0    0    0 -0.00000000000E+00 -0.00000000000E+00 -0.26836088510E+03  0.26836088510E+03  0.00000000000E+00 0.  1.
        -24    2    1    2    0    0  0.17700865938E+02 -0.50457826694E+01 -0.15082988200E+03  0.17158164253E+03  0.79698344848E+02 0.  0.
         25    2    1    2    0    0 -0.25252458515E+02 -0.18263991228E+02 -0.64268836517E+02  0.14404573530E+03  0.12508968972E+03 0.  0.
         24    2    1    2    0    0  0.75515925772E+01  0.23309773898E+02  0.57313517526E+03  0.57913084911E+03  0.79424424195E+02 0.  0.
        -13    1    5    5    0    0 -0.81497892904E+01  0.19115843796E+02  0.34672500679E+02  0.40422974320E+02  0.00000000000E+00 0.  1.
         14    1    5    5    0    0  0.15701381868E+02  0.41939301021E+01  0.53846267458E+03  0.53870787479E+03  0.00000000000E+00 0. -1.
         13    1    3    3    0    0  0.14587592900E+02 -0.32157824907E+02 -0.13602612019E+03  0.14053479620E+03  0.00000000000E+00 0. -1.
        -14    1    3    3    0    0  0.31132730380E+01  0.27112042237E+02 -0.14803761812E+02  0.31046846330E+02  0.00000000000E+00 0.  1.
          5    1    4    4  501    0 -0.60122118751E+02 -0.34707055692E+02 -0.76497072991E+02  0.10338531547E+03  0.41800000000E+01 0. -1.
         -5    1    4    4    0  501  0.34869660235E+02  0.16443064463E+02  0.12228236475E+02  0.40660419835E+02  0.41800000000E+01 0. -1.
</event>
<event>
11    1  0.8299058E-009  0.1600387E+03  0.7561462E-02  0.1087041E+00
         22   -1    0    0    0    0  0.00000000000E+00  0.00000000000E+00  0.11024476677E+04  0.11024476677E+04  0.00000000000E+00 0.  1.
         22   -1    0    0    0    0 -0.00000000000E+00 -0.00000000000E+00 -0.33228729853E+03  0.33228729853E+03  0.00000000000E+00 0.  1.
         24    2    1    2    0    0 -0.49691952064E+02 -0.15613582500E+02 -0.25870734317E+03  0.27521567258E+03  0.78109557452E+02 0.  0.
         25    2    1    2    0    0  0.25469431098E+02 -0.83022223760E+02  0.33984013268E+02  0.15602213359E+03  0.12508641595E+03 0.  0.
        -24    2    1    2    0    0  0.24222520966E+02  0.98635806260E+02  0.99488369909E+03  0.10034971601E+04  0.83049519975E+02 0.  0.
        -13    1    3    3    0    0 -0.42738981337E+02 -0.41658189300E+02 -0.22064529205E+03  0.22857464900E+03  0.00000000000E+00 0.  1.
         14    1    3    3    0    0 -0.69529707271E+01  0.26044606800E+02 -0.38062051127E+02  0.46641023587E+02  0.00000000000E+00 0. -1.
         13    1    5    5    0    0  0.28835462978E+02  0.76657234134E+00  0.13486257163E+03  0.13791296090E+03  0.00000000000E+00 0. -1.
        -14    1    5    5    0    0 -0.46129420114E+01  0.97869233919E+02  0.86002112746E+03  0.86558419917E+03  0.00000000000E+00 0.  1.
          5    1    4    4  501    0 -0.40021833120E+02 -0.32961755192E+02  0.49765615323E+02  0.71988285854E+02  0.41800000000E+01 0. -1.
         -5    1    4    4    0  501  0.65491264219E+02 -0.50060468568E+02 -0.15781602055E+02  0.84033847738E+02  0.41800000000E+01 0. -1.
</event>
<event>
11    1  0.8299058E-009  0.1602098E+03  0.7561462E-02  0.1086880E+00
         22   -1    0    0    0    0  0.00000000000E+00  0.00000000000E+00  0.42570315513E+03  0.42570315513E+03  0.00000000000E+00 0.  1.
         22   -1    0    0    0    0 -0.00000000000E+00 -0.00000000000E+00 -0.11976179491E+04  0.11976179491E+04  0.00000000000E+00 0.  1.
        -24    2    1    2    0    0  0.20228837748E+01 -0.24506479056E+02 -0.94020356457E+03  0.94402969339E+03  0.81269056759E+02 0.  0.
         25    2    1    2    0    0 -0.58928032914E+02  0.10580887471E+03 -0.21429020938E+03  0.27610921982E+03  0.12509187184E+03 0.  0.
         24    2    1    2    0    0  0.56905149140E+02 -0.81302395658E+02  0.38257897995E+03  0.40318219105E+03  0.79629942512E+02 0.  0.
        -13    1    5    5    0    0  0.64606800050E+02 -0.75928153235E+02  0.38078688382E+03  0.39362135862E+03  0.00000000000E+00 0.  1.
         14    1    5    5    0    0 -0.77016509107E+01 -0.53742424224E+01  0.17920961264E+01  0.95608324372E+01  0.00000000000E+00 0. -1.
         11    1    3    3    0    0  0.25614404618E+02  0.15788456793E+02 -0.18936403560E+03  0.19173969613E+03  0.00000000000E+00 0. -1.
        -12    1    3    3    0    0 -0.23591520843E+02 -0.40294935849E+02 -0.75083952897E+03  0.75228999726E+03  0.00000000000E+00 0.  1.
          5    1    4    4  501    0 -0.45782623791E+02  0.98275065849E+02 -0.66012073996E+02  0.12700040757E+03  0.41800000000E+01 0. -1.
         -5    1    4    4    0  501 -0.13145409124E+02  0.75338088647E+01 -0.14827813539E+03  0.14910881225E+03  0.41800000000E+01 0. -1.
</event>
<event>
11    1  0.8299058E-009  0.1754597E+03  0.7561462E-02  0.1073376E+00
         22   -1    0    0    0    0  0.00000000000E+00  0.00000000000E+00  0.49102138000E+03  0.49102138000E+03  0.00000000000E+00 0.  1.
         22   -1    0    0    0    0 -0.00000000000E+00 -0.00000000000E+00 -0.14020947887E+04  0.14020947887E+04  0.00000000000E+00 0. -1.
         24    2    1    2    0    0 -0.11551741948E+03  0.34532763878E+02 -0.12305363410E+04  0.12391085765E+04  0.81446866099E+02 0.  0.
         25    2    1    2    0    0  0.14428660145E+03 -0.78406459537E+02 -0.96038447489E+02  0.22767739213E+03  0.12508962880E+03 0.  0.
        -24    2    1    2    0    0 -0.28769181973E+02  0.43873695659E+02  0.41550137970E+03  0.42633020011E+03  0.79771398361E+02 0.  0.
        -13    1    3    3    0    0 -0.34266226155E+02  0.38273743379E+02 -0.25112411228E+03  0.25632474219E+03  0.00000000000E+00 0.  1.
         14    1    3    3    0    0 -0.81251193324E+02 -0.37409795016E+01 -0.97941222867E+03  0.98278383433E+03  0.00000000000E+00 0. -1.
         13    1    5    5    0    0 -0.36855380295E+01 -0.14158154469E+02  0.15311323873E+02  0.21177185065E+02  0.00000000000E+00 0. -1.
        -14    1    5    5    0    0 -0.25083643943E+02  0.58031850128E+02  0.40019005582E+03  0.40515301505E+03  0.00000000000E+00 0.  1.
          5    1    4    4  501    0  0.33814181671E+02  0.23282159158E+02  0.11622283009E+02  0.42871991783E+02  0.41800000000E+01 0. -1.
         -5    1    4    4    0  501  0.11047241978E+03 -0.10168861870E+03 -0.10766073050E+03  0.18480540034E+03  0.41800000000E+01 0. -1.
</event>
<event>
11    1  0.8299058E-009  0.1404989E+03  0.7561462E-02  0.1107003E+00
         22   -1    0    0    0    0  0.00000000000E+00  0.00000000000E+00  0.72653526027E+03  0.72653526027E+03  0.00000000000E+00 0. -1.
         22   -1    0    0    0    0 -0.00000000000E+00 -0.00000000000E+00 -0.69730109701E+03  0.69730109701E+03  0.00000000000E+00 0.  1.
        -24    2    1    2    0    0 -0.20631424576E+02  0.37676126492E+02 -0.56530796850E+03  0.57258182265E+03  0.80197868968E+02 0.  0.
         25    2    1    2    0    0  0.83016393579E+02 -0.47635205378E+02 -0.74773047955E+02  0.17435862599E+03  0.12509631234E+03 0.  0.
         24    2    1    2    0    0 -0.62384969003E+02  0.99590788857E+01  0.66931517972E+03  0.67689590865E+03  0.78830157535E+02 0.  0.
        -13    1    5    5    0    0 -0.27422212987E+02 -0.70327069102E+01  0.60014402748E+02  0.66356350629E+02  0.00000000000E+00 0.  1.
         14    1    5    5    0    0 -0.34962756016E+02  0.16991785796E+02  0.60930077697E+03  0.61053955802E+03  0.00000000000E+00 0. -1.
         11    1    3    3    0    0 -0.35783602404E+02 -0.12354984395E+02 -0.19982557867E+03  0.20337987543E+03  0.00000000000E+00 0. -1.
        -12    1    3    3    0    0  0.15152177828E+02  0.50031110887E+02 -0.36548238984E+03  0.36920194722E+03  0.00000000000E+00 0.  1.
          5    1    4    4  501    0  0.30965288803E+02 -0.60761019287E+02  0.14743219081E+02  0.69896963341E+02  0.41800000000E+01 0. -1.
         -5    1    4    4    0  501  0.52051104777E+02  0.13125813909E+02 -0.89516267036E+02  0.10446166265E+03  0.41800000000E+01 0. -1.
</event>
<event>
11    1  0.8299058E-009  0.1340031E+03  0.7561462E-02  0.1114446E+00
         22   -1    0    0    0    0  0.00000000000E+00  0.00000000000E+00  0.75404415803E+03  0.75404415803E+03  0.00000000000E+00 0. -1.
         22   -1    0    0    0    0 -0.00000000000E+00 -0.00000000000E+00 -0.18522334993E+03  0.18522334993E+03  0.00000000000E+00 0.  1.
         24    2    1    2    0    0 -0.86793066005E+01  0.50080041452E+02 -0.14201432168E+03  0.17363259928E+03  0.86005064125E+02 0.  0.
         25    2    1    2    0    0  0.18469996910E+02 -0.15390571665E+02  0.14499759668E+03  0.19299995983E+03  0.12508665384E+03 0.  0.
        -24    2    1    2    0    0 -0.97906903092E+01 -0.34689469786E+02  0.56583753310E+03  0.57263494886E+03  0.80246207755E+02 0.  0.
        -13    1    3    3    0    0  0.37790354192E+02  0.14065023813E+02 -0.68664687721E+02  0.79628984074E+02  0.00000000000E+00 0.  1.
         14    1    3    3    0    0 -0.46469660792E+02  0.36015017638E+02 -0.73349633963E+02  0.94003615208E+02  0.00000000000E+00 0. -1.
         13    1    5    5    0    0 -0.85767489055E+01 -0.34400902860E+02  0.56854732146E+03  0.56965168260E+03  0.00000000000E+00 0. -1.
        -14    1    5    5    0    0 -0.12139414037E+01 -0.28856692621E+00 -0.27097883658E+01  0.29832662620E+01  0.00000000000E+00 0.  1.
          5    1    4    4  501    0  0.14503871877E+02 -0.16392543178E+02  0.16789505604E+03  0.16936735227E+03  0.41800000000E+01 0.  1.
         -5    1    4    4    0  501  0.39661250328E+01  0.10019715130E+01 -0.22897459362E+02  0.23632607557E+02  0.41800000000E+01 0.  1.
</event>
<event>
11    1  0.8299058E-009  0.1286183E+03  0.7561462E-02  0.1120978E+00
         22   -1    0    0    0    0  0.00000000000E+00  0.00000000000E+00  0.82858392199E+02  0.82858392199E+02  0.00000000000E+00 0. -1.
         22   -1    0    0    0    0 -0.00000000000E+00 -0.00000000000E+00 -0.22966859155E+04  0.22966859155E+04  0.00000000000E+00 0.  1.
         24    2    1    2    0    0 -0.31095986286E+02  0.30470867874E+01 -0.17651281517E+04  0.17671793964E+04  0.79179427674E+02 0.  0.
         25    2    1    2    0    0  0.19966225918E+02  0.29306034606E+01 -0.50053308747E+03  0.51632227595E+03  0.12509229543E+03 0.  0.
        -24    2    1    2    0    0  0.11129760368E+02 -0.59776902479E+01  0.51833715866E+02  0.96042635428E+02  0.79861438585E+02 0.  0.
        -11    1    3    3    0    0 -0.51270663711E+02  0.13848286346E+02 -0.15344869774E+04  0.15354057249E+04  0.00000000000E+00 0.  1.
         12    1    3    3    0    0  0.20174677424E+02 -0.10801199558E+02 -0.23064117430E+03  0.23177367151E+03  0.00000000000E+00 0. -1.
         11    1    5    5    0    0  0.32829374589E+02  0.25571879313E+02  0.34300110160E+02  0.53927603363E+02  0.00000000000E+00 0. -1.
        -12    1    5    5    0    0 -0.21699614220E+02 -0.31549569561E+02  0.17533605706E+02  0.42115032065E+02  0.00000000000E+00 0.  1.
          5    1    4    4  501    0  0.78351699977E+01 -0.57315755751E+02 -0.15831734632E+03  0.16860705884E+03  0.41800000000E+01 0.  1.
         -5    1    4    4    0  501  0.12131055920E+02  0.60246359212E+02 -0.34221574115E+03  0.34771521710E+03  0.41800000000E+01 0.  1.
</event>
<event>
11    1  0.8299058E-009  0.1889946E+03  0.7561462E-02  0.1062591E+00
         22   -1    0    0    0    0  0.00000000000E+00  0.00000000000E+00  0.95139307806E+02  0.95139307806E+02  0.00000000000E+00 0. -1.
         22   -1    0    0    0    0 -0.00000000000E+00 -0.00000000000E+00 -0.30404155130E+04  0.30404155130E+04  0.00000000000E+00 0.  1.
        -24    2    1    2    0    0 -0.13732370897E+02 -0.67620535062E+02 -0.21623085796E+04  0.21649266925E+04  0.81043666121E+02 0.  0.
         25    2    1    2    0    0 -0.12919433090E+03  0.58840655138E+02 -0.78424055611E+03  0.80674262611E+03  0.12508803735E+03 0.  0.
         24    2    1    2    0    0  0.14292670179E+03  0.87798799236E+01  0.12729305672E+01  0.16388550213E+03  0.79697610245E+02 0.  0.
        -13    1    5    5    0    0  0.12134613161E+02 -0.22128761607E+02  0.14050084748E+02  0.28884871615E+02  0.00000000000E+00 0.  1.
         14    1    5    5    0    0  0.13079208863E+03  0.30908641530E+02 -0.12777154180E+02  0.13500063051E+03  0.00000000000E+00 0. -1.
         11    1    3    3    0    0 -0.46496000065E+02 -0.52329550302E+02 -0.13495610994E+04  0.13513753812E+04  0.00000000000E+00 0. -1.
        -12    1    3    3    0    0  0.32763629169E+02 -0.15290984760E+02 -0.81274748022E+03  0.81355131136E+03  0.00000000000E+00 0.  1.
          5    1    4    4  501    0 -0.12955713853E+03  0.29605575179E+02 -0.74923758812E+03  0.76094413598E+03  0.41800000000E+01 0. -1.
         -5    1    4    4    0  501  0.36280763324E+00  0.29235079960E+02 -0.35002967990E+02  0.45798490126E+02  0.41800000000E+01 0. -1.
</event>
<event>
11    1  0.8299058E-009  0.1256017E+03  0.7561462E-02  0.1124794E+00
         22   -1    0    0    0    0  0.00000000000E+00  0.00000000000E+00  0.54163187205E+03  0.54163187205E+03  0.00000000000E+00 0.  1.
         22   -1    0    0    0    0 -0.00000000000E+00 -0.00000000000E+00 -0.71291764134E+03  0.71291764134E+03  0.00000000000E+00 0. -1.
         24    2    1    2    0    0  0.56683241285E+01  0.96458491969E+01 -0.68742934825E+03  0.69225633574E+03  0.80836583483E+02 0.  0.
         25    2    1    2    0    0 -0.28856394582E+02 -0.17668918797E+02  0.21673893735E+03  0.25252118382E+03  0.12508516744E+03 0.  0.
        -24    2    1    2    0    0  0.23188070454E+02  0.80230696003E+01  0.29940464162E+03  0.30977199383E+03  0.75587647666E+02 0.  0.
        -11    1    3    3    0    0 -0.13679970646E+01 -0.32518687701E+02 -0.17164511875E+03  0.17470370132E+03  0.00000000000E+00 0.  1.
         12    1    3    3    0    0  0.70363211932E+01  0.42164536898E+02 -0.51578422950E+03  0.51755263442E+03  0.00000000000E+00 0. -1.
         11    1    5    5    0    0  0.92472691063E+00 -0.20242763842E+02  0.21487353635E+02  0.29535249687E+02  0.00000000000E+00 0. -1.
        -12    1    5    5    0    0  0.22263343543E+02  0.28265833443E+02  0.27791728798E+03  0.28023674414E+03  0.00000000000E+00 0.  1.
          5    1    4    4  501    0  0.32400869453E+02  0.17989625134E+02  0.15175165313E+03  0.15626733370E+03  0.41800000000E+01 0.  1.
         -5    1    4    4    0  501 -0.61257264035E+02 -0.35658543931E+02  0.64987284215E+02  0.96253850115E+02  0.41800000000E+01 0.  1.
</event>
<event>
11    1  0.8299058E-009  0.2213905E+03  0.7561462E-02  0.1040350E+00
         22   -1    0    0    0    0  0.00000000000E+00  0.00000000000E+00  0.51052446690E+03  0.51052446690E+03  0.00000000000E+00 0. -1.
         22   -1    0    0    0    0 -0.00000000000E+00 -0.00000000000E+00 -0.55156814565E+03  0.55156814565E+03  0.00000000000E+00 0.  1.
         24    2    1    2    0    0 -0.22285327227E+02 -0.41415746818E+02 -0.44742628653E+03  0.45698389892E+03  0.80200387184E+02 0.  0.
         25    2    1    2    0    0  0.13943272522E+03 -0.10560946047E+03  0.10176007961E+03  0.23789798255E+03  0.12508194633E+03 0.  0.
        -24    2    1    2    0    0 -0.11714739799E+03  0.14702520729E+03  0.30462252817E+03  0.36721073107E+03  0.81907947809E+02 0.  0.
        -13    1    3    3    0    0 -0.13474949273E+02 -0.34661553391E+02 -0.44372652033E+03  0.44528218287E+03  0.00000000000E+00 0.  1.
         14    1    3    3    0    0 -0.88103779544E+01 -0.67541934274E+01 -0.36997661980E+01  0.11701716048E+02  0.00000000000E+00 0. -1.
         13    1    5    5    0    0 -0.90787665156E+02  0.10954090140E+03  0.28254793259E+03  0.31634623980E+03  0.00000000000E+00 0. -1.
        -14    1    5    5    0    0 -0.26359732836E+02  0.37484305885E+02  0.22074595582E+02  0.50864491278E+02  0.00000000000E+00 0.  1.
          5    1    4    4  501    0  0.14349452965E+03 -0.98926503802E+02  0.44465986628E+02  0.17992173177E+03  0.41800000000E+01 0.  1.
         -5    1    4    4    0  501 -0.40618044340E+01 -0.66829566664E+01  0.57294092978E+02  0.57976250786E+02  0.41800000000E+01 0.  1.
</event>
<event>
11    1  0.8299058E-009  0.1274634E+03  0.7561462E-02  0.1122426E+00
         22   -1    0    0    0    0  0.00000000000E+00  0.00000000000E+00  0.54979882098E+03  0.54979882098E+03  0.00000000000E+00 0. -1.
         22   -1    0    0    0    0 -0.00000000000E+00 -0.00000000000E+00 -0.31211231470E+03  0.31211231470E+03  0.00000000000E+00 0. -1.
         24    2    1    2    0    0 -0.17073414931E+02 -0.55716956191E+00 -0.27651519254E+03  0.28848843346E+03  0.80455656110E+02 0.  0.
         25    2    1    2    0    0  0.22586404765E+02  0.23553803482E+02  0.14302741428E+03  0.19278962810E+03  0.12508426012E+03 0.  0.
        -24    2    1    2    0    0 -0.55129898348E+01 -0.22996633920E+02  0.37117428454E+03  0.38063307412E+03  0.80944112708E+02 0.  0.
        -13    1    3    3    0    0 -0.28406273419E+02  0.33775265168E+02 -0.12017792361E+03  0.12802506876E+03  0.00000000000E+00 0.  1.
         14    1    3    3    0    0  0.11332858489E+02 -0.34332434730E+02 -0.15633726893E+03  0.16046336470E+03  0.00000000000E+00 0. -1.
         11    1    5    5    0    0  0.36181696196E+02 -0.13295213741E+02  0.22655855359E+03  0.22981439479E+03  0.00000000000E+00 0. -1.
        -12    1    5    5    0    0 -0.41694686031E+02 -0.97014201794E+01  0.14461573096E+03  0.15081867934E+03  0.00000000000E+00 0.  1.
          5    1    4    4  501    0  0.70801050775E+02  0.20513070110E+02  0.11535250179E+03  0.13695709878E+03  0.41800000000E+01 0. -1.
         -5    1    4    4    0  501 -0.48214646010E+02  0.30407333727E+01  0.27674912486E+02  0.55832529321E+02  0.41800000000E+01 0. -1.
</event>
<event>
11    1  0.8299058E-009  0.1351895E+03  0.7561462E-02  0.1113052E+00
         22   -1    0    0    0    0  0.00000000000E+00  0.00000000000E+00  0.20089483607E+04  0.20089483607E+04  0.00000000000E+00 0. -1.
         22   -1    0    0    0    0 -0.00000000000E+00 -0.00000000000E+00 -0.27626597763E+03  0.27626597763E+03  0.00000000000E+00 0. -1.
        -24    2    1    2    0    0  0.51806165240E+01  0.91695560023E+01 -0.26138238906E+03  0.27390531335E+03  0.81193890326E+02 0.  0.
         25    2    1    2    0    0  0.24105946506E+02  0.35425764296E+02  0.62484858990E+03  0.63868523891E+03  0.12508793974E+03 0.  0.
         24    2    1    2    0    0 -0.29286563030E+02 -0.44595320299E+02  0.13692161822E+04  0.13726237860E+04  0.80601855125E+02 0.  0.
        -13    1    5    5    0    0 -0.30919748987E+02 -0.63213964686E+02  0.79645939426E+03  0.79956213199E+03  0.00000000000E+00 0.  1.
         14    1    5    5    0    0  0.16331859572E+01  0.18618644387E+02  0.57275678792E+03  0.57306165403E+03  0.00000000000E+00 0. -1.
         11    1    3    3    0    0 -0.22004845388E+02 -0.28100948063E+02 -0.11882621327E+03  0.12407072766E+03  0.00000000000E+00 0. -1.
        -12    1    3    3    0    0  0.27185461912E+02  0.37270504065E+02 -0.14255617579E+03  0.14983458569E+03  0.00000000000E+00 0.  1.
          5    1    4    4  501    0  0.66032549715E+02 -0.11468199051E+02  0.26626952946E+03  0.27460654022E+03  0.41800000000E+01 0. -1.
         -5    1    4    4    0  501 -0.41926603210E+02  0.46893963347E+02  0.35857906044E+03  0.36407869869E+03  0.41800000000E+01 0. -1.
</event>
<event>
11    1  0.8299058E-009  0.4188178E+03  0.7561462E-02  0.9595811E-01
         22   -1    0    0    0    0  0.00000000000E+00  0.00000000000E+00  0.77221530838E+02  0.77221530838E+02  0.00000000000E+00 0. -1.
         22   -1    0    0    0    0 -0.00000000000E+00 -0.00000000000E+00 -0.56787376018E+03  0.56787376018E+03  0.00000000000E+00 0.  1.
         24    2    1    2    0    0  0.58793936670E+02 -0.15889552728E+02 -0.18798841451E+03  0.21382077081E+03  0.81672964712E+02 0.  0.
         25    2    1    2    0    0 -0.13718697911E+03  0.42920666437E+02 -0.20343491071E+03  0.27873756033E+03  0.12508562587E+03 0.  0.
        -24    2    1    2    0    0  0.78393042440E+02 -0.27031113709E+02 -0.99228904124E+02  0.15253695988E+03  0.80901165035E+02 0.  0.
        -13    1    3    3    0    0  0.43922764070E+02 -0.90129356077E+01 -0.19182318989E+03  0.19699385369E+03  0.00000000000E+00 0.  1.
         14    1    3    3    0    0  0.14871172600E+02 -0.68766171208E+01  0.38347753816E+01  0.16826917119E+02  0.00000000000E+00 0. -1.
         11    1    5    5    0    0  0.81790917204E+02  0.40571281076E+01 -0.85473869810E+02  0.11837228073E+03  0.00000000000E+00 0. -1.
        -12    1    5    5    0    0 -0.33978747640E+01 -0.31088241817E+02 -0.13755034314E+02  0.34164679146E+02  0.00000000000E+00 0.  1.
          5    1    4    4  501    0  0.30421048277E+01 -0.30903421259E+02 -0.25263250085E+02  0.40248975790E+02  0.41800000000E+01 0. -1.
         -5    1    4    4    0  501 -0.14022908394E+03  0.73824087697E+02 -0.17817166062E+03  0.23848858454E+03  0.41800000000E+01 0. -1.
</event>
<event>
11    1  0.8299058E-009  0.2066687E+03  0.7561462E-02  0.1049906E+00
         22   -1    0    0    0    0  0.00000000000E+00  0.00000000000E+00  0.67824521285E+03  0.67824521285E+03  0.00000000000E+00 0.  1.
         22   -1    0    0    0    0 -0.00000000000E+00 -0.00000000000E+00 -0.12309372243E+04  0.12309372243E+04  0.00000000000E+00 0. -1.
        -24    2    1    2    0    0 -0.14031424460E+03 -0.49427641061E+02 -0.68812892667E+03  0.70892476236E+03  0.83196875071E+02 0.  0.
         25    2    1    2    0    0  0.18291662901E+03  0.10093099853E+03 -0.50001897614E+03  0.55615736160E+03  0.12508586942E+03 0.  0.
         24    2    1    2    0    0 -0.42602384403E+02 -0.51503357472E+02  0.63545589139E+03  0.64410031317E+03  0.81200151037E+02 0.  0.
        -13    1    5    5    0    0 -0.59004575092E+02 -0.47786423172E+02  0.34960663652E+03  0.35775673637E+03  0.00000000000E+00 0.  1.
         14    1    5    5    0    0  0.16402190689E+02 -0.37169343006E+01  0.28584925488E+03  0.28634357680E+03  0.00000000000E+00 0. -1.
         13    1    3    3    0    0 -0.87830614646E+02 -0.48552269067E+02 -0.28014871438E+03  0.29758165580E+03  0.00000000000E+00 0. -1.
        -14    1    3    3    0    0 -0.52483629959E+02 -0.87537199439E+00 -0.40798021230E+03  0.41134310656E+03  0.00000000000E+00 0.  1.
          5    1    4    4  501    0 -0.16689323000E+02 -0.43095416250E+01 -0.32993637744E+02  0.37458753087E+02  0.41800000000E+01 0.  1.
         -5    1    4    4    0  501  0.19960595201E+03  0.10524054016E+03 -0.46702533839E+03  0.51869860851E+03  0.41800000000E+01 0.  1.
</event>
<event>
11    1  0.8299058E-009  0.1478238E+03  0.7561462E-02  0.1099123E+00
         22   -1    0    0    0    0  0.00000000000E+00  0.00000000000E+00  0.83948576266E+03  0.83948576266E+03  0.00000000000E+00 0. -1.
         22   -1    0    0    0    0 -0.00000000000E+00 -0.00000000000E+00 -0.93738787603E+02  0.93738787603E+02  0.00000000000E+00 0. -1.
         24    2    1    2    0    0  0.50606699142E+02  0.60106669646E+02  0.21621561642E+01  0.13281934025E+03  0.10706284365E+03 0.  0.
         25    2    1    2    0    0 -0.22849776265E+02 -0.82187176066E+02  0.20415139573E+03  0.25417081110E+03  0.12509262429E+03 0.  0.
        -24    2    1    2    0    0 -0.27756922877E+02  0.22080506420E+02  0.53943342317E+03  0.54623439892E+03  0.78266244312E+02 0.  0.
        -13    1    3    3    0    0 -0.27677492617E+02  0.24587745668E+02 -0.22580225639E+02  0.43364356613E+02  0.00000000000E+00 0.  1.
         14    1    3    3    0    0  0.78284191759E+02  0.35518923978E+02  0.24742381803E+02  0.89454983635E+02  0.00000000000E+00 0. -1.
         11    1    5    5    0    0 -0.23621717134E+02  0.44737404222E+02  0.47723197825E+03  0.47990601363E+03  0.00000000000E+00 0. -1.
        -12    1    5    5    0    0 -0.41352057430E+01 -0.22656897802E+02  0.62201444920E+02  0.66328385287E+02  0.00000000000E+00 0.  1.
          5    1    4    4  501    0  0.10284264480E+02 -0.10767388354E+03  0.13230156786E+03  0.17094036548E+03  0.41800000000E+01 0.  1.
         -5    1    4    4    0  501 -0.33134040745E+02  0.25486707470E+02  0.71849827862E+02  0.83230445617E+02  0.41800000000E+01 0.  1.
</event>
<event>
11    1  0.8299058E-009  0.1814688E+03  0.7561462E-02  0.1068461E+00
         22   -1    0    0    0    0  0.00000000000E+00  0.00000000000E+00  0.39510740596E+03  0.39510740596E+03  0.00000000000E+00 0.  1.
         22   -1    0    0    0    0 -0.00000000000E+00 -0.00000000000E+00 -0.74598333816E+03  0.74598333816E+03  0.00000000000E+00 0. -1.
        -24    2    1    2    0    0  0.94688386927E+02 -0.48478381337E+02 -0.54853668141E+03  0.56448906240E+03  0.80245664342E+02 0.  0.
         25    2    1    2    0    0  0.45305196336E+02  0.55657777994E+02 -0.14088848838E+03  0.20163685626E+03  0.12512995875E+03 0.  0.
         24    2    1    2    0    0 -0.13999358326E+03 -0.71793966568E+01  0.33854923759E+03  0.37496482546E+03  0.79581951269E+02 0.  0.
        -13    1    5    5    0    0 -0.11896598140E+03 -0.33140162371E+01  0.18527111064E+03  0.22020279714E+03  0.00000000000E+00 0.  1.
         14    1    5    5    0    0 -0.21027601867E+02 -0.38653804197E+01  0.15327812696E+03  0.15476202832E+03  0.00000000000E+00 0. -1.
         13    1    3    3    0    0  0.85190342637E+02 -0.67039713534E+02 -0.39738207326E+03  0.41190318015E+03  0.00000000000E+00 0. -1.
        -14    1    3    3    0    0  0.94980442904E+01  0.18561332197E+02 -0.15115460815E+03  0.15258588225E+03  0.00000000000E+00 0.  1.
          5    1    4    4  501    0  0.81670498088E+02  0.64687572497E+01 -0.69358897440E+02  0.10742459743E+03  0.41800000000E+01 0. -1.
         -5    1    4    4    0  501 -0.36365301752E+02  0.49189020744E+02 -0.71529590942E+02  0.94212258829E+02  0.41800000000E+01 0. -1.
</event>
<event>
11    1  0.8299058E-009  0.6413717E+03  0.7561462E-02  0.9123462E-01
         22   -1    0    0    0    0  0.00000000000E+00  0.00000000000E+00  0.14641355249E+04  0.14641355249E+04  0.00000000000E+00 0. -1.
         22   -1    0    0    0    0 -0.00000000000E+00 -0.00000000000E+00 -0.43381930245E+03  0.43381930245E+03  0.00000000000E+00 0. -1.
        -24    2    1    2    0    0 -0.19256483092E+03  0.51449533150E+03  0.45978882851E+03  0.72102295165E+03  0.81741481205E+02 0.  0.
         25    2    1    2    0    0  0.45781283674E+03 -0.55540558816E+03  0.30833208401E+03  0.79295931957E+03  0.12509135715E+03 0.  0.
         24    2    1    2    0    0 -0.26524800582E+03  0.40910256657E+02  0.26219530994E+03  0.38397255612E+03  0.81598955916E+02 0.  0.
        -11    1    5    5    0    0 -0.16162004736E+03  0.44079085029E+01  0.10721535031E+03  0.19399897089E+03  0.00000000000E+00 0.  1.
         12    1    5    5    0    0 -0.10362795846E+03  0.36502348154E+02  0.15497995963E+03  0.18997358522E+03  0.00000000000E+00 0. -1.
         13    1    3    3    0    0 -0.17739781004E+03  0.43496289803E+03  0.35609034696E+03  0.58945995697E+03  0.00000000000E+00 0. -1.
        -14    1    3    3    0    0 -0.15167020881E+02  0.79532433473E+02  0.10369848155E+03  0.13156299469E+03  0.00000000000E+00 0.  1.
          5    1    4    4  501    0  0.27434604097E+03 -0.23486543722E+03  0.14876895428E+03  0.39061131314E+03  0.41800000000E+01 0. -1.
         -5    1    4    4    0  501  0.18346679577E+03 -0.32054015094E+03  0.15956312973E+03  0.40234800644E+03  0.41800000000E+01 0. -1.
</event>
<event>
11    1  0.8299058E-009  0.1814863E+03  0.7561462E-02  0.1068447E+00
         22   -1    0    0    0    0  0.00000000000E+00  0.00000000000E+00  0.99376844168E+03  0.99376844168E+03  0.00000000000E+00 0.  1.
         22   -1    0    0    0    0 -0.00000000000E+00 -0.00000000000E+00 -0.29246787424E+03  0.29246787424E+03  0.00000000000E+00 0.  1.
         24    2    1    2    0    0 -0.13707336954E+03  0.92098796913E+01 -0.17957054975E+03  0.23987561953E+03  0.80129894458E+02 0.  0.
         25    2    1    2    0    0  0.11439482187E+03  0.30313782558E+02  0.12033477581E+02  0.17261870868E+03  0.12508922144E+03 0.  0.
        -24    2    1    2    0    0  0.22678547673E+02 -0.39523662249E+02  0.86883763962E+03  0.87374198770E+03  0.80434946711E+02 0.  0.
        -11    1    3    3    0    0 -0.65259584494E+02  0.38010217334E+02 -0.55759223083E+02  0.93875880550E+02  0.00000000000E+00 0.  1.
         12    1    3    3    0    0 -0.71813785049E+02 -0.28800337643E+02 -0.12381132667E+03  0.14599973898E+03  0.00000000000E+00 0. -1.
         11    1    5    5    0    0  0.30599073578E+02  0.14285667719E+01  0.12364885505E+03  0.12738674760E+03  0.00000000000E+00 0. -1.
        -12    1    5    5    0    0 -0.79205259055E+01 -0.40952229021E+02  0.74518878457E+03  0.74635524011E+03  0.00000000000E+00 0.  1.
          5    1    4    4  501    0 -0.54160620656E+01 -0.30770252976E+02  0.20830564999E+02  0.37782628742E+02  0.41800000000E+01 0.  1.
         -5    1    4    4    0  501  0.11981088394E+03  0.61084035533E+02 -0.87970874177E+01  0.13483607994E+03  0.41800000000E+01 0.  1.
</event>
<event>
11    1  0.8299058E-009  0.1432490E+03  0.7561462E-02  0.1103984E+00
         22   -1    0    0    0    0  0.00000000000E+00  0.00000000000E+00  0.15472828770E+03  0.15472828770E+03  0.00000000000E+00 0. -1.
         22   -1    0    0    0    0 -0.00000000000E+00 -0.00000000000E+00 -0.72689459750E+03  0.72689459750E+03  0.00000000000E+00 0.  1.
         24    2    1    2    0    0  0.57366483957E+02 -0.36263304950E+02 -0.29358925754E+03  0.31275762309E+03  0.83765970968E+02 0.  0.
         25    2    1    2    0    0 -0.71864436791E+02  0.18994918894E+02 -0.39745538336E+03  0.42325268644E+03  0.12508697214E+03 0.  0.
        -24    2    1    2    0    0  0.14497952833E+02  0.17268386056E+02  0.11887833110E+03  0.14561257567E+03  0.81009732707E+02 0.  0.
        -13    1    3    3    0    0  0.46423847485E+02 -0.56142225162E+02 -0.27144773396E+03  0.28105336741E+03  0.00000000000E+00 0.  1.
         14    1    3    3    0    0  0.10942636473E+02  0.19878920212E+02 -0.22141523576E+02  0.31704255677E+02  0.00000000000E+00 0. -1.
         11    1    5    5    0    0  0.38089041274E+01  0.48245725097E+02  0.88800062361E+02  0.10113164102E+03  0.00000000000E+00 0. -1.
        -12    1    5    5    0    0  0.10689048706E+02 -0.30977339041E+02  0.30078268744E+02  0.44480934645E+02  0.00000000000E+00 0.  1.
          5    1    4    4  501    0 -0.57039219182E+01 -0.20568857542E+02 -0.29067500602E+03  0.29148763979E+03  0.41800000000E+01 0.  1.
         -5    1    4    4    0  501 -0.66160514873E+02  0.39563776436E+02 -0.10678037735E+03  0.13176504666E+03  0.41800000000E+01 0.  1.
</event>
<event>
11    1  0.8299058E-009  0.1772142E+03  0.7561462E-02  0.1071919E+00
         22   -1    0    0    0    0  0.00000000000E+00  0.00000000000E+00  0.73886856261E+03  0.73886856261E+03  0.00000000000E+00 0. -1.
         22   -1    0    0    0    0 -0.00000000000E+00 -0.00000000000E+00 -0.54986360612E+03  0.54986360612E+03  0.00000000000E+00 0. -1.
         24    2    1    2    0    0  0.12488022175E+03  0.98609637249E+00 -0.18615747790E+03  0.23598064122E+03  0.73730687509E+02 0.  0.
         25    2    1    2    0    0 -0.10346118378E+03 -0.10730050436E+03 -0.30357726866E+03  0.36058932134E+03  0.12509150982E+03 0.  0.
        -24    2    1    2    0    0 -0.21419037975E+02  0.10631440799E+03  0.67873970305E+03  0.69216220617E+03  0.81482554067E+02 0.  0.
        -13    1    3    3    0    0  0.34296843896E+02 -0.20040897712E+02 -0.10603932221E+03  0.11323536964E+03  0.00000000000E+00 0.  1.
         14    1    3    3    0    0  0.90583377858E+02  0.21026994084E+02 -0.80118155691E+02  0.12274527158E+03  0.00000000000E+00 0. -1.
         13    1    5    5    0    0  0.93711445012E+00  0.76469613062E+02  0.60204501788E+03  0.60688275924E+03  0.00000000000E+00 0. -1.
        -14    1    5    5    0    0 -0.22356152425E+02  0.29844794928E+02  0.76694685171E+02  0.85279446932E+02  0.00000000000E+00 0.  1.
          5    1    4    4  501    0 -0.12439924492E+03 -0.95718763380E+02 -0.20038004541E+03  0.25457197175E+03  0.41800000000E+01 0. -1.
         -5    1    4    4    0  501  0.20938061139E+02 -0.11581740984E+02 -0.10319722325E+03  0.10601734959E+03  0.41800000000E+01 0. -1.
</event>
<event>
11    1  0.8299058E-009  0.1695486E+03  0.7561462E-02  0.1078425E+00
         22   -1    0    0    0    0  0.00000000000E+00  0.00000000000E+00  0.73900671119E+02  0.73900671119E+02  0.00000000000E+00 0. -1.
         22   -1    0    0    0    0 -0.00000000000E+00 -0.00000000000E+00 -0.15429837766E+04  0.15429837766E+04  0.00000000000E+00 0.  1.
         24    2    1    2    0    0  0.81453300381E+02  0.78453133523E+02 -0.12636523792E+04  0.12712969583E+04  0.81173187194E+02 0.  0.
         25    2    1    2    0    0 -0.11208719840E+03 -0.72638913645E+02 -0.13067722412E+03  0.22486001891E+03  0.12508213053E+03 0.  0.
        -24    2    1    2    0    0  0.30633898024E+02 -0.58142198780E+01 -0.74753502136E+02  0.12072747053E+03  0.89525388562E+02 0.  0.
        -13    1    3    3    0    0  0.95051823240E+02  0.66526882782E+02 -0.93888253226E+03  0.94602382878E+03  0.00000000000E+00 0.  1.
         14    1    3    3    0    0 -0.13598522859E+02  0.11926250741E+02 -0.32476984698E+03  0.32527312952E+03  0.00000000000E+00 0. -1.
         11    1    5    5    0    0  0.52724270318E+02 -0.10486403975E+02 -0.13472993318E+02  0.55419625566E+02  0.00000000000E+00 0. -1.
        -12    1    5    5    0    0 -0.22090372294E+02  0.46721840973E+01 -0.61280508818E+02  0.65307844960E+02  0.00000000000E+00 0.  1.
          5    1    4    4  501    0 -0.72883963721E+01 -0.57625454345E+02 -0.97977418799E+02  0.11397745700E+03  0.41800000000E+01 0. -1.
         -5    1    4    4    0  501 -0.10479880203E+03 -0.15013459300E+02 -0.32699805326E+02  0.11088256191E+03  0.41800000000E+01 0. -1.
</event>
<event>
11    1  0.8299058E-009  0.1358728E+03  0.7561462E-02  0.1112257E+00
         22   -1    0    0    0    0  0.00000000000E+00  0.00000000000E+00  0.11425011468E+04  0.11425011468E+04  0.00000000000E+00 0.  1.
         22   -1    0    0    0    0 -0.00000000000E+00 -0.00000000000E+00 -0.61266991218E+03  0.61266991218E+03  0.00000000000E+00 0.  1.
        -24    2    1    2    0    0 -0.41597978270E+02 -0.79868589573E-01 -0.50471333337E+03  0.51280918005E+03  0.80667887625E+02 0.  0.
         25    2    1    2    0    0  0.91041757994E+02  0.16966721268E+02 -0.42280892382E+02  0.16127817112E+03  0.12508598359E+03 0.  0.
         24    2    1    2    0    0 -0.49443779724E+02 -0.16886852678E+02  0.10768254604E+04  0.10810837078E+04  0.80368265197E+02 0.  0.
        -11    1    5    5    0    0 -0.52084426362E+02  0.18432476215E+02  0.81544212169E+03  0.81731168930E+03  0.00000000000E+00 0.  1.
         12    1    5    5    0    0  0.26406466382E+01 -0.35319328894E+02  0.26138333872E+03  0.26377201854E+03  0.00000000000E+00 0. -1.
         13    1    3    3    0    0 -0.20339960126E+02  0.39068368679E+02 -0.19528662845E+03  0.20019220430E+03  0.00000000000E+00 0. -1.
        -14    1    3    3    0    0 -0.21258018144E+02 -0.39148237269E+02 -0.30942670492E+03  0.31261697576E+03  0.00000000000E+00 0.  1.
          5    1    4    4  501    0  0.91076191069E+02 -0.20670394691E+02  0.12880696613E+02  0.94369076193E+02  0.41800000000E+01 0.  1.
         -5    1    4    4    0  501 -0.34433074421E-01  0.37637115959E+02 -0.55161588995E+02  0.66909094926E+02  0.41800000000E+01 0.  1.
</event>
<event>
11    1  0.8299058E-009  0.1759367E+03  0.7561462E-02  0.1072978E+00
         22   -1    0    0    0    0  0.00000000000E+00  0.00000000000E+00  0.51920148181E+03  0.51920148181E+03  0.00000000000E+00 0.  1.
         22   -1    0    0    0    0 -0.00000000000E+00 -0.00000000000E+00 -0.64539401972E+03  0.64539401972E+03  0.00000000000E+00 0.  1.
         24    2    1    2    0    0 -0.10427725576E+03  0.45924628429E+02 -0.41365274818E+03  0.43635602582E+03  0.79468028979E+02 0.  0.
         25    2    1    2    0    0  0.13567946515E+03 -0.11155115062E+03 -0.15856859822E+03  0.26766391569E+03  0.12508954774E+03 0.  0.
        -24    2    1    2    0    0 -0.31402209389E+02  0.65626522190E+02  0.44602880848E+03  0.46057556002E+03  0.88854990426E+02 0.  0.
        -13    1    3    3    0    0 -0.69316941661E+02  0.53243050944E+02 -0.36881511640E+03  0.37903067285E+03  0.00000000000E+00 0.  1.
         14    1    3    3    0    0 -0.34960314096E+02 -0.73184225152E+01 -0.44837631776E+02  0.57325352969E+02  0.00000000000E+00 0. -1.
         13    1    5    5    0    0 -0.59305366614E+02  0.62835243794E+02  0.31952778974E+03  0.33100362957E+03  0.00000000000E+00 0. -1.
        -14    1    5    5    0    0  0.27903157225E+02  0.27912783963E+01  0.12650101875E+03  0.12957193046E+03  0.00000000000E+00 0.  1.
          5    1    4    4  501    0  0.11186974172E+03 -0.19544136698E+02 -0.52490491143E+02  0.12517801905E+03  0.41800000000E+01 0. -1.
         -5    1    4    4    0  501  0.23809723422E+02 -0.92007013921E+02 -0.10607810708E+03  0.14248589664E+03  0.41800000000E+01 0. -1.
</event>
<event>
11    1  0.8299058E-009  0.1366364E+03  0.7561462E-02  0.1111374E+00
         22   -1    0    0    0    0  0.00000000000E+00  0.00000000000E+00  0.30735625195E+04  0.30735625195E+04  0.00000000000E+00 0. -1.
         22   -1    0    0    0    0 -0.00000000000E+00 -0.00000000000E+00 -0.12132762680E+03  0.12132762680E+03  0.00000000000E+00 0. -1.
         24    2    1    2    0    0 -0.44754068531E+02  0.31326902135E+02 -0.80966774606E+02  0.12628551311E+03  0.80050676352E+02 0.  0.
         25    2    1    2    0    0  0.50704787086E+02 -0.31225233912E+02  0.26337695378E+03  0.29758875850E+03  0.12508260766E+03 0.  0.
        -24    2    1    2    0    0 -0.59507185555E+01 -0.10166822244E+00  0.27698247135E+04  0.27710158747E+04  0.81022297596E+02 0.  0.
        -11    1    3    3    0    0 -0.15627598974E+02 -0.17303393151E+02  0.44832922592E+01  0.23742981567E+02  0.00000000000E+00 0.  1.
         12    1    3    3    0    0 -0.29126469557E+02  0.48630295285E+02 -0.85450066865E+02  0.10254253154E+03  0.00000000000E+00 0. -1.
         11    1    5    5    0    0 -0.34560264632E+02  0.13332900187E+01  0.23313118151E+04  0.23315683495E+04  0.00000000000E+00 0. -1.
        -12    1    5    5    0    0  0.28609546077E+02 -0.14349582411E+01  0.43851289847E+03  0.43944752514E+03  0.00000000000E+00 0.  1.
          5    1    4    4  501    0 -0.10096414249E+02 -0.38894531505E+02  0.17278274629E+02  0.43940110785E+02  0.41800000000E+01 0.  1.
         -5    1    4    4    0  501  0.60801201336E+02  0.76692975926E+01  0.24609867915E+03  0.25364864772E+03  0.41800000000E+01 0.  1.
</event>
<event>
11    1  0.8299058E-009  0.1828856E+03  0.7561462E-02  0.1067332E+00
         22   -1    0    0    0    0  0.00000000000E+00  0.00000000000E+00  0.71197618601E+03  0.71197618601E+03  0.00000000000E+00 0. -1.
         22   -1    0    0    0    0 -0.00000000000E+00 -0.00000000000E+00 -0.27315863407E+04  0.27315863407E+04  0.00000000000E+00 0. -1.
        -24    2    1    2    0    0 -0.53217822248E+02  0.12928512414E+03 -0.22958652205E+04  0.23018072378E+04  0.88162743246E+02 0.  0.
         25    2    1    2    0    0  0.63373137071E+02 -0.81971006124E+02 -0.41427949940E+03  0.44498330702E+03  0.12508892657E+03 0.  0.
         24    2    1    2    0    0 -0.10155314823E+02 -0.47314118013E+02  0.69053456521E+03  0.69677198192E+03  0.79444652744E+02 0.  0.
        -13    1    5    5    0    0 -0.29454907604E+02 -0.22908121958E+02  0.12672475293E+03  0.13210426427E+03  0.00000000000E+00 0.  1.
         14    1    5    5    0    0  0.19299592782E+02 -0.24405996055E+02  0.56380981229E+03  0.56466771765E+03  0.00000000000E+00 0. -1.
         11    1    3    3    0    0 -0.33318980673E+02  0.12283991718E+03 -0.22003726911E+04  0.22040507661E+04  0.00000000000E+00 0. -1.
        -12    1    3    3    0    0 -0.19898841575E+02  0.64452069533E+01 -0.95492529341E+02  0.97756471646E+02  0.00000000000E+00 0.  1.
          5    1    4    4  501    0 -0.38159790607E+02 -0.26405008339E+02 -0.11604025366E+03  0.12504481978E+03  0.41800000000E+01 0. -1.
         -5    1    4    4    0  501  0.10153292768E+03 -0.55565997786E+02 -0.29823924574E+03  0.31993848724E+03  0.41800000000E+01 0. -1.
</event>
<event>
11    1  0.8299058E-009  0.1556795E+03  0.7561462E-02  0.1091213E+00
         22   -1    0    0    0    0  0.00000000000E+00  0.00000000000E+00  0.16353855976E+03  0.16353855976E+03  0.00000000000E+00 0. -1.
         22   -1    0    0    0    0 -0.00000000000E+00 -0.00000000000E+00 -0.74847285806E+03  0.74847285806E+03  0.00000000000E+00 0.  1.
        -24    2    1    2    0    0 -0.58051713258E+02 -0.82753760907E+02 -0.41131307091E+03  0.43074818633E+03  0.78405174376E+02 0.  0.
         25    2    1    2    0    0  0.38219422614E+01  0.85991854708E+02 -0.29179781215E+03  0.32894304614E+03  0.12509339754E+03 0.  0.
         24    2    1    2    0    0  0.54229770996E+02 -0.32380938011E+01  0.11817658476E+03  0.15232018535E+03  0.79274083824E+02 0.  0.
        -11    1    5    5    0    0  0.41086396616E+02  0.34117392022E+02  0.48321163938E+02  0.72020992145E+02  0.00000000000E+00 0.  1.
         12    1    5    5    0    0  0.13143374381E+02 -0.37355485823E+02  0.69855420826E+02  0.80299193209E+02  0.00000000000E+00 0. -1.
         11    1    3    3    0    0 -0.70825194615E+02 -0.41377303030E+02 -0.22548002524E+03  0.23993651489E+03  0.00000000000E+00 0. -1.
        -12    1    3    3    0    0  0.12773481357E+02 -0.41376457877E+02 -0.18583304567E+03  0.19081167144E+03  0.00000000000E+00 0.  1.
          5    1    4    4  501    0 -0.43974247154E+01  0.78002887399E+02 -0.64720435918E+02  0.10153814560E+03  0.41800000000E+01 0. -1.
         -5    1    4    4    0  501  0.82193669768E+01  0.79889673096E+01 -0.22707737623E+03  0.22740490054E+03  0.41800000000E+01 0. -1.
</event>
<event>
11    1  0.8299058E-009  0.1431592E+03  0.7561462E-02  0.1104081E+00
         22   -1    0    0    0    0  0.00000000000E+00  0.00000000000E+00  0.78831106703E+03  0.78831106703E+03  0.00000000000E+00 0.  1.
         22   -1    0    0    0    0 -0.00000000000E+00 -0.00000000000E+00 -0.58729864808E+03  0.58729864808E+03  0.00000000000E+00 0. -1.
         24    2    1    2    0    0 -0.15466397003E+02  0.12711289875E+02 -0.30657898849E+03  0.31771072499E+03  0.80923681715E+02 0.  0.
         25    2    1    2    0    0  0.84869000383E+02 -0.13945840936E+02 -0.25029864760E+03  0.29273555846E+03  0.12508980970E+03 0.  0.
        -24    2    1    2    0    0 -0.69402603379E+02  0.12345510611E+01  0.75789005504E+03  0.76516343166E+03  0.79116977618E+02 0.  0.
        -11    1    3    3    0    0  0.14168891362E+02 -0.15378047066E+02 -0.22979996085E+03  0.23074935281E+03  0.00000000000E+00 0.  1.
         12    1    3    3    0    0 -0.29635288366E+02  0.28089336940E+02 -0.76779027637E+02  0.86961372179E+02  0.00000000000E+00 0. -1.
         11    1    5    5    0    0 -0.84217029697E+02  0.13584641308E+02  0.64842064546E+03  0.65400793881E+03  0.00000000000E+00 0. -1.
        -12    1    5    5    0    0  0.14814426318E+02 -0.12350090247E+02  0.10946940958E+03  0.11115549285E+03  0.00000000000E+00 0.  1.
          5    1    4    4  501    0  0.84946677820E+01  0.45865529225E+02 -0.41954719559E+02  0.62876681251E+02  0.41800000000E+01 0. -1.
         -5    1    4    4    0  501  0.76374332601E+02 -0.59811370161E+02 -0.20834392804E+03  0.22985887721E+03  0.41800000000E+01 0. -1.
</event>
<event>
11    1  0.8299058E-009  0.1356919E+03  0.7561462E-02  0.1112467E+00
         22   -1    0    0    0    0  0.00000000000E+00  0.00000000000E+00  0.13521213333E+04  0.13521213333E+04  0.00000000000E+00 0. -1.
         22   -1    0    0    0    0 -0.00000000000E+00 -0.00000000000E+00 -0.45347410740E+03  0.45347410740E+03  0.00000000000E+00 0.  1.
         24    2    1    2    0    0  0.48075094996E+02  0.56082439903E+01 -0.42625958474E+03  0.43643004836E+03  0.80195301400E+02 0.  0.
         25    2    1    2    0    0 -0.32262935883E+02  0.46350096710E+02  0.21615900087E+03  0.25604939296E+03  0.12508936597E+03 0.  0.
        -24    2    1    2    0    0 -0.15812159114E+02 -0.51958340700E+02  0.11087478098E+04  0.11131159994E+04  0.82193849396E+02 0.  0.
        -11    1    3    3    0    0  0.58774204160E+02 -0.21878152959E+02 -0.32341860247E+03  0.32944294358E+03  0.00000000000E+00 0.  1.
         12    1    3    3    0    0 -0.10699109163E+02  0.27486396950E+02 -0.10284098227E+03  0.10698710478E+03  0.00000000000E+00 0. -1.
         11    1    5    5    0    0 -0.11645388416E+02 -0.72770501389E+02  0.96495507368E+03  0.96776518596E+03  0.00000000000E+00 0. -1.
        -12    1    5    5    0    0 -0.41667706979E+01  0.20812160689E+02  0.14379273613E+03  0.14535081346E+03  0.00000000000E+00 0.  1.
          5    1    4    4  501    0  0.25355103165E+02  0.11170116003E+02  0.17423131693E+03  0.17647004547E+03  0.41800000000E+01 0. -1.
         -5    1    4    4    0  501 -0.57618039048E+02  0.35179980707E+02  0.41927683943E+02  0.79579347491E+02  0.41800000000E+01 0. -1.
</event>
<event>
11    1  0.8299058E-009  0.1820491E+03  0.7561462E-02  0.1067997E+00
         22   -1    0    0    0    0  0.00000000000E+00  0.00000000000E+00  0.38386507879E+03  0.38386507879E+03  0.00000000000E+00 0. -1.
         22   -1    0    0    0    0 -0.00000000000E+00 -0.00000000000E+00 -0.21040328279E+04  0.21040328279E+04  0.00000000000E+00 0.  1.
        -24    2    1    2    0    0 -0.24844384175E+02  0.11029478214E+01 -0.18432711347E+04  0.18450703219E+04  0.77572912568E+02 0.  0.
         25    2    1    2    0    0 -0.17112239272E+02 -0.12699722027E+03 -0.20976612824E+03  0.27580999045E+03  0.12509276393E+03 0.  0.
         24    2    1    2    0    0  0.41956623447E+02  0.12589427245E+03  0.33286951390E+03  0.36701759428E+03  0.79309993916E+02 0.  0.
        -11    1    5    5    0    0  0.44198347378E+02  0.20184768428E+02  0.11515302472E+03  0.12498455060E+03  0.00000000000E+00 0.  1.
         12    1    5    5    0    0 -0.22417239314E+01  0.10570950402E+03  0.21771648919E+03  0.24203304368E+03  0.00000000000E+00 0. -1.
         13    1    3    3    0    0  0.24376883998E+02  0.16897107318E+02 -0.71842149699E+03  0.71903351247E+03  0.00000000000E+00 0. -1.
        -14    1    3    3    0    0 -0.49221268173E+02 -0.15794159497E+02 -0.11248496377E+04  0.11260368095E+04  0.00000000000E+00 0.  1.
          5    1    4    4  501    0 -0.50532514634E+02 -0.13519795863E+03 -0.17080587445E+03  0.22366077483E+03  0.41800000000E+01 0.  1.
         -5    1    4    4    0  501  0.33420275362E+02  0.82007383513E+01 -0.38960253791E+02  0.52149215625E+02  0.41800000000E+01 0.  1.
</event>
<event>
11    1  0.8299058E-009  0.1576040E+03  0.7561462E-02  0.1089353E+00
         22   -1    0    0    0    0  0.00000000000E+00  0.00000000000E+00  0.80819765612E+03  0.80819765612E+03  0.00000000000E+00 0. -1.
         22   -1    0    0    0    0 -0.00000000000E+00 -0.00000000000E+00 -0.19994961420E+03  0.19994961420E+03  0.00000000000E+00 0. -1.
         24    2    1    2    0    0 -0.54151351890E+02 -0.17283534137E+02 -0.13462121643E+03  0.16407090871E+03  0.74600949783E+02 0.  0.
         25    2    1    2    0    0  0.10918223319E+03  0.88688341083E+02  0.15464194438E+03  0.24361040510E+03  0.12508203957E+03 0.  0.
        -24    2    1    2    0    0 -0.55030881302E+02 -0.71404806945E+02  0.58822731396E+03  0.60046595651E+03  0.80130816086E+02 0.  0.
        -11    1    3    3    0    0 -0.48109782162E+02 -0.16561968218E+01 -0.27080105674E+02  0.55232474604E+02  0.00000000000E+00 0.  1.
         12    1    3    3    0    0 -0.60415697279E+01 -0.15627337316E+02 -0.10754111075E+03  0.10883843410E+03  0.00000000000E+00 0. -1.
         11    1    5    5    0    0 -0.38256593619E+02 -0.99644805744E+01  0.39587183546E+03  0.39784088269E+03  0.00000000000E+00 0. -1.
        -12    1    5    5    0    0 -0.16774287683E+02 -0.61440326371E+02  0.19235547850E+03  0.20262507383E+03  0.00000000000E+00 0.  1.
          5    1    4    4  501    0  0.89053716513E+02 -0.33729362439E+00  0.41940552084E+02  0.98524923247E+02  0.41800000000E+01 0. -1.
         -5    1    4    4    0  501  0.20128516679E+02  0.89025634707E+02  0.11270139230E+03  0.14508548185E+03  0.41800000000E+01 0. -1.
</event>
<event>
11    1  0.8299058E-009  0.1637474E+03  0.7561462E-02  0.1083605E+00
         22   -1    0    0    0    0  0.00000000000E+00  0.00000000000E+00  0.16866885069E+04  0.16866885069E+04  0.00000000000E+00 0. -1.
         22   -1    0    0    0    0 -0.00000000000E+00 -0.00000000000E+00 -0.17369775225E+04  0.17369775225E+04  0.00000000000E+00 0.  1.
         24    2    1    2    0    0 -0.10272502748E+03  0.24532379402E+02 -0.16763588855E+04  0.16816620537E+04  0.81571324313E+02 0.  0.
         25    2    1    2    0    0  0.95933202466E+02 -0.64182466915E+02  0.72253926057E+02  0.18490633903E+03  0.12508859256E+03 0.  0.
        -24    2    1    2    0    0  0.67918250145E+01  0.39650087513E+02  0.15538159438E+04  0.15570976366E+04  0.92686592051E+02 0.  0.
        -13    1    3    3    0    0 -0.40440141009E+02 -0.22214076095E+02 -0.95451875150E+03  0.95563325453E+03  0.00000000000E+00 0.  1.
         14    1    3    3    0    0 -0.62284886472E+02  0.46746455497E+02 -0.72184013404E+03  0.72602879922E+03  0.00000000000E+00 0. -1.
         13    1    5    5    0    0  0.18436772747E+02  0.66089446105E+02  0.12593935696E+04  0.12612612310E+04  0.00000000000E+00 0. -1.
        -14    1    5    5    0    0 -0.11644947733E+02 -0.26439358591E+02  0.29442237421E+03  0.29583640568E+03  0.00000000000E+00 0.  1.
          5    1    4    4  501    0  0.10819423749E+03 -0.90089931433E+02  0.64511843653E+02  0.15492397859E+03  0.41800000000E+01 0. -1.
         -5    1    4    4    0  501 -0.12261035024E+02  0.25907464517E+02  0.77420824039E+01  0.29982360440E+02  0.41800000000E+01 0. -1.
</event>
<event>
11    1  0.8299058E-009  0.1609867E+03  0.7561462E-02  0.1086153E+00
         22   -1    0    0    0    0  0.00000000000E+00  0.00000000000E+00  0.79381091259E+02  0.79381091259E+02  0.00000000000E+00 0.  1.
         22   -1    0    0    0    0 -0.00000000000E+00 -0.00000000000E+00 -0.23161315373E+04  0.23161315373E+04  0.00000000000E+00 0.  1.
         24    2    1    2    0    0 -0.62370798725E+02  0.91387117781E+02 -0.12493080138E+04  0.12566721501E+04  0.78820413957E+02 0.  0.
         25    2    1    2    0    0  0.34219917747E+02 -0.81300746702E+02 -0.10307534968E+04  0.10420566059E+04  0.12509350317E+03 0.  0.
        -24    2    1    2    0    0  0.28150880978E+02 -0.10086371079E+02  0.43311064528E+02  0.96783872599E+02  0.81222304223E+02 0.  0.
        -13    1    3    3    0    0 -0.61913297563E+02  0.97293800558E+02 -0.12416305413E+04  0.12469746354E+04  0.00000000000E+00 0.  1.
         14    1    3    3    0    0 -0.45750116274E+00 -0.59066827766E+01 -0.76774724639E+01  0.96975147420E+01  0.00000000000E+00 0. -1.
         11    1    5    5    0    0  0.18982490209E+02  0.49239479705E+01 -0.21809504689E+02  0.29329757806E+02  0.00000000000E+00 0. -1.
        -12    1    5    5    0    0  0.91683907688E+01 -0.15010319050E+02  0.65120569218E+02  0.67454114793E+02  0.00000000000E+00 0.  1.
          5    1    4    4  501    0  0.55559673107E+02 -0.90098414857E+02 -0.98461563623E+03  0.99029794766E+03  0.41800000000E+01 0. -1.
         -5    1    4    4    0  501 -0.21339755360E+02  0.87976681551E+01 -0.46137860561E+02  0.51758658222E+02  0.41800000000E+01 0. -1.
</event>
<event>
11    1  0.8299058E-009  0.1651820E+03  0.7561462E-02  0.1082302E+00
         22   -1    0    0    0    0  0.00000000000E+00  0.00000000000E+00  0.63643858725E+03  0.63643858725E+03  0.00000000000E+00 0.  1.
         22   -1    0    0    0    0 -0.00000000000E+00 -0.00000000000E+00 -0.17184792295E+03  0.17184792295E+03  0.00000000000E+00 0. -1.
         24    2    1    2    0    0 -0.48824362579E+02  0.87234881913E+02 -0.40937118275E+02  0.13653719234E+03  0.83503378582E+02 0.  0.
         25    2    1    2    0    0  0.74047709955E+02 -0.10024494766E+03  0.17578952140E+02  0.17744996180E+03  0.12508939405E+03 0.  0.
        -24    2    1    2    0    0 -0.25223347376E+02  0.13010065743E+02  0.48794883044E+03  0.49429935606E+03  0.73704227910E+02 0.  0.
        -11    1    3    3    0    0 -0.15259822279E+02 -0.13773559893E+02  0.41009048626E+01  0.20961644707E+02  0.00000000000E+00 0.  1.
         12    1    3    3    0    0 -0.33564540300E+02  0.10100844181E+03 -0.45038023138E+02  0.11557554763E+03  0.00000000000E+00 0. -1.
         11    1    5    5    0    0  0.36911420348E+01  0.93306297499E+01  0.64704406759E+01  0.11939505165E+02  0.00000000000E+00 0. -1.
        -12    1    5    5    0    0 -0.28914489410E+02  0.36794359936E+01  0.48147838976E+03  0.48235985089E+03  0.00000000000E+00 0.  1.
          5    1    4    4  501    0  0.90556451072E+02 -0.68670172167E+02  0.54378288395E+02  0.12605766151E+03  0.41800000000E+01 0.  1.
         -5    1    4    4    0  501 -0.16508741117E+02 -0.31574775490E+02 -0.36799336255E+02  0.51392300292E+02  0.41800000000E+01 0.  1.
</event>
<event>
11    1  0.8299058E-009  0.3215770E+03  0.7561462E-02  0.9914514E-01
         22   -1    0    0    0    0  0.00000000000E+00  0.00000000000E+00  0.67296805534E+03  0.67296805534E+03  0.00000000000E+00 0. -1.
         22   -1    0    0    0    0 -0.00000000000E+00 -0.00000000000E+00 -0.43280762366E+03  0.43280762366E+03  0.00000000000E+00 0. -1.
        -24    2    1    2    0    0  0.12570642384E+02 -0.29686135077E+02 -0.15356142147E+03  0.16729397349E+03  0.58024785543E+02 0.  0.
         25    2    1    2    0    0 -0.26264530023E+03  0.18081156356E+03 -0.10281283954E+03  0.35762329145E+03  0.12509421795E+03 0.  0.
         24    2    1    2    0    0  0.25007465785E+03 -0.15112542848E+03  0.49653469270E+03  0.58085841405E+03  0.73983555544E+02 0.  0.
        -11    1    5    5    0    0  0.13018897081E+03 -0.42193540054E+02  0.19000646083E+03  0.23416216197E+03  0.00000000000E+00 0.  1.
         12    1    5    5    0    0  0.11988568704E+03 -0.10893188843E+03  0.30652823187E+03  0.34669625208E+03  0.00000000000E+00 0. -1.
         13    1    3    3    0    0  0.28441067941E+02 -0.38443222817E+02 -0.11943072436E+03  0.12864864417E+03  0.00000000000E+00 0. -1.
        -14    1    3    3    0    0 -0.15870425557E+02  0.87570877401E+01 -0.34130697109E+02  0.38645329319E+02  0.00000000000E+00 0.  1.
          5    1    4    4  501    0 -0.70666575386E+02  0.82668673914E+01  0.16611580743E+02  0.73181438822E+02  0.41800000000E+01 0.  1.
         -5    1    4    4    0  501 -0.19197872485E+03  0.17254469617E+03 -0.11942442028E+03  0.28444185263E+03  0.41800000000E+01 0.  1.
</event>
<event>
11    1  0.8299058E-009  0.1754539E+03  0.7561462E-02  0.1073381E+00
         22   -1    0    0    0    0  0.00000000000E+00  0.00000000000E+00  0.17910127287E+03  0.17910127287E+03  0.00000000000E+00 0. -1.
         22   -1    0    0    0    0 -0.00000000000E+00 -0.00000000000E+00 -0.96394429059E+03  0.96394429059E+03  0.00000000000E+00 0. -1.
         24    2    1    2    0    0  0.11499545179E+02  0.85283918522E+01 -0.71241091448E+03  0.71712209514E+03  0.80807272337E+02 0.  0.
         25    2    1    2    0    0  0.57103468178E+02  0.96052110452E+02 -0.17795294491E+03  0.24454368802E+03  0.12509017048E+03 0.  0.
        -24    2    1    2    0    0 -0.68603013357E+02 -0.10458050230E+03  0.10552084167E+03  0.18137978029E+03  0.78233763603E+02 0.  0.
        -11    1    3    3    0    0  0.25616227116E+02  0.28680312329E+02 -0.17622003954E+03  0.18036699737E+03  0.00000000000E+00 0.  1.
         12    1    3    3    0    0 -0.14116681937E+02 -0.20151920477E+02 -0.53619087494E+03  0.53675509777E+03  0.00000000000E+00 0. -1.
         11    1    5    5    0    0 -0.14201771413E+02 -0.47642499682E+02  0.87435409289E+02  0.10058055918E+03  0.00000000000E+00 0. -1.
        -12    1    5    5    0    0 -0.54401241943E+02 -0.56938002622E+02  0.18085432378E+02  0.80799221109E+02  0.00000000000E+00 0.  1.
          5    1    4    4  501    0  0.18284798336E+01  0.10614422869E+03 -0.14332951237E+03  0.17841177691E+03  0.41800000000E+01 0.  1.
         -5    1    4    4    0  501  0.55274988345E+02 -0.10092118242E+02 -0.34623432537E+02  0.66131911115E+02  0.41800000000E+01 0.  1.
</event>
<event>
11    1  0.8299058E-009  0.1314542E+03  0.7561462E-02  0.1117495E+00
         22   -1    0    0    0    0  0.00000000000E+00  0.00000000000E+00  0.56769356717E+03  0.56769356717E+03  0.00000000000E+00 0. -1.
         22   -1    0    0    0    0 -0.00000000000E+00 -0.00000000000E+00 -0.32790869366E+04  0.32790869366E+04  0.00000000000E+00 0. -1.
         24    2    1    2    0    0 -0.60982300061E+01 -0.36519242843E+02 -0.30145210269E+04  0.30157787794E+04  0.78827540116E+02 0.  0.
         25    2    1    2    0    0  0.16624179736E+02  0.74988816149E+02 -0.23958161495E+03  0.28097604956E+03  0.12509398189E+03 0.  0.
        -24    2    1    2    0    0 -0.10525949729E+02 -0.38469573306E+02  0.54270927250E+03  0.55002567474E+03  0.80026150330E+02 0.  0.
        -11    1    3    3    0    0  0.27352240534E+02  0.47428832586E+01 -0.56466961894E+03  0.56535158845E+03  0.00000000000E+00 0.  1.
         12    1    3    3    0    0 -0.33450470541E+02 -0.41262126101E+02 -0.24498514080E+04  0.24504271910E+04  0.00000000000E+00 0. -1.
         13    1    5    5    0    0 -0.24959920539E+02 -0.66182444421E+01  0.45309492668E+03  0.45383015697E+03  0.00000000000E+00 0. -1.
        -14    1    5    5    0    0  0.14433970810E+02 -0.31851328864E+02  0.89614345819E+02  0.96195517777E+02  0.00000000000E+00 0.  1.
          5    1    4    4  501    0  0.13918403278E+02  0.10667082886E+03 -0.21541802979E+03  0.24082106976E+03  0.41800000000E+01 0. -1.
         -5    1    4    4    0  501  0.27057764572E+01 -0.31682012706E+02 -0.24163585154E+02  0.40154979801E+02  0.41800000000E+01 0. -1.
</event>
<event>
11    1  0.8299058E-009  0.1561938E+03  0.7561462E-02  0.1090713E+00
         22   -1    0    0    0    0  0.00000000000E+00  0.00000000000E+00  0.69353215196E+02  0.69353215196E+02  0.00000000000E+00 0. -1.
         22   -1    0    0    0    0 -0.00000000000E+00 -0.00000000000E+00 -0.17303139116E+04  0.17303139116E+04  0.00000000000E+00 0.  1.
         24    2    1    2    0    0  0.22984213975E+02  0.57493671672E+02 -0.14133271327E+04  0.14170572611E+04  0.81999396245E+02 0.  0.
         25    2    1    2    0    0 -0.66610556041E+02 -0.11378619905E+03 -0.15641815856E+03  0.23978791466E+03  0.12508932178E+03 0.  0.
        -24    2    1    2    0    0  0.43626342066E+02  0.56292527378E+02 -0.91215405180E+02  0.14282195101E+03  0.83700377467E+02 0.  0.
        -13    1    3    3    0    0  0.54739452020E+00  0.72329159144E+02 -0.11733674181E+04  0.11755947026E+04  0.00000000000E+00 0.  1.
         14    1    3    3    0    0  0.22436819454E+02 -0.14835487472E+02 -0.23995971462E+03  0.24146255858E+03  0.00000000000E+00 0. -1.
         13    1    5    5    0    0  0.16032065400E+02  0.19472627475E+02  0.13380637378E+02  0.28552614564E+02  0.00000000000E+00 0. -1.
        -14    1    5    5    0    0  0.27594276666E+02  0.36819899903E+02 -0.10459604256E+03  0.11426933645E+03  0.00000000000E+00 0.  1.
          5    1    4    4  501    0  0.56498795149E+01 -0.78755008247E+02 -0.13519955008E+03  0.15662267781E+03  0.41800000000E+01 0.  1.
         -5    1    4    4    0  501 -0.72260435556E+02 -0.35031190803E+02 -0.21218608482E+02  0.83165236858E+02  0.41800000000E+01 0.  1.
</event>
<event>
11    1  0.8299058E-009  0.1377238E+03  0.7561462E-02  0.1110127E+00
         22   -1    0    0    0    0  0.00000000000E+00  0.00000000000E+00  0.32166120611E+03  0.32166120611E+03  0.00000000000E+00 0.  1.
         22   -1    0    0    0    0 -0.00000000000E+00 -0.00000000000E+00 -0.31982898145E+03  0.31982898145E+03  0.00000000000E+00 0. -1.
         24    2    1    2    0    0  0.33951356042E+02  0.25654554543E+02 -0.22072403126E+03  0.23906251712E+03  0.81369148759E+02 0.  0.
         25    2    1    2    0    0 -0.42959445539E+02  0.33336122812E+02 -0.22044198387E+02  0.13817320692E+03  0.12509627246E+03 0.  0.
        -24    2    1    2    0    0  0.90080894968E+01 -0.58990677355E+02  0.24460045431E+03  0.26425446351E+03  0.80249570374E+02 0.  0.
        -11    1    3    3    0    0 -0.11208102244E+02  0.11927757964E+01  0.11424485142E+01  0.11329142008E+02  0.00000000000E+00 0.  1.
         12    1    3    3    0    0  0.45159458286E+02  0.24461778746E+02 -0.22186647978E+03  0.22773337511E+03  0.00000000000E+00 0. -1.
         11    1    5    5    0    0  0.31669451870E+02  0.33146755000E+01  0.10478614697E+03  0.10951747738E+03  0.00000000000E+00 0. -1.
        -12    1    5    5    0    0 -0.22661362373E+02 -0.62305352855E+02  0.13981430735E+03  0.15473698613E+03  0.00000000000E+00 0.  1.
          5    1    4    4  501    0  0.28877571379E+02 -0.18311927131E+02  0.20312661719E+02  0.39991466966E+02  0.41800000000E+01 0.  1.
         -5    1    4    4    0  501 -0.71837016918E+02  0.51648049943E+02 -0.42356860106E+02  0.98181739955E+02  0.41800000000E+01 0.  1.
</event>
<event>
11    1  0.8299058E-009  0.1889402E+03  0.7561462E-02  0.1062632E+00
         22   -1    0    0    0    0  0.00000000000E+00  0.00000000000E+00  0.93032822405E+03  0.93032822405E+03  0.00000000000E+00 0. -1.
         22   -1    0    0    0    0 -0.00000000000E+00 -0.00000000000E+00 -0.93963604153E+03  0.93963604153E+03  0.00000000000E+00 0.  1.
         24    2    1    2    0    0  0.65505495356E+02 -0.89705663959E+02 -0.88481502928E+03  0.89534934048E+03  0.80092005877E+02 0.  0.
         25    2    1    2    0    0 -0.32802465178E+01 -0.62330136802E+02  0.85929147438E+02  0.16409409059E+03  0.12508895322E+03 0.  0.
        -24    2    1    2    0    0 -0.62225248838E+02  0.15203580076E+03  0.78957806435E+03  0.81052083451E+03  0.80769035850E+02 0.  0.
        -11    1    3    3    0    0  0.75343858732E+02 -0.62337999232E+02 -0.79380317842E+03  0.79980385675E+03  0.00000000000E+00 0.  1.
         12    1    3    3    0    0 -0.98383633758E+01 -0.27367664726E+02 -0.91011850851E+02  0.95545483734E+02  0.00000000000E+00 0. -1.
         13    1    5    5    0    0  0.16523908368E+02  0.26620996818E+02  0.20990685208E+03  0.21223242818E+03  0.00000000000E+00 0. -1.
        -14    1    5    5    0    0 -0.78749157207E+02  0.12541480394E+03  0.57967121227E+03  0.59828840633E+03  0.00000000000E+00 0.  1.
          5    1    4    4  501    0  0.36950974723E+02 -0.51790653192E+02  0.10118609450E+03  0.11959826258E+03  0.41800000000E+01 0.  1.
         -5    1    4    4    0  501 -0.40231221240E+02 -0.10539483611E+02 -0.15256947063E+02  0.44495828017E+02  0.41800000000E+01 0.  1.
</event>
<event>
11    1  0.8299058E-009  0.1463053E+03  0.7561462E-02  0.1100715E+00
         22   -1    0    0    0    0  0.00000000000E+00  0.00000000000E+00  0.28355933173E+03  0.28355933173E+03  0.00000000000E+00 0. -1.
         22   -1    0    0    0    0 -0.00000000000E+00 -0.00000000000E+00 -0.88019243738E+03  0.88019243738E+03  0.00000000000E+00 0. -1.
        -24    2    1    2    0    0  0.46882488488E+02  0.25705318632E+01 -0.41609665427E+03  0.42633993637E+03  0.80154477674E+02 0.  0.
         25    2    1    2    0    0 -0.11984529400E+03 -0.18593597468E+02 -0.43031451836E+03  0.46424810181E+03  0.12508836460E+03 0.  0.
         24    2    1    2    0    0  0.72962805516E+02  0.16023065604E+02  0.24977806698E+03  0.27316373093E+03  0.81541593890E+02 0.  0.
        -13    1    5    5    0    0 -0.74173510917E+01 -0.11853142185E+01 -0.24324393806E+01  0.78954941805E+01  0.00000000000E+00 0.  1.
         14    1    5    5    0    0  0.80380156607E+02  0.17208379823E+02  0.25221050636E+03  0.26526823675E+03  0.00000000000E+00 0. -1.
         11    1    3    3    0    0  0.17356470280E+02 -0.87050933582E+01 -0.36965052726E+03  0.37016015184E+03  0.00000000000E+00 0. -1.
        -12    1    3    3    0    0  0.29526018208E+02  0.11275625221E+02 -0.46446127012E+02  0.56179784530E+02  0.00000000000E+00 0.  1.
          5    1    4    4  501    0 -0.11871839696E+03  0.71113738696E+01 -0.41945442537E+03  0.43600930813E+03  0.41800000000E+01 0. -1.
         -5    1    4    4    0  501 -0.11268970433E+01 -0.25704971337E+02 -0.10860092988E+02  0.28238793673E+02  0.41800000000E+01 0. -1.
</event>
<event>
11    1  0.8299058E-009  0.1329194E+03  0.7561462E-02  0.1115733E+00
         22   -1    0    0    0    0  0.00000000000E+00  0.00000000000E+00  0.98501383265E+02  0.98501383265E+02  0.00000000000E+00 0.  1.
         22   -1    0    0    0    0 -0.00000000000E+00 -0.00000000000E+00 -0.10236395918E+04  0.10236395918E+04  0.00000000000E+00 0.  1.
         24    2    1    2    0    0 -0.34214432022E+01 -0.42616644403E+02 -0.82336163638E+03  0.82840898908E+03  0.80679515812E+02 0.  0.
         25    2    1    2    0    0  0.46999241002E+01  0.71382670220E+02 -0.13907333279E+03  0.20026567597E+03  0.12508946472E+03 0.  0.
        -24    2    1    2    0    0 -0.12784808980E+01 -0.28766025818E+02  0.37296760592E+02  0.93466310057E+02  0.80720406406E+02 0.  0.
        -11    1    3    3    0    0 -0.28636299731E+02  0.10942612388E+02 -0.35497482923E+03  0.35629609570E+03  0.00000000000E+00 0.  1.
         12    1    3    3    0    0  0.25214856529E+02 -0.53559256791E+02 -0.46838680715E+03  0.47211289338E+03  0.00000000000E+00 0. -1.
         11    1    5    5    0    0 -0.14286736904E+02  0.15586983717E+01 -0.21606976560E+02  0.25949987053E+02  0.00000000000E+00 0. -1.
        -12    1    5    5    0    0  0.13008256006E+02 -0.30324724189E+02  0.58903737152E+02  0.67516323004E+02  0.00000000000E+00 0.  1.
          5    1    4    4  501    0 -0.60065991362E+02  0.32511721745E+02 -0.64322744687E+02  0.93913914055E+02  0.41800000000E+01 0.  1.
         -5    1    4    4    0  501  0.64765915462E+02  0.38870948476E+02 -0.74750588106E+02  0.10635176192E+03  0.41800000000E+01 0.  1.
</event>
<event>
11    1  0.8299058E-009  0.1407279E+03  0.7561462E-02  0.1106748E+00
         22   -1    0    0    0    0  0.00000000000E+00  0.00000000000E+00  0.15702344688E+03  0.15702344688E+03  0.00000000000E+00 0.  1.
         22   -1    0    0    0    0 -0.00000000000E+00 -0.00000000000E+00 -0.10814699585E+04  0.10814699585E+04  0.00000000000E+00 0. -1.
        -24    2    1    2    0    0 -0.63891449788E+02 -0.11029818543E+02 -0.93153228132E+03  0.93726557033E+03  0.80688189554E+02 0.  0.
         25    2    1    2    0    0  0.57571186500E+02  0.19119035521E+02 -0.10135253279E+03  0.17204498899E+03  0.12508862178E+03 0.  0.
         24    2    1    2    0    0  0.63202632883E+01 -0.80892169775E+01  0.10843830254E+03  0.12918284602E+03  0.69454741294E+02 0.  0.
        -13    1    5    5    0    0 -0.11133255992E+02 -0.14226337857E+02  0.10918244491E+03  0.11066681686E+03  0.00000000000E+00 0.  1.
         14    1    5    5    0    0  0.17453519280E+02  0.61371208799E+01 -0.74414236718E+00  0.18516029159E+02  0.00000000000E+00 0. -1.
         13    1    3    3    0    0  0.51014675854E+01 -0.19070978298E+02 -0.48149381749E+03  0.48189835387E+03  0.00000000000E+00 0. -1.
        -14    1    3    3    0    0 -0.68992917374E+02  0.80411597545E+01 -0.45003846383E+03  0.45536721646E+03  0.00000000000E+00 0.  1.
          5    1    4    4  501    0  0.88480150902E+02 -0.13052447534E+02 -0.45480716160E+02  0.10042445635E+03  0.41800000000E+01 0. -1.
         -5    1    4    4    0  501 -0.30908964402E+02  0.32171483055E+02 -0.55871816631E+02  0.71620532643E+02  0.41800000000E+01 0. -1.
</event>
<event>
11    1  0.8299058E-009  0.1357895E+03  0.7561462E-02  0.1112353E+00
         22   -1    0    0    0    0  0.00000000000E+00  0.00000000000E+00  0.13437080309E+03  0.13437080309E+03  0.00000000000E+00 0.  1.
         22   -1    0    0    0    0 -0.00000000000E+00 -0.00000000000E+00 -0.42983787371E+03  0.42983787371E+03  0.00000000000E+00 0.  1.
        -24    2    1    2    0    0 -0.48843239240E+02 -0.24692006433E+02 -0.28064394120E+03  0.29901373110E+03  0.87480468959E+02 0.  0.
         25    2    1    2    0    0 -0.13797777503E+02  0.29958926556E+02 -0.70217414180E+02  0.14719306574E+03  0.12508955753E+03 0.  0.
         24    2    1    2    0    0  0.62641016743E+02 -0.52669201228E+01  0.55394284766E+02  0.11800187996E+03  0.83091993973E+02 0.  0.
        -11    1    5    5    0    0  0.43935622679E+02  0.27600862253E+02  0.60655366667E+02  0.79819922593E+02  0.00000000000E+00 0.  1.
         12    1    5    5    0    0  0.18705394064E+02 -0.32867782375E+02 -0.52610819003E+01  0.38181957364E+02  0.00000000000E+00 0. -1.
         11    1    3    3    0    0 -0.39956697755E+02 -0.29324293488E+02 -0.58622344838E+02  0.76766081041E+02  0.00000000000E+00 0. -1.
        -12    1    3    3    0    0 -0.88865414847E+01  0.46322870547E+01 -0.22202159637E+03  0.22224765006E+03  0.00000000000E+00 0.  1.
          5    1    4    4  501    0  0.11338268183E+02 -0.22268174046E+02  0.25032062225E+02  0.35616069969E+02  0.41800000000E+01 0.  1.
         -5    1    4    4    0  501 -0.25136045687E+02  0.52227100602E+02 -0.95249476405E+02  0.11157699577E+03  0.41800000000E+01 0.  1.
</event>
<event>
11    1  0.8299058E-009  0.2360946E+03  0.7561462E-02  0.1031579E+00
         22   -1    0    0    0    0  0.00000000000E+00  0.00000000000E+00  0.66777462848E+03  0.66777462848E+03  0.00000000000E+00 0. -1.
         22   -1    0    0    0    0 -0.00000000000E+00 -0.00000000000E+00 -0.50100112175E+03  0.50100112175E+03  0.00000000000E+00 0. -1.
         24    2    1    2    0    0 -0.78881036059E+02  0.17823195702E+03 -0.37269694271E+03  0.42817214111E+03  0.80246638374E+02 0.  0.
         25    2    1    2    0    0  0.11119423529E+03 -0.20881036503E+03  0.90597273126E+02  0.28252749288E+03  0.12509193351E+03 0.  0.
        -24    2    1    2    0    0 -0.32313199232E+02  0.30578408014E+02  0.44887317632E+03  0.45807611623E+03  0.79796102435E+02 0.  0.
        -11    1    3    3    0    0 -0.12140134268E+02  0.67020370820E+02 -0.20595497123E+03  0.21692524782E+03  0.00000000000E+00 0.  1.
         12    1    3    3    0    0 -0.66740901790E+02  0.11121158620E+03 -0.16674197148E+03  0.21124689330E+03  0.00000000000E+00 0. -1.
         13    1    5    5    0    0 -0.11916831785E+02  0.25013084157E+02  0.42610800500E+03  0.42700784207E+03  0.00000000000E+00 0. -1.
        -14    1    5    5    0    0 -0.20396367447E+02  0.55653238562E+01  0.22765171316E+02  0.31068274167E+02  0.00000000000E+00 0.  1.
          5    1    4    4  501    0 -0.41374184393E+01  0.13861749909E+02 -0.19737374042E+01  0.15186651416E+02  0.41800000000E+01 0. -1.
         -5    1    4    4    0  501  0.11533165373E+03 -0.22267211494E+03  0.92571010531E+02  0.26734084147E+03  0.41800000000E+01 0. -1.
</event>
<event>
11    1  0.8299058E-009  0.2319609E+03  0.7561462E-02  0.1033973E+00
         22   -1    0    0    0    0  0.00000000000E+00  0.00000000000E+00  0.76375743142E+03  0.76375743142E+03  0.00000000000E+00 0. -1.
         22   -1    0    0    0    0 -0.00000000000E+00 -0.00000000000E+00 -0.14730821645E+03  0.14730821645E+03  0.00000000000E+00 0. -1.
         24    2    1    2    0    0  0.47415312947E+02  0.42605226680E+02  0.54539162200E+02  0.11686685972E+03  0.81362924268E+02 0.  0.
         25    2    1    2    0    0 -0.21758299173E+03 -0.11364921577E+03  0.10443930607E+03  0.29464161354E+03  0.12509040428E+03 0.  0.
        -24    2    1    2    0    0  0.17016767878E+03  0.71043989088E+02  0.45747074670E+03  0.49955717461E+03  0.79206056143E+02 0.  0.
        -11    1    3    3    0    0 -0.20519905396E+02  0.20452807898E+02  0.28977745352E+02  0.40976744552E+02  0.00000000000E+00 0.  1.
         12    1    3    3    0    0  0.67935218343E+02  0.22152418782E+02  0.25561416848E+02  0.75890115170E+02  0.00000000000E+00 0. -1.
         13    1    5    5    0    0  0.10745162371E+03  0.51981251599E+02  0.19171961028E+03  0.22584134016E+03  0.00000000000E+00 0. -1.
        -14    1    5    5    0    0  0.62716055072E+02  0.19062737489E+02  0.26575113641E+03  0.27371583445E+03  0.00000000000E+00 0.  1.
          5    1    4    4  501    0 -0.64175293056E+02  0.24685767418E+02  0.24847105875E+02  0.73230501993E+02  0.41800000000E+01 0. -1.
         -5    1    4    4    0  501 -0.15340769867E+03 -0.13833498319E+03  0.79592200199E+02  0.22141111155E+03  0.41800000000E+01 0. -1.
</event>
<event>
11    1  0.8299058E-009  0.3049759E+03  0.7561462E-02  0.9981070E-01
         22   -1    0    0    0    0  0.00000000000E+00  0.00000000000E+00  0.13330952816E+03  0.13330952816E+03  0.00000000000E+00 0.  1.
         22   -1    0    0    0    0 -0.00000000000E+00 -0.00000000000E+00 -0.33264380490E+04  0.33264380490E+04  0.00000000000E+00 0. -1.
         24    2    1    2    0    0 -0.27195395524E+03 -0.54841610877E+02 -0.26993985790E+04  0.27148320852E+04  0.81203488533E+02 0.  0.
         25    2    1    2    0    0  0.28133858133E+03  0.29711109982E+02 -0.55533614634E+03  0.63567212592E+03  0.12508664531E+03 0.  0.
        -24    2    1    2    0    0 -0.93846260908E+01  0.25130500895E+02  0.61606204535E+02  0.10924336599E+03  0.86134634689E+02 0.  0.
        -13    1    3    3    0    0  0.44030967815E+01 -0.16747559987E+01 -0.15010369368E+02  0.15732236252E+02  0.00000000000E+00 0.  1.
         14    1    3    3    0    0 -0.27635705202E+03 -0.53166854878E+02 -0.26843882097E+04  0.26990998490E+04  0.00000000000E+00 0. -1.
         11    1    5    5    0    0  0.35650187435E+02  0.11186564022E+01  0.10890059638E+02  0.37293171697E+02  0.00000000000E+00 0. -1.
        -12    1    5    5    0    0 -0.45034813526E+02  0.24011844493E+02  0.50716144898E+02  0.71950194291E+02  0.00000000000E+00 0.  1.
          5    1    4    4  501    0  0.62143638510E+02  0.54940138238E+02 -0.21022015635E+03  0.22603149588E+03  0.41800000000E+01 0. -1.
         -5    1    4    4    0  501  0.21919494282E+03 -0.25229028256E+02 -0.34511599000E+03  0.40964063004E+03  0.41800000000E+01 0. -1.
</event>
<event>
11    1  0.8299058E-009  0.1374617E+03  0.7561462E-02  0.1110426E+00
         22   -1    0    0    0    0  0.00000000000E+00  0.00000000000E+00  0.25763140384E+04  0.25763140384E+04  0.00000000000E+00 0.  1.
         22   -1    0    0    0    0 -0.00000000000E+00 -0.00000000000E+00 -0.85283469124E+02  0.85283469124E+02  0.00000000000E+00 0.  1.
        -24    2    1    2    0    0 -0.21001731657E+02 -0.51365937637E+02 -0.32812783036E+02  0.10325517792E+03  0.80656188570E+02 0.  0.
         25    2    1    2    0    0  0.62560089574E+01  0.73204271081E+02  0.30418725603E+03  0.33701112540E+03  0.12509440021E+03 0.  0.
         24    2    1    2    0    0  0.14745722700E+02 -0.21838333445E+02  0.22196560963E+04  0.22213312042E+04  0.82126632910E+02 0.  0.
        -11    1    5    5    0    0  0.17123880086E+02  0.27663654630E+02  0.12352599498E+04  0.12356883299E+04  0.00000000000E+00 0.  1.
         12    1    5    5    0    0 -0.23781573862E+01 -0.49501988074E+02  0.98439614644E+03  0.98564287426E+03  0.00000000000E+00 0. -1.
         11    1    3    3    0    0 -0.46216482535E+02 -0.25728568811E+02  0.23683879009E+01  0.52948387815E+02  0.00000000000E+00 0. -1.
        -12    1    3    3    0    0  0.25214750877E+02 -0.25637368825E+02 -0.35181170937E+02  0.50306790104E+02  0.00000000000E+00 0.  1.
          5    1    4    4  501    0 -0.54854280817E+00 -0.12307270827E+02  0.20661918875E+03  0.20702833471E+03  0.41800000000E+01 0. -1.
         -5    1    4    4    0  501  0.68045517656E+01  0.85511541908E+02  0.97568067281E+02  0.12998279070E+03  0.41800000000E+01 0. -1.
</event>
<event>
11    1  0.8299058E-009  0.1474780E+03  0.7561462E-02  0.1099484E+00
         22   -1    0    0    0    0  0.00000000000E+00  0.00000000000E+00  0.37568624062E+04  0.37568624062E+04  0.00000000000E+00 0.  1.
         22   -1    0    0    0    0 -0.00000000000E+00 -0.00000000000E+00 -0.35738206012E+03  0.35738206012E+03  0.00000000000E+00 0. -1.
        -24    2    1    2    0    0  0.43095619240E+02  0.26014444531E+02 -0.31557987049E+03  0.32900916253E+03  0.78245706921E+02 0.  0.
         25    2    1    2    0    0 -0.82171341845E+02 -0.92440243055E+02  0.19157638835E+03  0.26008883066E+03  0.12508940524E+03 0.  0.
         24    2    1    2    0    0  0.39075722605E+02  0.66425798524E+02  0.35234838282E+04  0.35251464731E+04  0.76026774939E+02 0.  0.
        -11    1    5    5    0    0  0.23947197275E+02  0.66859179391E+02  0.33995802418E+04  0.34003219610E+04  0.00000000000E+00 0.  1.
         12    1    5    5    0    0  0.15128525331E+02 -0.43338086666E+00  0.12390358640E+03  0.12482451210E+03  0.00000000000E+00 0. -1.
         11    1    3    3    0    0  0.58190284541E+01 -0.85517837648E+01 -0.22421442136E+03  0.22445289226E+03  0.00000000000E+00 0. -1.
        -12    1    3    3    0    0  0.37276590785E+02  0.34566228296E+02 -0.91365449127E+02  0.10455627027E+03  0.00000000000E+00 0.  1.
          5    1    4    4  501    0 -0.88344270478E+01 -0.37003028892E+02  0.15729414992E+03  0.16188327044E+03  0.41800000000E+01 0. -1.
         -5    1    4    4    0  501 -0.73336914797E+02 -0.55437214163E+02  0.34282238428E+02  0.98205560218E+02  0.41800000000E+01 0. -1.
</event>
<event>
11    1  0.8299058E-009  0.1665461E+03  0.7561462E-02  0.1081077E+00
         22   -1    0    0    0    0  0.00000000000E+00  0.00000000000E+00  0.10320116952E+04  0.10320116952E+04  0.00000000000E+00 0.  1.
         22   -1    0    0    0    0 -0.00000000000E+00 -0.00000000000E+00 -0.24786196065E+03  0.24786196065E+03  0.00000000000E+00 0. -1.
         24    2    1    2    0    0  0.96183225335E+02 -0.66475440090E+02 -0.19654828999E+03  0.24203847441E+03  0.79253995633E+02 0.  0.
         25    2    1    2    0    0 -0.67186577658E+02 -0.25092150629E+02  0.19658326458E+03  0.24379746983E+03  0.12509426103E+03 0.  0.
        -24    2    1    2    0    0 -0.28996647677E+02  0.91567590720E+02  0.78411476001E+03  0.79403771165E+03  0.80215344034E+02 0.  0.
        -13    1    3    3    0    0  0.22760475140E+02  0.18118294591E+02 -0.36208927768E+02  0.46447801644E+02  0.00000000000E+00 0.  1.
         14    1    3    3    0    0  0.73422750195E+02 -0.84593734682E+02 -0.16033936222E+03  0.19559067276E+03  0.00000000000E+00 0. -1.
         13    1    5    5    0    0 -0.69532166209E+01  0.46078451539E+02  0.13232346671E+03  0.14028923964E+03  0.00000000000E+00 0. -1.
        -14    1    5    5    0    0 -0.22043431056E+02  0.45489139181E+02  0.65179129330E+03  0.65374847201E+03  0.00000000000E+00 0.  1.
          5    1    4    4  501    0 -0.54677520695E+02 -0.66590647407E+02  0.73810635515E+02  0.11353161633E+03  0.41800000000E+01 0. -1.
         -5    1    4    4    0  501 -0.12509056962E+02  0.41498496778E+02  0.12277262907E+03  0.13026585350E+03  0.41800000000E+01 0. -1.
</event>
<event>
11    1  0.8299058E-009  0.1576771E+03  0.7561462E-02  0.1089283E+00
         22   -1    0    0    0    0  0.00000000000E+00  0.00000000000E+00  0.50699439963E+03  0.50699439963E+03  0.00000000000E+00 0.  1.
         22   -1    0    0    0    0 -0.00000000000E+00 -0.00000000000E+00 -0.15234708089E+04  0.15234708089E+04  0.00000000000E+00 0. -1.
         24    2    1    2    0    0  0.34511674254E+01 -0.32185668452E+02 -0.14048811696E+04  0.14073916123E+04  0.77538518127E+02 0.  0.
         25    2    1    2    0    0 -0.97668364494E+02  0.12786601404E+02 -0.50092745555E+02  0.16691277602E+03  0.12509190639E+03 0.  0.
        -24    2    1    2    0    0  0.94217197069E+02  0.19399067048E+02  0.43849750589E+03  0.45616082023E+03  0.80928531496E+02 0.  0.
        -11    1    3    3    0    0 -0.32558776263E+02 -0.10567299501E+02 -0.34881859442E+03  0.35049415622E+03  0.00000000000E+00 0.  1.
         12    1    3    3    0    0  0.36009943689E+02 -0.21618368951E+02 -0.10560625752E+04  0.10568974561E+04  0.00000000000E+00 0. -1.
         11    1    5    5    0    0  0.60708102020E+02  0.50176557415E+02  0.24328188577E+03  0.25571319189E+03  0.00000000000E+00 0. -1.
        -12    1    5    5    0    0  0.33509095049E+02 -0.30777490367E+02  0.19521562012E+03  0.20044762833E+03  0.00000000000E+00 0.  1.
          5    1    4    4  501    0 -0.72655903726E+02  0.36876293946E+02  0.23946529649E+02  0.85027349033E+02  0.41800000000E+01 0.  1.
         -5    1    4    4    0  501 -0.25012460769E+02 -0.24089692542E+02 -0.74039275205E+02  0.81885426990E+02  0.41800000000E+01 0.  1.
</event>
<event>
11    1  0.8299058E-009  0.2073221E+03  0.7561462E-02  0.1049463E+00
         22   -1    0    0    0    0  0.00000000000E+00  0.00000000000E+00  0.14343868337E+04  0.14343868337E+04  0.00000000000E+00 0. -1.
         22   -1    0    0    0    0 -0.00000000000E+00 -0.00000000000E+00 -0.15669307891E+03  0.15669307891E+03  0.00000000000E+00 0. -1.
         24    2    1    2    0    0 -0.78262759449E+02  0.13475071619E+03 -0.16577740329E+01  0.17469042401E+03  0.78937829944E+02 0.  0.
         25    2    1    2    0    0  0.56257094260E+02 -0.18123071116E+03  0.12743418244E+03  0.26056847373E+03  0.12508807828E+03 0.  0.
        -24    2    1    2    0    0  0.22005665189E+02  0.46479994969E+02  0.11519173464E+04  0.11558210149E+04  0.79774722015E+02 0.  0.
        -13    1    3    3    0    0  0.91183800030E+01 -0.40211034884E+01 -0.38531978184E+01  0.10684627301E+02  0.00000000000E+00 0.  1.
         14    1    3    3    0    0 -0.87381139452E+02  0.13877181968E+03  0.21954237854E+01  0.16400579671E+03  0.00000000000E+00 0. -1.
         11    1    5    5    0    0  0.86152921122E+00  0.41756558676E+02  0.10776257864E+04  0.10784348325E+04  0.00000000000E+00 0. -1.
        -12    1    5    5    0    0  0.21144135978E+02  0.47234362933E+01  0.74291559926E+02  0.77386182312E+02  0.00000000000E+00 0.  1.
          5    1    4    4  501    0  0.62515542170E+02 -0.45779730974E+02  0.92003378924E+02  0.12035809451E+03  0.41800000000E+01 0. -1.
         -5    1    4    4    0  501 -0.62584479102E+01 -0.13545098019E+03  0.35430803512E+02  0.14021037922E+03  0.41800000000E+01 0. -1.
</event>
<event>
11    1  0.8299058E-009  0.3380240E+03  0.7561462E-02  0.9852702E-01
         22   -1    0    0    0    0  0.00000000000E+00  0.00000000000E+00  0.33108080472E+03  0.33108080472E+03  0.00000000000E+00 0.  1.
         22   -1    0    0    0    0 -0.00000000000E+00 -0.00000000000E+00 -0.97260629004E+03  0.97260629004E+03  0.00000000000E+00 0. -1.
        -24    2    1    2    0    0  0.73215351710E+02 -0.72450332001E+02 -0.48920943878E+03  0.50506150334E+03  0.71775405446E+02 0.  0.
         25    2    1    2    0    0  0.21500713418E+03 -0.10211363716E+03 -0.31706621295E+03  0.41572572789E+03  0.12506652147E+03 0.  0.
         24    2    1    2    0    0 -0.28822248589E+03  0.17456396916E+03  0.16475016642E+03  0.38289986354E+03  0.76973420496E+02 0.  0.
        -13    1    5    5    0    0 -0.26533690125E+03  0.13544938664E+03  0.12672707217E+03  0.32374366144E+03  0.00000000000E+00 0.  1.
         14    1    5    5    0    0 -0.22885584639E+02  0.39114582522E+02  0.38023094243E+02  0.59156202092E+02  0.00000000000E+00 0. -1.
         11    1    3    3    0    0  0.51954244132E+02 -0.46019478216E+02 -0.43909512478E+03  0.44454647054E+03  0.00000000000E+00 0. -1.
        -12    1    3    3    0    0  0.21261107579E+02 -0.26430853785E+02 -0.50114313999E+02  0.60515032801E+02  0.00000000000E+00 0.  1.
          5    1    4    4  501    0  0.11830201900E+03 -0.12167347314E+03 -0.18979165595E+03  0.25463335766E+03  0.41800000000E+01 0. -1.
         -5    1    4    4    0  501  0.96705115178E+02  0.19559835988E+02 -0.12727455700E+03  0.16109237023E+03  0.41800000000E+01 0. -1.
</event>
<event>
11    1  0.8299058E-009  0.1323623E+03  0.7561462E-02  0.1116400E+00
         22   -1    0    0    0    0  0.00000000000E+00  0.00000000000E+00  0.90900577438E+03  0.90900577438E+03  0.00000000000E+00 0.  1.
         22   -1    0    0    0    0 -0.00000000000E+00 -0.00000000000E+00 -0.58841499231E+02  0.58841499231E+02  0.00000000000E+00 0.  1.
         24    2    1    2    0    0  0.30266568658E+02 -0.24569275226E+02  0.24751424659E+02  0.92832101115E+02  0.80532301043E+02 0.  0.
         25    2    1    2    0    0 -0.32858036914E+02  0.52872515812E+02  0.20222421993E+03  0.24579096903E+03  0.12507362556E+03 0.  0.
        -24    2    1    2    0    0  0.25914682558E+01 -0.28303240587E+02  0.62318863056E+03  0.62922420347E+03  0.82165928667E+02 0.  0.
        -11    1    3    3    0    0 -0.34409386377E+01 -0.69980442422E+01 -0.27292274448E+02  0.28384519134E+02  0.00000000000E+00 0.  1.
         12    1    3    3    0    0  0.33707507296E+02 -0.17571230983E+02  0.52043699107E+02  0.64447581981E+02  0.00000000000E+00 0. -1.
         13    1    5    5    0    0  0.20877331287E+02 -0.23956886977E+02  0.85614778035E+02  0.91321879159E+02  0.00000000000E+00 0. -1.
        -14    1    5    5    0    0 -0.18285863031E+02 -0.43463536101E+01  0.53757385252E+03  0.53790232431E+03  0.00000000000E+00 0.  1.
          5    1    4    4  501    0 -0.59709200667E+01 -0.39555332295E+02  0.85119878840E+02  0.94144263623E+02  0.41800000000E+01 0.  1.
         -5    1    4    4    0  501 -0.26887116848E+02  0.92427848108E+02  0.11710434109E+03  0.15164670541E+03  0.41800000000E+01 0.  1.
</event>
<event>
11    1  0.8299058E-009  0.1470552E+03  0.7561462E-02  0.1099926E+00
         22   -1    0    0    0    0  0.00000000000E+00  0.00000000000E+00  0.20621771382E+03  0.20621771382E+03  0.00000000000E+00 0. -1.
         22   -1    0    0    0    0 -0.00000000000E+00 -0.00000000000E+00 -0.50849871999E+03  0.50849871999E+03  0.00000000000E+00 0. -1.
        -24    2    1    2    0    0  0.89303215345E+01  0.83763911675E+02 -0.33558954142E+03  0.35562991530E+03  0.82195819888E+02 0.  0.
         25    2    1    2    0    0 -0.68708977175E+02 -0.38386355200E+02 -0.10587953550E+03  0.18180462364E+03  0.12509200345E+03 0.  0.
         24    2    1    2    0    0  0.59778655640E+02 -0.45377556475E+02  0.13918807075E+03  0.17728189487E+03  0.80143252407E+02 0.  0.
        -11    1    5    5    0    0  0.30584407107E+02 -0.12141596603E+02  0.18088972008E+01  0.32955977231E+02  0.00000000000E+00 0.  1.
         12    1    5    5    0    0  0.29194248533E+02 -0.33235959872E+02  0.13737917355E+03  0.14432591764E+03  0.00000000000E+00 0. -1.
         13    1    3    3    0    0 -0.31315985263E+02  0.87839548501E+01 -0.87298750104E+02  0.93160724372E+02  0.00000000000E+00 0. -1.
        -14    1    3    3    0    0  0.40246306798E+02  0.74979956825E+02 -0.24829079131E+03  0.26246919093E+03  0.00000000000E+00 0.  1.
          5    1    4    4  501    0 -0.59777854067E+02  0.36581825633E+02 -0.65813457676E+02  0.96231519861E+02  0.41800000000E+01 0.  1.
         -5    1    4    4    0  501 -0.89311231077E+01 -0.74968180833E+02 -0.40066077826E+02  0.85573103775E+02  0.41800000000E+01 0.  1.
</event>
<event>
11    1  0.8299058E-009  0.1325566E+03  0.7561462E-02  0.1116167E+00
         22   -1    0    0    0    0  0.00000000000E+00  0.00000000000E+00  0.10887500732E+03  0.10887500732E+03  0.00000000000E+00 0. -1.
         22   -1    0    0    0    0 -0.00000000000E+00 -0.00000000000E+00 -0.57254767025E+03  0.57254767025E+03  0.00000000000E+00 0.  1.
         24    2    1    2    0    0 -0.15563240137E+02 -0.21618459322E+02 -0.43270858249E+03  0.44075634498E+03  0.79497585218E+02 0.  0.
         25    2    1    2    0    0  0.45345047556E+02  0.43794867135E+02 -0.51103314721E+02  0.14910842012E+03  0.12509040111E+03 0.  0.
        -24    2    1    2    0    0 -0.29781807419E+02 -0.22176407813E+02  0.20139234278E+02  0.91557912462E+02  0.81231234513E+02 0.  0.
        -13    1    3    3    0    0  0.10086340016E+01 -0.50274777682E+02 -0.23804005961E+03  0.24329332213E+03  0.00000000000E+00 0.  1.
         14    1    3    3    0    0 -0.16571874138E+02  0.28656318360E+02 -0.19466852287E+03  0.19746302285E+03  0.00000000000E+00 0. -1.
         13    1    5    5    0    0 -0.23464060477E+02 -0.29302300328E+02  0.48678420398E+02  0.61471745957E+02  0.00000000000E+00 0. -1.
        -14    1    5    5    0    0 -0.63177469419E+01  0.71258925154E+01 -0.28539186120E+02  0.30086166504E+02  0.00000000000E+00 0.  1.
          5    1    4    4  501    0  0.39679491480E+02  0.86918851340E+02 -0.42102088708E+02  0.10449596660E+03  0.41800000000E+01 0. -1.
         -5    1    4    4    0  501  0.56655560756E+01 -0.43123984204E+02 -0.90012260131E+01  0.44612453520E+02  0.41800000000E+01 0. -1.
</event>
<event>
11    1  0.8299058E-009  0.1393460E+03  0.7561462E-02  0.1108291E+00
         22   -1    0    0    0    0  0.00000000000E+00  0.00000000000E+00  0.10192124199E+03  0.10192124199E+03  0.00000000000E+00 0. -1.
         22   -1    0    0    0    0 -0.00000000000E+00 -0.00000000000E+00 -0.26017334363E+04  0.26017334363E+04  0.00000000000E+00 0. -1.
        -24    2    1    2    0    0  0.25801743207E+02 -0.24591856369E+02 -0.22799799418E+04  0.22818304520E+04  0.84682863731E+02 0.  0.
         25    2    1    2    0    0  0.57626883852E+01  0.76038970453E+02 -0.26348155371E+03  0.30147293637E+03  0.12509303982E+03 0.  0.
         24    2    1    2    0    0 -0.31564431592E+02 -0.51447114084E+02  0.43649301211E+02  0.12035128989E+03  0.94530696563E+02 0.  0.
        -13    1    5    5    0    0  0.19180648487E+02  0.61608439720E+01 -0.13839468487E+02  0.24441443550E+02  0.00000000000E+00 0.  1.
         14    1    5    5    0    0 -0.50745080079E+02 -0.57607958056E+02  0.57488769698E+02  0.95909846340E+02  0.00000000000E+00 0. -1.
         13    1    3    3    0    0 -0.20924232400E+02  0.10249674230E+02 -0.12396998683E+04  0.12399188049E+04  0.00000000000E+00 0. -1.
        -14    1    3    3    0    0  0.46725975607E+02 -0.34841530600E+02 -0.10402800735E+04  0.10419116471E+04  0.00000000000E+00 0.  1.
          5    1    4    4  501    0  0.33346583668E+02  0.24045162463E+02 -0.11811842432E+02  0.42978558629E+02  0.41800000000E+01 0. -1.
         -5    1    4    4    0  501 -0.27583895282E+02  0.51993807990E+02 -0.25166971128E+03  0.25849437774E+03  0.41800000000E+01 0. -1.
</event>
<event>
11    1  0.8299058E-009  0.1399816E+03  0.7561462E-02  0.1107579E+00
         22   -1    0    0    0    0  0.00000000000E+00  0.00000000000E+00  0.19913453912E+03  0.19913453912E+03  0.00000000000E+00 0.  1.
         22   -1    0    0    0    0 -0.00000000000E+00 -0.00000000000E+00 -0.98127685458E+03  0.98127685458E+03  0.00000000000E+00 0.  1.
         24    2    1    2    0    0  0.17002271821E+02 -0.43913292144E+02 -0.81054280734E+03  0.81587048159E+03  0.80296610950E+02 0.  0.
         25    2    1    2    0    0 -0.78130730174E+02  0.37346351602E+02 -0.11351408690E+03  0.18982081534E+03  0.12508930024E+03 0.  0.
        -24    2    1    2    0    0  0.61128458353E+02  0.65669405416E+01  0.14191457879E+03  0.17472009677E+03  0.81286846495E+02 0.  0.
        -11    1    3    3    0    0  0.22102145588E+02 -0.65197132478E+02 -0.68330261070E+03  0.68676169718E+03  0.00000000000E+00 0.  1.
         12    1    3    3    0    0 -0.50998737666E+01  0.21283840335E+02 -0.12724019664E+03  0.12910878442E+03  0.00000000000E+00 0. -1.
         13    1    5    5    0    0  0.35325308315E+02  0.20704843439E+02  0.13706296400E+02  0.43179051754E+02  0.00000000000E+00 0. -1.
        -14    1    5    5    0    0  0.25803150037E+02 -0.14137902897E+02  0.12820828239E+03  0.13154104501E+03  0.00000000000E+00 0.  1.
          5    1    4    4  501    0 -0.93837977195E+02  0.57839710232E+02 -0.11987038086E+03  0.16290297312E+03  0.41800000000E+01 0.  1.
         -5    1    4    4    0  501  0.15707247021E+02 -0.20493358630E+02  0.63562939533E+01  0.26917842219E+02  0.41800000000E+01 0.  1.
</event>
<event>
11    1  0.8299058E-009  0.1992891E+03  0.7561462E-02  0.1055028E+00
         22   -1    0    0    0    0  0.00000000000E+00  0.00000000000E+00  0.21715334197E+03  0.21715334197E+03  0.00000000000E+00 0.  1.
         22   -1    0    0    0    0 -0.00000000000E+00 -0.00000000000E+00 -0.21882693089E+04  0.21882693089E+04  0.00000000000E+00 0. -1.
         24    2    1    2    0    0 -0.19993946329E+02  0.10794611127E+02 -0.18498150109E+04  0.18517368940E+04  0.81226034847E+02 0.  0.
         25    2    1    2    0    0  0.17134423983E+03  0.10806002144E+02 -0.25783949873E+03  0.33407209299E+03  0.12508932012E+03 0.  0.
        -24    2    1    2    0    0 -0.15135029350E+03 -0.21600613271E+02  0.13653854273E+03  0.21961366380E+03  0.78828229961E+02 0.  0.
        -11    1    3    3    0    0  0.57620034306E+01  0.29097494083E+02 -0.27324927460E+03  0.27485456321E+03  0.00000000000E+00 0.  1.
         12    1    3    3    0    0 -0.25755949760E+02 -0.18302882956E+02 -0.15765657363E+04  0.15768823308E+04  0.00000000000E+00 0. -1.
         13    1    5    5    0    0 -0.13816337106E+03 -0.34832588406E+02  0.87673125636E+02  0.16729914308E+03  0.00000000000E+00 0. -1.
        -14    1    5    5    0    0 -0.13186922437E+02  0.13231975135E+02  0.48865417095E+02  0.52314520710E+02  0.00000000000E+00 0.  1.
          5    1    4    4  501    0  0.86375191078E+01  0.41357233437E+02 -0.83158887751E+02  0.93369698007E+02  0.41800000000E+01 0.  1.
         -5    1    4    4    0  501  0.16270672072E+03 -0.30551231294E+02 -0.17468061098E+03  0.24070239499E+03  0.41800000000E+01 0.  1.
</event>
<event>
11    1  0.8299058E-009  0.1634684E+03  0.7561462E-02  0.1083860E+00
         22   -1    0    0    0    0  0.00000000000E+00  0.00000000000E+00  0.10108190838E+04  0.10108190838E+04  0.00000000000E+00 0.  1.
         22   -1    0    0    0    0 -0.00000000000E+00 -0.00000000000E+00 -0.30708069769E+03  0.30708069769E+03  0.00000000000E+00 0. -1.
         24    2    1    2    0    0  0.50654831017E+01 -0.26557832185E+02 -0.26511782776E+03  0.27847382558E+03  0.80803659371E+02 0.  0.
         25    2    1    2    0    0  0.40808063421E+02 -0.73655804346E+02  0.17032222473E+03  0.22748245370E+03  0.12509248958E+03 0.  0.
        -24    2    1    2    0    0 -0.45873546523E+02  0.10021363653E+03  0.79853398914E+03  0.81194350220E+03  0.97203722871E+02 0.  0.
        -13    1    3    3    0    0 -0.26267447488E+01  0.36416232663E+01  0.49100787425E+01  0.66535765755E+01  0.00000000000E+00 0.  1.
         14    1    3    3    0    0  0.76922278505E+01 -0.30199455451E+02 -0.27002790650E+03  0.27182024900E+03  0.00000000000E+00 0. -1.
         11    1    5    5    0    0 -0.45238948730E+02  0.84143669989E+02  0.34107068063E+03  0.35419758450E+03  0.00000000000E+00 0. -1.
        -12    1    5    5    0    0 -0.63459779289E+00  0.16069966541E+02  0.45746330850E+03  0.45774591769E+03  0.00000000000E+00 0.  1.
          5    1    4    4  501    0 -0.38502444728E+02 -0.30085501476E+02  0.10472452848E+03  0.11563855289E+03  0.41800000000E+01 0. -1.
         -5    1    4    4    0  501  0.79310508150E+02 -0.43570302870E+02  0.65597696250E+02  0.11184390081E+03  0.41800000000E+01 0. -1.
</event>
<event>
11    1  0.8299058E-009  0.1793739E+03  0.7561462E-02  0.1070150E+00
         22   -1    0    0    0    0  0.00000000000E+00  0.00000000000E+00  0.31249390010E+04  0.31249390010E+04  0.00000000000E+00 0.  1.
         22   -1    0    0    0    0 -0.00000000000E+00 -0.00000000000E+00 -0.74992648678E+03  0.74992648678E+03  0.00000000000E+00 0.  1.
        -24    2    1    2    0    0  0.13013523423E+03 -0.12223195574E+02 -0.71766406168E+03  0.73385911383E+03  0.80143046055E+02 0.  0.
         25    2    1    2    0    0 -0.65967476254E+02  0.31226808755E+02  0.20246012723E+03  0.24892637573E+03  0.12508963149E+03 0.  0.
         24    2    1    2    0    0 -0.64167757976E+02 -0.19003613181E+02  0.28902164487E+04  0.28920799982E+04  0.79353370777E+02 0.  0.
        -11    1    5    5    0    0 -0.57257950707E+02 -0.27682765414E+02  0.28373214671E+04  0.28380341640E+04  0.00000000000E+00 0.  1.
         12    1    5    5    0    0 -0.69098072691E+01  0.86791522333E+01  0.52894981566E+02  0.54045834204E+02  0.00000000000E+00 0. -1.
         13    1    3    3    0    0  0.14781593988E+02 -0.18958945056E+02 -0.42066584166E+02  0.48451363467E+02  0.00000000000E+00 0. -1.
        -14    1    3    3    0    0  0.11535364024E+03  0.67357494817E+01 -0.67559747751E+03  0.68540775037E+03  0.00000000000E+00 0.  1.
          5    1    4    4  501    0 -0.15591444994E+02  0.75537567000E+02  0.99458683632E+02  0.12593061318E+03  0.41800000000E+01 0.  1.
         -5    1    4    4    0  501 -0.50376031260E+02 -0.44310758245E+02  0.10300144360E+03  0.12299576255E+03  0.41800000000E+01 0.  1.
</event>
<event>
11    1  0.8299058E-009  0.1548100E+03  0.7561462E-02  0.1092063E+00
         22   -1    0    0    0    0  0.00000000000E+00  0.00000000000E+00  0.83670072873E+03  0.83670072873E+03  0.00000000000E+00 0. -1.
         22   -1    0    0    0    0 -0.00000000000E+00 -0.00000000000E+00 -0.33598624315E+03  0.33598624315E+03  0.00000000000E+00 0.  1.
        -24    2    1    2    0    0 -0.50471274559E+02 -0.73798016889E+02 -0.28407221038E+03  0.30882054496E+03  0.81728889774E+02 0.  0.
         25    2    1    2    0    0  0.41756932053E+02  0.12107982174E+03  0.18832580537E+03  0.25984168751E+03  0.12508848464E+03 0.  0.
         24    2    1    2    0    0  0.87143425058E+01 -0.47281804850E+02  0.59646089059E+03  0.60402473942E+03  0.82272613861E+02 0.  0.
        -13    1    5    5    0    0  0.94955941708E+01 -0.40972091252E+02  0.11381975606E+03  0.12134173000E+03  0.00000000000E+00 0.  1.
         14    1    5    5    0    0 -0.78125166494E+00 -0.63097135977E+01  0.48264113453E+03  0.48268300941E+03  0.00000000000E+00 0. -1.
         13    1    3    3    0    0  0.10342221937E+02  0.89802862345E+01 -0.12775685592E+02  0.18730329356E+02  0.00000000000E+00 0. -1.
        -14    1    3    3    0    0 -0.60813496496E+02 -0.82778303123E+02 -0.27129652479E+03  0.29009021560E+03  0.00000000000E+00 0.  1.
          5    1    4    4  501    0  0.51740751090E+02  0.13761990358E+03  0.12346250075E+03  0.19203334261E+03  0.41800000000E+01 0.  1.
         -5    1    4    4    0  501 -0.99838190369E+01 -0.16540081842E+02  0.64863304627E+02  0.67808344893E+02  0.41800000000E+01 0.  1.
</event>
<event>
11    1  0.8299058E-009  0.1383074E+03  0.7561462E-02  0.1109463E+00
         22   -1    0    0    0    0  0.00000000000E+00  0.00000000000E+00  0.37861340684E+02  0.37861340684E+02  0.00000000000E+00 0.  1.
         22   -1    0    0    0    0 -0.00000000000E+00 -0.00000000000E+00 -0.28293871870E+04  0.28293871870E+04  0.00000000000E+00 0.  1.
         24    2    1    2    0    0 -0.30320961110E+01 -0.14807581279E+02 -0.12469104341E+04  0.12496133846E+04  0.80743558415E+02 0.  0.
         25    2    1    2    0    0  0.65121066724E+01  0.73003133146E+02 -0.15028486617E+04  0.15098254997E+04  0.12508826661E+03 0.  0.
        -24    2    1    2    0    0 -0.34800105614E+01 -0.58195551867E+02 -0.41766750522E+02  0.10780964344E+03  0.80496118162E+02 0.  0.
        -13    1    3    3    0    0  0.30789599718E+02 -0.35987950284E+01 -0.95980432795E+03  0.96030479471E+03  0.00000000000E+00 0.  1.
         14    1    3    3    0    0 -0.33821695829E+02 -0.11208786251E+02 -0.28710610610E+03  0.28930858985E+03  0.00000000000E+00 0. -1.
         13    1    5    5    0    0  0.15197173368E+02  0.86360043093E+01 -0.33682589760E+02  0.37948010511E+02  0.00000000000E+00 0. -1.
        -14    1    5    5    0    0 -0.18677183929E+02 -0.66831556176E+02 -0.80841607615E+01  0.69861632930E+02  0.00000000000E+00 0.  1.
          5    1    4    4  501    0 -0.16303353178E+02 -0.16533163617E+02 -0.86340103357E+03  0.86372331334E+03  0.41800000000E+01 0. -1.
         -5    1    4    4    0  501  0.22815459851E+02  0.89536296763E+02 -0.63944762816E+03  0.64610218635E+03  0.41800000000E+01 0. -1.
</event>
<event>
11    1  0.8299058E-009  0.1447283E+03  0.7561462E-02  0.1102390E+00
         22   -1    0    0    0    0  0.00000000000E+00  0.00000000000E+00  0.29863882239E+03  0.29863882239E+03  0.00000000000E+00 0. -1.
         22   -1    0    0    0    0 -0.00000000000E+00 -0.00000000000E+00 -0.60018063986E+03  0.60018063986E+03  0.00000000000E+00 0. -1.
        -24    2    1    2    0    0 -0.71243437018E+02 -0.25207470194E+01 -0.52127672205E+03  0.53224105788E+03  0.80430972042E+02 0.  0.
         25    2    1    2    0    0  0.10107939646E+03  0.98888338138E+01  0.41422140914E+02  0.16636586796E+03  0.12508786848E+03 0.  0.
         24    2    1    2    0    0 -0.29835959438E+02 -0.73680867944E+01  0.17831276366E+03  0.20021253640E+03  0.85703820628E+02 0.  0.
        -11    1    5    5    0    0  0.26506451625E+02 -0.18514257192E+02  0.48837656066E+02  0.58570353825E+02  0.00000000000E+00 0.  1.
         12    1    5    5    0    0 -0.56342411064E+02  0.11146170398E+02  0.12947510759E+03  0.14164218258E+03  0.00000000000E+00 0. -1.
         11    1    3    3    0    0 -0.13595295277E+02  0.15286147983E+02 -0.35091100368E+03  0.35150680061E+03  0.00000000000E+00 0. -1.
        -12    1    3    3    0    0 -0.57648141741E+02 -0.17806895003E+02 -0.17036571837E+03  0.18073425727E+03  0.00000000000E+00 0.  1.
          5    1    4    4  501    0 -0.21979624154E+02  0.11045839647E+02  0.35104212504E+02  0.43068463950E+02  0.41800000000E+01 0.  1.
         -5    1    4    4    0  501  0.12305902061E+03 -0.11570058328E+01  0.63179284097E+01  0.12329740401E+03  0.41800000000E+01 0.  1.
</event>
<event>
11    1  0.8299058E-009  0.2920108E+03  0.7561462E-02  0.1003630E+00
         22   -1    0    0    0    0  0.00000000000E+00  0.00000000000E+00  0.61684091317E+03  0.61684091317E+03  0.00000000000E+00 0.  1.
         22   -1    0    0    0    0 -0.00000000000E+00 -0.00000000000E+00 -0.36758051610E+03  0.36758051610E+03  0.00000000000E+00 0. -1.
         24    2    1    2    0    0  0.86419222192E+01 -0.77147506821E+02 -0.18469504645E+03  0.21623056150E+03  0.81344790339E+02 0.  0.
         25    2    1    2    0    0 -0.29271753760E+02  0.31878329210E+03  0.12261632647E+03  0.36491316542E+03  0.12508889595E+03 0.  0.
        -24    2    1    2    0    0  0.20629831541E+02 -0.24163578528E+03  0.31133911704E+03  0.40327770234E+03  0.82990461687E+02 0.  0.
        -13    1    3    3    0    0 -0.26980658557E+02 -0.12831033781E+02 -0.98535356546E+02  0.10296508075E+03  0.00000000000E+00 0.  1.
         14    1    3    3    0    0  0.35622580777E+02 -0.64316473039E+02 -0.86159689903E+02  0.11326548075E+03  0.00000000000E+00 0. -1.
         13    1    5    5    0    0  0.22622407935E+02 -0.16787549046E+02  0.58414928761E+02  0.64852903142E+02  0.00000000000E+00 0. -1.
        -14    1    5    5    0    0 -0.19925763944E+01 -0.22484823623E+03  0.25292418828E+03  0.33842479920E+03  0.00000000000E+00 0.  1.
          5    1    4    4  501    0  0.39746684306E+02  0.40302752680E+02  0.19995266250E+02  0.60178018074E+02  0.41800000000E+01 0. -1.
         -5    1    4    4    0  501 -0.69018438066E+02  0.27848053942E+03  0.10262106022E+03  0.30473514735E+03  0.41800000000E+01 0. -1.
</event>
<event>
11    1  0.8299058E-009  0.1759870E+03  0.7561462E-02  0.1072936E+00
         22   -1    0    0    0    0  0.00000000000E+00  0.00000000000E+00  0.14915885990E+04  0.14915885990E+04  0.00000000000E+00 0. -1.
         22   -1    0    0    0    0 -0.00000000000E+00 -0.00000000000E+00 -0.22873264510E+03  0.22873264510E+03  0.00000000000E+00 0.  1.
        -24    2    1    2    0    0  0.38380723464E+02 -0.47240552866E+02 -0.18489200807E+03  0.21079286063E+03  0.80893916183E+02 0.  0.
         25    2    1    2    0    0 -0.14242512111E+03 -0.16897873039E+02  0.32026691511E+03  0.37254503496E+03  0.12509377652E+03 0.  0.
         24    2    1    2    0    0  0.10404439764E+03  0.64138425905E+02  0.11274810469E+04  0.11369833485E+04  0.81108873702E+02 0.  0.
        -13    1    5    5    0    0  0.38776139917E+02  0.71156343105E+02  0.62897886336E+03  0.63417759716E+03  0.00000000000E+00 0.  1.
         14    1    5    5    0    0  0.65268257727E+02 -0.70179172008E+01  0.49850218352E+03  0.50280575136E+03  0.00000000000E+00 0. -1.
         11    1    3    3    0    0 -0.37051001440E+01  0.19633187763E+02 -0.57644907951E+02  0.61009222594E+02  0.00000000000E+00 0. -1.
        -12    1    3    3    0    0  0.42085823608E+02 -0.66873740628E+02 -0.12724710012E+03  0.14978363804E+03  0.00000000000E+00 0.  1.
          5    1    4    4  501    0  0.20411213124E+02  0.54248002809E+01  0.16451100494E+02  0.27095335147E+02  0.41800000000E+01 0.  1.
         -5    1    4    4    0  501 -0.16283633423E+03 -0.22322673320E+02  0.30381581462E+03  0.34544969981E+03  0.41800000000E+01 0.  1.
</event>
<event>
11    1  0.8299058E-009  0.1491097E+03  0.7561462E-02  0.1097792E+00
         22   -1    0    0    0    0  0.00000000000E+00  0.00000000000E+00  0.15721069177E+04  0.15721069177E+04  0.00000000000E+00 0.  1.
         22   -1    0    0    0    0 -0.00000000000E+00 -0.00000000000E+00 -0.99533719366E+02  0.99533719366E+02  0.00000000000E+00 0.  1.
        -24    2    1    2    0    0  0.82292101598E+02 -0.28702576596E+02 -0.19040587332E+02  0.11971448514E+03  0.79832237213E+02 0.  0.
         25    2    1    2    0    0 -0.69877503370E+02 -0.38987351469E+02  0.16869850493E+03  0.22474724556E+03  0.12509700144E+03 0.  0.
         24    2    1    2    0    0 -0.12414598228E+02  0.67689928065E+02  0.13229152807E+04  0.13271789064E+04  0.81012103347E+02 0.  0.
        -13    1    5    5    0    0 -0.28339640574E+01  0.57087954696E+02  0.12903633797E+04  0.12916287074E+04  0.00000000000E+00 0.  1.
         14    1    5    5    0    0 -0.95806341701E+01  0.10601973369E+02  0.32551901005E+02  0.35550199007E+02  0.00000000000E+00 0. -1.
         13    1    3    3    0    0  0.74769030315E+01 -0.37380824482E+02  0.93047008418E+01  0.39240381951E+02  0.00000000000E+00 0. -1.
        -14    1    3    3    0    0  0.74815198566E+02  0.86782478864E+01 -0.28345288173E+02  0.80474103192E+02  0.00000000000E+00 0.  1.
          5    1    4    4  501    0 -0.78742019097E+02  0.22738239988E+02  0.12064245240E+03  0.14590889915E+03  0.41800000000E+01 0.  1.
         -5    1    4    4    0  501  0.88645157270E+01 -0.61725591458E+02  0.48056052527E+02  0.78838346408E+02  0.41800000000E+01 0.  1.
</event>
<event>
11    1  0.8299058E-009  0.1480719E+03  0.7561462E-02  0.1098865E+00
         22   -1    0    0    0    0  0.00000000000E+00  0.00000000000E+00  0.13910273551E+04  0.13910273551E+04  0.00000000000E+00 0.  1.
         22   -1    0    0    0    0 -0.00000000000E+00 -0.00000000000E+00 -0.70080610090E+03  0.70080610090E+03  0.00000000000E+00 0.  1.
         24    2    1    2    0    0 -0.85114860053E+00 -0.65376138038E+02 -0.62927522697E+03  0.63781943570E+03  0.80941691366E+02 0.  0.
         25    2    1    2    0    0 -0.22684974112E+02  0.13858210843E+03  0.71879648987E+02  0.20132887970E+03  0.12508806911E+03 0.  0.
        -24    2    1    2    0    0  0.23536122712E+02 -0.73205970394E+02  0.12476168321E+04  0.12526851406E+04  0.82214587336E+02 0.  0.
        -13    1    3    3    0    0 -0.40233899674E+02 -0.29189448406E+02 -0.34418266159E+03  0.34775349764E+03  0.00000000000E+00 0.  1.
         14    1    3    3    0    0  0.39382751074E+02 -0.36186689633E+02 -0.28509256538E+03  0.29006593807E+03  0.00000000000E+00 0. -1.
         13    1    5    5    0    0  0.31804540846E+02 -0.55309302180E+02  0.41863311378E+03  0.42346703730E+03  0.00000000000E+00 0. -1.
        -14    1    5    5    0    0 -0.82684181339E+01 -0.17896668214E+02  0.82898371835E+03  0.82921810325E+03  0.00000000000E+00 0.  1.
          5    1    4    4  501    0 -0.39145759544E+02  0.11515730948E+03 -0.22828838899E+01  0.12172214414E+03  0.41800000000E+01 0.  1.
         -5    1    4    4    0  501  0.16460785432E+02  0.23424798956E+02  0.74162532877E+02  0.79606735557E+02  0.41800000000E+01 0.  1.
</event>
<event>
11    1  0.8299058E-009  0.1528706E+03  0.7561462E-02  0.1093981E+00
         22   -1    0    0    0    0  0.00000000000E+00  0.00000000000E+00  0.45573992522E+03  0.45573992522E+03  0.00000000000E+00 0.  1.
         22   -1    0    0    0    0 -0.00000000000E+00 -0.00000000000E+00 -0.75512843225E+03  0.75512843225E+03  0.00000000000E+00 0. -1.
        -24    2    1    2    0    0 -0.59077354207E+02 -0.62847819054E+02 -0.65664749013E+03  0.66713924137E+03  0.80304787794E+02 0.  0.
         25    2    1    2    0    0  0.51904375178E+02  0.10734859621E+03 -0.21024308724E+01  0.17282954499E+03  0.12509135115E+03 0.  0.
         24    2    1    2    0    0  0.71729790298E+01 -0.44500777160E+02  0.35936141397E+03  0.37089957112E+03  0.79963086567E+02 0.  0.
        -13    1    5    5    0    0 -0.26620439203E+02 -0.41537740745E+02  0.28402222206E+03  0.28827530993E+03  0.00000000000E+00 0.  1.
         14    1    5    5    0    0  0.33793418233E+02 -0.29630364152E+01  0.75339191907E+02  0.82624261194E+02  0.00000000000E+00 0. -1.
         13    1    3    3    0    0 -0.35915172048E+02 -0.77221678597E+02 -0.56935708839E+03  0.57569139417E+03  0.00000000000E+00 0. -1.
        -14    1    3    3    0    0 -0.23162182160E+02  0.14373859543E+02 -0.87290401738E+02  0.91447847193E+02  0.00000000000E+00 0.  1.
          5    1    4    4  501    0  0.62481488402E+01  0.11720577858E+03 -0.25860242561E+02  0.12025996192E+03  0.41800000000E+01 0.  1.
         -5    1    4    4    0  501  0.45656226337E+02 -0.98571823615E+01  0.23757811689E+02  0.52569583066E+02  0.41800000000E+01 0.  1.
</event>
<event>
11    1  0.8299058E-009  0.1429101E+03  0.7561462E-02  0.1104352E+00
         22   -1    0    0    0    0  0.00000000000E+00  0.00000000000E+00  0.55310430241E+02  0.55310430241E+02  0.00000000000E+00 0. -1.
         22   -1    0    0    0    0 -0.00000000000E+00 -0.00000000000E+00 -0.13464471890E+04  0.13464471890E+04  0.00000000000E+00 0.  1.
         24    2    1    2    0    0 -0.23970023294E+01  0.13569173760E+02 -0.10536732724E+04  0.10568386462E+04  0.80564825603E+02 0.  0.
         25    2    1    2    0    0 -0.20008923127E+02  0.57440085977E+02 -0.14934577691E+03  0.20409138794E+03  0.12509761416E+03 0.  0.
        -24    2    1    2    0    0  0.22405925456E+02 -0.71009259737E+02 -0.88117709466E+02  0.14082758508E+03  0.80767181043E+02 0.  0.
        -11    1    3    3    0    0 -0.33263930890E+02  0.27126255398E+02 -0.76504999840E+03  0.76625310628E+03  0.00000000000E+00 0.  1.
         12    1    3    3    0    0  0.30866928560E+02 -0.13557081638E+02 -0.28862327396E+03  0.29058553992E+03  0.00000000000E+00 0. -1.
         11    1    5    5    0    0 -0.26929497783E+02 -0.12461061666E+02 -0.96657873124E+01  0.31207424647E+02  0.00000000000E+00 0. -1.
        -12    1    5    5    0    0  0.49335423239E+02 -0.58548198070E+02 -0.78451922154E+02  0.10962016043E+03  0.00000000000E+00 0.  1.
          5    1    4    4  501    0 -0.53359692484E+02  0.77037015914E+01 -0.13036210608E+03  0.14113240203E+03  0.41800000000E+01 0.  1.
         -5    1    4    4    0  501  0.33350769357E+02  0.49736384386E+02 -0.18983670826E+02  0.62958985907E+02  0.41800000000E+01 0.  1.
</event>
<event>
11    1  0.8299058E-009  0.1432331E+03  0.7561462E-02  0.1104001E+00
         22   -1    0    0    0    0  0.00000000000E+00  0.00000000000E+00  0.26790399531E+03  0.26790399531E+03  0.00000000000E+00 0.  1.
         22   -1    0    0    0    0 -0.00000000000E+00 -0.00000000000E+00 -0.89538927751E+03  0.89538927751E+03  0.00000000000E+00 0. -1.
        -24    2    1    2    0    0 -0.41520816436E+01  0.15129238940E+02 -0.80409819804E+03  0.80841173378E+03  0.81911449544E+02 0.  0.
         25    2    1    2    0    0  0.63955036325E+02 -0.47531650727E+02 -0.14830851992E+01  0.14832056302E+03  0.12508910977E+03 0.  0.
         24    2    1    2    0    0 -0.59802954681E+02  0.32402411787E+02  0.17809600104E+03  0.20656097601E+03  0.79516926166E+02 0.  0.
        -11    1    5    5    0    0 -0.30119106784E+02  0.30401349808E+02  0.17059214596E+03  0.17587803424E+03  0.00000000000E+00 0.  1.
         12    1    5    5    0    0 -0.29683847897E+02  0.20010619788E+01  0.75038550801E+01  0.30682941777E+02  0.00000000000E+00 0. -1.
         13    1    3    3    0    0  0.32628129486E+02 -0.95765700161E+00 -0.56701526942E+03  0.56795407182E+03  0.00000000000E+00 0. -1.
        -14    1    3    3    0    0 -0.36780211129E+02  0.16086895942E+02 -0.23708292862E+03  0.24045766196E+03  0.00000000000E+00 0.  1.
          5    1    4    4  501    0  0.81782614750E+02  0.10513366552E+02  0.17830607349E+02  0.84464962618E+02  0.41800000000E+01 0.  1.
         -5    1    4    4    0  501 -0.17827578426E+02 -0.58045017279E+02 -0.19313692548E+02  0.63855600406E+02  0.41800000000E+01 0.  1.
</event>
<event>
11    1  0.8299058E-009  0.2421370E+03  0.7561462E-02  0.1028173E+00
         22   -1    0    0    0    0  0.00000000000E+00  0.00000000000E+00  0.39715986736E+03  0.39715986736E+03  0.00000000000E+00 0. -1.
         22   -1    0    0    0    0 -0.00000000000E+00 -0.00000000000E+00 -0.43478407390E+03  0.43478407390E+03  0.00000000000E+00 0. -1.
         24    2    1    2    0    0  0.26891689178E+03  0.66111118877E+02 -0.22286943599E+03  0.36476244148E+03  0.81816126119E+02 0.  0.
         25    2    1    2    0    0 -0.13509520930E+03 -0.86019850397E+01 -0.38664455081E+02  0.18832602183E+03  0.12508813170E+03 0.  0.
        -24    2    1    2    0    0 -0.13382168249E+03 -0.57509133837E+02  0.22390968454E+03  0.27885547795E+03  0.80058026280E+02 0.  0.
        -11    1    3    3    0    0  0.49013637711E+02 -0.50728914442E+01 -0.77090171277E+02  0.91492980150E+02  0.00000000000E+00 0.  1.
         12    1    3    3    0    0  0.21990325407E+03  0.71184010321E+02 -0.14577926471E+03  0.27326946133E+03  0.00000000000E+00 0. -1.
         11    1    5    5    0    0 -0.38383322766E+02 -0.50888957621E+02  0.13006245559E+03  0.14484200989E+03  0.00000000000E+00 0. -1.
        -12    1    5    5    0    0 -0.95438359723E+02 -0.66201762158E+01  0.93847228948E+02  0.13401346806E+03  0.00000000000E+00 0.  1.
          5    1    4    4  501    0  0.20211048465E+02 -0.19390647439E+02 -0.23821862436E+01  0.28418847610E+02  0.41800000000E+01 0. -1.
         -5    1    4    4    0  501 -0.15530625776E+03  0.10788662400E+02 -0.36282268838E+02  0.15990717422E+03  0.41800000000E+01 0. -1.
</event>
<event>
11    1  0.8299058E-009  0.1337110E+03  0.7561462E-02  0.1114792E+00
         22   -1    0    0    0    0  0.00000000000E+00  0.00000000000E+00  0.24141816286E+04  0.24141816286E+04  0.00000000000E+00 0.  1.
         22   -1    0    0    0    0 -0.00000000000E+00 -0.00000000000E+00 -0.12064128238E+03  0.12064128238E+03  0.00000000000E+00 0. -1.
         24    2    1    2    0    0 -0.22956964721E+02 -0.22722542932E+02 -0.46512604324E+02  0.96428813194E+02  0.78049711508E+02 0.  0.
         25    2    1    2    0    0  0.65146996757E+02  0.19834992750E+01  0.55117129276E+02  0.15143847845E+03  0.12509056463E+03 0.  0.
        -24    2    1    2    0    0 -0.42190032036E+02  0.20739043657E+02  0.22849358213E+04  0.22869556193E+04  0.83810445590E+02 0.  0.
        -13    1    3    3    0    0 -0.17240054806E+02 -0.17537462599E+02  0.18616458225E+02  0.30844036717E+02  0.00000000000E+00 0.  1.
         14    1    3    3    0    0 -0.57169099147E+01 -0.51850803327E+01 -0.65129062549E+02  0.65584776477E+02  0.00000000000E+00 0. -1.
         13    1    5    5    0    0  0.17668741070E+02 -0.13778063631E+02  0.91912000143E+03  0.91939305875E+03  0.00000000000E+00 0. -1.
        -14    1    5    5    0    0 -0.59858773105E+02  0.34517107288E+02  0.13658158198E+04  0.13675625606E+04  0.00000000000E+00 0.  1.
          5    1    4    4  501    0  0.78505136896E+02  0.29632578335E+02  0.76629801753E+02  0.11371343427E+03  0.41800000000E+01 0. -1.
         -5    1    4    4    0  501 -0.13358140139E+02 -0.27649079060E+02 -0.21512672477E+02  0.37725044174E+02  0.41800000000E+01 0. -1.
</event>
<event>
11    1  0.8299058E-009  0.1389143E+03  0.7561462E-02  0.1108777E+00
         22   -1    0    0    0    0  0.00000000000E+00  0.00000000000E+00  0.15728176415E+04  0.15728176415E+04  0.00000000000E+00 0. -1.
         22   -1    0    0    0    0 -0.00000000000E+00 -0.00000000000E+00 -0.24312454248E+03  0.24312454248E+03  0.00000000000E+00 0.  1.
         24    2    1    2    0    0  0.57752367473E+02  0.32218221088E+02 -0.12867613840E+03  0.16463725144E+03  0.78578153777E+02 0.  0.
         25    2    1    2    0    0 -0.31978470705E+02 -0.34833812492E+02 -0.48309872270E+02  0.14219710795E+03  0.12510058621E+03 0.  0.
        -24    2    1    2    0    0 -0.25773896769E+02  0.26155914040E+01  0.15066791097E+04  0.15091078245E+04  0.81568079228E+02 0.  0.
        -13    1    3    3    0    0  0.13020616060E+02  0.38333840633E+02 -0.10730208181E+03  0.11468546787E+03  0.00000000000E+00 0.  1.
         14    1    3    3    0    0  0.44731751413E+02 -0.61156195455E+01 -0.21374056587E+02  0.49951783571E+02  0.00000000000E+00 0. -1.
         11    1    5    5    0    0 -0.26855089124E+02 -0.12274726929E+02  0.14554027942E+04  0.14557022903E+04  0.00000000000E+00 0. -1.
        -12    1    5    5    0    0  0.10811923555E+01  0.14890318333E+02  0.51276315490E+02  0.53405534237E+02  0.00000000000E+00 0.  1.
          5    1    4    4  501    0 -0.28404742397E-01 -0.72674519583E+01 -0.85429954416E+02  0.85840352844E+02  0.41800000000E+01 0. -1.
         -5    1    4    4    0  501 -0.31950065962E+02 -0.27566360533E+02  0.37120082146E+02  0.56356755111E+02  0.41800000000E+01 0. -1.
</event>
<event>
11    1  0.8299058E-009  0.4316859E+03  0.7561462E-02  0.9560632E-01
         22   -1    0    0    0    0  0.00000000000E+00  0.00000000000E+00  0.32365283641E+03  0.32365283641E+03  0.00000000000E+00 0. -1.
         22   -1    0    0    0    0 -0.00000000000E+00 -0.00000000000E+00 -0.22618425338E+04  0.22618425338E+04  0.00000000000E+00 0. -1.
         24    2    1    2    0    0  0.41128750470E+03  0.10108084579E+03 -0.17379105203E+04  0.17907403869E+04  0.83925012338E+02 0.  0.
         25    2    1    2    0    0 -0.35203257461E+03 -0.15432033457E+03 -0.39746926685E+03  0.56689542406E+03  0.12508758725E+03 0.  0.
        -24    2    1    2    0    0 -0.59254930092E+02  0.53239488783E+02  0.19719008974E+03  0.22785955929E+03  0.81795215998E+02 0.  0.
        -11    1    3    3    0    0  0.55599784111E+00  0.78187834055E+00 -0.72269884064E+02  0.72276252047E+02  0.00000000000E+00 0.  1.
         12    1    3    3    0    0  0.41073150686E+03  0.10029896745E+03 -0.16656406362E+04  0.17184641348E+04  0.00000000000E+00 0. -1.
         13    1    5    5    0    0 -0.56970892531E+02  0.73412637497E+02  0.14948053266E+03  0.17601002126E+03  0.00000000000E+00 0. -1.
        -14    1    5    5    0    0 -0.22840375613E+01 -0.20173148714E+02  0.47709557078E+02  0.51849538023E+02  0.00000000000E+00 0.  1.
          5    1    4    4  501    0 -0.10542449079E+03 -0.68681536621E+02 -0.57933505363E+02  0.13858297217E+03  0.41800000000E+01 0. -1.
         -5    1    4    4    0  501 -0.24660808382E+03 -0.85638797951E+02 -0.33953576148E+03  0.42831245189E+03  0.41800000000E+01 0. -1.
</event>
<event>
11    1  0.9406707E-009  0.1600414E+03  0.7561462E-02  0.1087038E+00
         22   -1    0    0    0    0  0.00000000000E+00  0.00000000000E+00  0.16097708338E+03  0.16097708338E+03  0.00000000000E+00 0.  1.
         22   -1    0    0    0    0 -0.00000000000E+00 -0.00000000000E+00 -0.14154138078E+04  0.14154138078E+04  0.00000000000E+00 0.  1.
        -24    2    1    2    0    0  0.72793477849E+02  0.64933002225E+02 -0.99328572481E+03  0.10012991383E+04  0.80425419245E+02 0.  0.
         25    2    1    2    0    0 -0.14493474551E+03  0.27402387417E+01 -0.36295971570E+03  0.41036533337E+03  0.12508541979E+03 0.  0.
         24    2    1    2    0    0  0.72141267665E+02 -0.67673240967E+02  0.10180871612E+03  0.16472641947E+03  0.83580790547E+02 0.  0.
        -13    1    5    5    0    0  0.14158388298E+02 -0.67643281507E+02  0.70941687756E+02  0.99039368707E+02  0.00000000000E+00 0.  1.
         14    1    5    5    0    0  0.57982879367E+02 -0.29959460209E-01  0.30867028366E+02  0.65687050759E+02  0.00000000000E+00 0. -1.
         13    1    3    3    0    0  0.42331308581E+02  0.33006361753E+02 -0.20934071029E+03  0.21611314765E+03  0.00000000000E+00 0. -1.
        -14    1    3    3    0    0  0.30462169268E+02  0.31926640472E+02 -0.78394501452E+03  0.78518599065E+03  0.00000000000E+00 0.  1.
          5    1    4    4  501    0 -0.14160601012E+03  0.45016104913E+02 -0.27391739095E+03  0.31165192325E+03  0.41800000000E+01 0. -1.
         -5    1    4    4    0  501 -0.33287353979E+01 -0.42275866171E+02 -0.89042324755E+02  0.98713410121E+02  0.41800000000E+01 0. -1.
</event>
<event>
11    1  0.1404297E-008  0.1734711E+03  0.7561462E-02  0.1075050E+00
         22   -1    0    0    0    0  0.00000000000E+00  0.00000000000E+00  0.28894966881E+03  0.28894966881E+03  0.00000000000E+00 0. -1.
         22   -1    0    0    0    0 -0.00000000000E+00 -0.00000000000E+00 -0.16944170485E+04  0.16944170485E+04  0.00000000000E+00 0. -1.
        -24    2    1    2    0    0 -0.72949127403E+02 -0.96543677132E+02 -0.14179189046E+04  0.14256474725E+04  0.85641340339E+02 0.  0.
         25    2    1    2    0    0  0.30462799966E+00  0.13777556541E+03 -0.22164643573E+03  0.28940662571E+03  0.12508738270E+03 0.  0.
         24    2    1    2    0    0  0.72644499403E+02 -0.41231888279E+02  0.23409796062E+03  0.26831261907E+03  0.10105698631E+03 0.  0.
        -13    1    5    5    0    0 -0.21500819567E+01 -0.46920566308E+02  0.14180596320E+03  0.14938237377E+03  0.00000000000E+00 0.  1.
         14    1    5    5    0    0  0.74794581360E+02  0.56886780288E+01  0.92291997420E+02  0.11893024530E+03  0.00000000000E+00 0. -1.
         11    1    3    3    0    0 -0.35763987832E+02 -0.71041131650E+02 -0.12229048280E+04  0.12254885245E+04  0.00000000000E+00 0. -1.
        -12    1    3    3    0    0 -0.37185139571E+02 -0.25502545482E+02 -0.19501407655E+03  0.20015894805E+03  0.00000000000E+00 0.  1.
          5    1    4    4  501    0  0.12797079001E+02 -0.14454090927E+01 -0.10899813511E+03  0.10983587891E+03  0.41800000000E+01 0.  1.
         -5    1    4    4    0  501 -0.12492451001E+02  0.13922097450E+03 -0.11264830062E+03  0.17957074680E+03  0.41800000000E+01 0.  1.
</event>
<event>
11    1  0.8299058E-009  0.1455179E+03  0.7561462E-02  0.1101549E+00
         22   -1    0    0    0    0  0.00000000000E+00  0.00000000000E+00  0.52122730749E+03  0.52122730749E+03  0.00000000000E+00 0. -1.
         22   -1    0    0    0    0 -0.00000000000E+00 -0.00000000000E+00 -0.46315795237E+03  0.46315795237E+03  0.00000000000E+00 0. -1.
         24    2    1    2    0    0  0.42418319172E+01  0.71742787393E+02 -0.39946183111E+03  0.41405273112E+03  0.81883386315E+02 0.  0.
         25    2    1    2    0    0 -0.22069381244E+02 -0.12924018021E+03  0.11504599544E+03  0.21464750692E+03  0.12509152406E+03 0.  0.
        -24    2    1    2    0    0  0.17827549327E+02  0.57497392813E+02  0.34248519079E+03  0.35568502181E+03  0.74779389763E+02 0.  0.
        -11    1    3    3    0    0 -0.29711297312E+02  0.39807703541E+02 -0.10785301041E+03  0.11874209997E+03  0.00000000000E+00 0.  1.
         12    1    3    3    0    0  0.33953129229E+02  0.31935083851E+02 -0.29160882070E+03  0.29531063116E+03  0.00000000000E+00 0. -1.
         13    1    5    5    0    0 -0.20951740670E+02  0.14056036090E+02  0.20257589169E+03  0.20414097943E+03  0.00000000000E+00 0. -1.
        -14    1    5    5    0    0  0.38779289997E+02  0.43441356723E+02  0.13990929910E+03  0.15154404239E+03  0.00000000000E+00 0.  1.
          5    1    4    4  501    0 -0.25702925981E+02 -0.79962584551E+02 -0.55253283931E+01  0.84277262568E+02  0.41800000000E+01 0.  1.
         -5    1    4    4    0  501  0.36335447366E+01 -0.49277595654E+02  0.12057132384E+03  0.13037024435E+03  0.41800000000E+01 0.  1.
</event>
<event>
11    1  0.8299058E-009  0.1774006E+03  0.7561462E-02  0.1071765E+00
         22   -1    0    0    0    0  0.00000000000E+00  0.00000000000E+00  0.11826973104E+04  0.11826973104E+04  0.00000000000E+00 0. -1.
         22   -1    0    0    0    0 -0.00000000000E+00 -0.00000000000E+00 -0.10427554356E+04  0.10427554356E+04  0.00000000000E+00 0. -1.
        -24    2    1    2    0    0 -0.47284058533E+02 -0.66818187316E+01 -0.10001188031E+04  0.10045817394E+04  0.81648159292E+02 0.  0.
         25    2    1    2    0    0  0.51465204259E+01  0.12646877139E+03  0.19525232943E+03  0.26418178586E+03  0.12509079512E+03 0.  0.
         24    2    1    2    0    0  0.42137538107E+02 -0.11978695266E+03  0.94480834851E+03  0.95668922080E+03  0.80417433749E+02 0.  0.
        -13    1    5    5    0    0  0.19702499475E+02 -0.15173557014E+02  0.53675226327E+02  0.59156193583E+02  0.00000000000E+00 0.  1.
         14    1    5    5    0    0  0.22435038632E+02 -0.10461339564E+03  0.89113312218E+03  0.89753302722E+03  0.00000000000E+00 0. -1.
         11    1    3    3    0    0  0.59857573787E+01  0.17088175350E+02 -0.59596603567E+03  0.59624101729E+03  0.00000000000E+00 0. -1.
        -12    1    3    3    0    0 -0.53269815911E+02 -0.23769994081E+02 -0.40415276746E+03  0.40834072213E+03  0.00000000000E+00 0.  1.
          5    1    4    4  501    0  0.20140230621E+02  0.14029385911E+03  0.11891770644E+03  0.18505915027E+03  0.41800000000E+01 0. -1.
         -5    1    4    4    0  501 -0.14993710195E+02 -0.13825087719E+02  0.76334622990E+02  0.79122635591E+02  0.41800000000E+01 0. -1.
</event>
<event>
11    1  0.8299058E-009  0.1978456E+03  0.7561462E-02  0.1056058E+00
         22   -1    0    0    0    0  0.00000000000E+00  0.00000000000E+00  0.16667054804E+04  0.16667054804E+04  0.00000000000E+00 0.  1.
         22   -1    0    0    0    0 -0.00000000000E+00 -0.00000000000E+00 -0.90696696222E+03  0.90696696222E+03  0.00000000000E+00 0.  1.
        -24    2    1    2    0    0 -0.14687261579E+03 -0.43549956496E+02 -0.83806350812E+03  0.85593314756E+03  0.82479970083E+02 0.  0.
         25    2    1    2    0    0  0.13467359551E+03  0.90029574089E+02  0.12055704989E+03  0.23753677066E+03  0.12508962226E+03 0.  0.
         24    2    1    2    0    0  0.12199020279E+02 -0.46479617593E+02  0.14772449764E+04  0.14802025244E+04  0.80234792738E+02 0.  0.
        -11    1    5    5    0    0 -0.77780014631E+01 -0.34428274747E+02  0.13697580060E+04  0.13702126837E+04  0.00000000000E+00 0.  1.
         12    1    5    5    0    0  0.19977021742E+02 -0.12051342846E+02  0.10748697033E+03  0.10998984068E+03  0.00000000000E+00 0. -1.
         11    1    3    3    0    0 -0.21194608877E+02 -0.12992357307E+01 -0.28269396121E+02  0.35356162348E+02  0.00000000000E+00 0. -1.
        -12    1    3    3    0    0 -0.12567800691E+03 -0.42250720765E+02 -0.80979411200E+03  0.82057698521E+03  0.00000000000E+00 0.  1.
          5    1    4    4  501    0  0.12819127848E+03  0.11236068945E+03  0.75128855415E+02  0.18633235287E+03  0.41800000000E+01 0.  1.
         -5    1    4    4    0  501  0.64823170344E+01 -0.22331115363E+02  0.45428194471E+02  0.51204417782E+02  0.41800000000E+01 0.  1.
</event>
<event>
11    1  0.8586350E-009  0.1568507E+03  0.7561462E-02  0.1090077E+00
         22   -1    0    0    0    0  0.00000000000E+00  0.00000000000E+00  0.68264774196E+03  0.68264774196E+03  0.00000000000E+00 0. -1.
         22   -1    0    0    0    0 -0.00000000000E+00 -0.00000000000E+00 -0.83070123787E+03  0.83070123787E+03  0.00000000000E+00 0.  1.
        -24    2    1    2    0    0 -0.84720395527E+02  0.42397084627E+02 -0.67026585095E+03  0.68188144785E+03  0.82042304709E+02 0.  0.
         25    2    1    2    0    0  0.12636970948E+03  0.55676134733E+02 -0.90231368614E+02  0.20702388836E+03  0.12509218608E+03 0.  0.
         24    2    1    2    0    0 -0.41649313954E+02 -0.98073219360E+02  0.61244372366E+03  0.62444364362E+03  0.59072224417E+02 0.  0.
        -11    1    5    5    0    0 -0.33967190717E+02 -0.14267823373E+02  0.15455686642E+03  0.15888727383E+03  0.00000000000E+00 0.  1.
         12    1    5    5    0    0 -0.76821232371E+01 -0.83805395987E+02  0.45788685724E+03  0.46555636978E+03  0.00000000000E+00 0. -1.
         13    1    3    3    0    0 -0.32062729272E+02  0.28733248292E+02 -0.98058201672E+02  0.10709355294E+03  0.00000000000E+00 0. -1.
        -14    1    3    3    0    0 -0.52657666255E+02  0.13663836336E+02 -0.57220764928E+03  0.57478789491E+03  0.00000000000E+00 0.  1.
          5    1    4    4  501    0  0.12929523762E+03  0.68658411215E+02 -0.10976434898E+03  0.18302163973E+03  0.41800000000E+01 0. -1.
         -5    1    4    4    0  501 -0.29255281425E+01 -0.12982276482E+02  0.19532980364E+02  0.24002248633E+02  0.41800000000E+01 0. -1.
</event>
<event>
11    1  0.8299058E-009  0.1989706E+03  0.7561462E-02  0.1055254E+00
         22   -1    0    0    0    0  0.00000000000E+00  0.00000000000E+00  0.28500825971E+03  0.28500825971E+03  0.00000000000E+00 0. -1.
         22   -1    0    0    0    0 -0.00000000000E+00 -0.00000000000E+00 -0.17837911476E+04  0.17837911476E+04  0.00000000000E+00 0. -1.
         24    2    1    2    0    0  0.15160604280E+03  0.14533438430E+02 -0.10018116426E+04  0.10163989646E+04  0.79023256885E+02 0.  0.
         25    2    1    2    0    0 -0.15976907659E+03  0.65188258486E+02 -0.74784015531E+03  0.77761688246E+03  0.12508977220E+03 0.  0.
        -24    2    1    2    0    0  0.81630337909E+01 -0.79721696916E+02  0.25086890995E+03  0.27478356023E+03  0.78413078705E+02 0.  0.
        -11    1    3    3    0    0  0.16841362902E+02  0.13117092670E+02 -0.41421599403E+02  0.46598696565E+02  0.00000000000E+00 0.  1.
         12    1    3    3    0    0  0.13476467990E+03  0.14163457596E+01 -0.96039004316E+03  0.96980026808E+03  0.00000000000E+00 0. -1.
         13    1    5    5    0    0  0.31200344215E+02 -0.60371382372E+02  0.22521762604E+03  0.23524698588E+03  0.00000000000E+00 0. -1.
        -14    1    5    5    0    0 -0.23037310424E+02 -0.19350314545E+02  0.25651283909E+02  0.39536574342E+02  0.00000000000E+00 0.  1.
          5    1    4    4  501    0 -0.85713474468E+02  0.88067620852E+02 -0.57718615435E+03  0.59013899611E+03  0.41800000000E+01 0.  1.
         -5    1    4    4    0  501 -0.74055602122E+02 -0.22879362365E+02 -0.17065400096E+03  0.18747788636E+03  0.41800000000E+01 0.  1.
</event>
<event>
11    1  0.8299058E-009  0.1335343E+03  0.7561462E-02  0.1115001E+00
         22   -1    0    0    0    0  0.00000000000E+00  0.00000000000E+00  0.57764350977E+03  0.57764350977E+03  0.00000000000E+00 0.  1.
         22   -1    0    0    0    0 -0.00000000000E+00 -0.00000000000E+00 -0.51599506782E+03  0.51599506782E+03  0.00000000000E+00 0.  1.
         24    2    1    2    0    0  0.45502256664E+02 -0.17575508214E+02 -0.47077742210E+03  0.48034524083E+03  0.81980579246E+02 0.  0.
         25    2    1    2    0    0 -0.98494532692E+00 -0.33545228613E+01  0.74278470257E+02  0.14552331817E+03  0.12509005575E+03 0.  0.
        -24    2    1    2    0    0 -0.44517311337E+02  0.20930031075E+02  0.45814739379E+03  0.46777001858E+03  0.80559907129E+02 0.  0.
        -13    1    3    3    0    0  0.53775463964E+02  0.98288886685E+01 -0.40412541848E+03  0.40780603408E+03  0.00000000000E+00 0.  1.
         14    1    3    3    0    0 -0.82732073000E+01 -0.27404396882E+02 -0.66652003627E+02  0.72539206744E+02  0.00000000000E+00 0. -1.
         13    1    5    5    0    0 -0.63465373370E+02 -0.33965479968E+01  0.30875834393E+03  0.31523182756E+03  0.00000000000E+00 0. -1.
        -14    1    5    5    0    0  0.18948062033E+02  0.24326579072E+02  0.14938904986E+03  0.15253819103E+03  0.00000000000E+00 0.  1.
          5    1    4    4  501    0  0.19913939086E+02  0.54341917832E+02  0.57677135046E+02  0.81815238866E+02  0.41800000000E+01 0. -1.
         -5    1    4    4    0  501 -0.20898884413E+02 -0.57696440693E+02  0.16601335211E+02  0.63708079308E+02  0.41800000000E+01 0. -1.
</event>
<event>
11    1  0.8299058E-009  0.1709127E+03  0.7561462E-02  0.1077240E+00
         22   -1    0    0    0    0  0.00000000000E+00  0.00000000000E+00  0.17673476691E+04  0.17673476691E+04  0.00000000000E+00 0. -1.
         22   -1    0    0    0    0 -0.00000000000E+00 -0.00000000000E+00 -0.26320966404E+03  0.26320966404E+03  0.00000000000E+00 0. -1.
        -24    2    1    2    0    0 -0.33814643007E+02  0.25342366668E+02 -0.23526273108E+03  0.25269992533E+03  0.81994109527E+02 0.  0.
         25    2    1    2    0    0  0.95842693971E+02 -0.11385295418E+03  0.60513789655E+03  0.63560052111E+03  0.12509129238E+03 0.  0.
         24    2    1    2    0    0 -0.62028050965E+02  0.88510587511E+02  0.11342628396E+04  0.11422568867E+04  0.80727955119E+02 0.  0.
        -13    1    5    5    0    0 -0.25515845573E+02 -0.11314628729E+02  0.28651507063E+03  0.28787143814E+03  0.00000000000E+00 0.  1.
         14    1    5    5    0    0 -0.36512205392E+02  0.99825216239E+02  0.84774776895E+03  0.85438544856E+03  0.00000000000E+00 0. -1.
         11    1    3    3    0    0  0.55442604623E+01 -0.26177939562E+02 -0.83054713492E+02  0.87258860737E+02  0.00000000000E+00 0. -1.
        -12    1    3    3    0    0 -0.39358903469E+02  0.51520306229E+02 -0.15220801759E+03  0.16544106460E+03  0.00000000000E+00 0.  1.
          5    1    4    4  501    0  0.68916515499E+02 -0.13616587441E+03  0.41417358406E+03  0.44141574689E+03  0.41800000000E+01 0. -1.
         -5    1    4    4    0  501  0.26926178472E+02  0.22312920232E+02  0.19096431249E+03  0.19418477423E+03  0.41800000000E+01 0. -1.
</event>
<event>
11    1  0.8299058E-009  0.1474959E+03  0.7561462E-02  0.1099465E+00
         22   -1    0    0    0    0  0.00000000000E+00  0.00000000000E+00  0.21798149002E+03  0.21798149002E+03  0.00000000000E+00 0.  1.
         22   -1    0    0    0    0 -0.00000000000E+00 -0.00000000000E+00 -0.86883687635E+03  0.86883687635E+03  0.00000000000E+00 0. -1.
         24    2    1    2    0    0 -0.78539125932E+02 -0.13797306516E+02 -0.74120134750E+03  0.74999775269E+03  0.82209680274E+02 0.  0.
         25    2    1    2    0    0  0.70416553542E+02 -0.66708339849E+02 -0.36088529264E+02  0.16235411456E+03  0.12509189803E+03 0.  0.
        -24    2    1    2    0    0  0.81225723905E+01  0.80505646365E+02  0.12643449044E+03  0.17446649911E+03  0.88914248924E+02 0.  0.
        -13    1    3    3    0    0 -0.11231742715E+02  0.21306914008E+02 -0.61149194960E+02  0.65721843197E+02  0.00000000000E+00 0.  1.
         14    1    3    3    0    0 -0.67307383217E+02 -0.35104220524E+02 -0.68005215254E+03  0.68427590949E+03  0.00000000000E+00 0. -1.
         13    1    5    5    0    0 -0.35301517283E+02  0.63877331220E+02  0.86473516815E+02  0.11315555522E+03  0.00000000000E+00 0. -1.
        -14    1    5    5    0    0  0.43424089673E+02  0.16628315145E+02  0.39960973622E+02  0.61310943895E+02  0.00000000000E+00 0.  1.
          5    1    4    4  501    0  0.49631996376E+01  0.34997642038E+02  0.15171324085E+01  0.35626428247E+02  0.41800000000E+01 0. -1.
         -5    1    4    4    0  501  0.65453353904E+02 -0.10170598189E+03 -0.37605661672E+02  0.12672768632E+03  0.41800000000E+01 0. -1.
</event>
<event>
11    1  0.8299058E-009  0.1590860E+03  0.7561462E-02  0.1087940E+00
         22   -1    0    0    0    0  0.00000000000E+00  0.00000000000E+00  0.10478803318E+04  0.10478803318E+04  0.00000000000E+00 0. -1.
         22   -1    0    0    0    0 -0.00000000000E+00 -0.00000000000E+00 -0.35641429247E+03  0.35641429247E+03  0.00000000000E+00 0.  1.
        -24    2    1    2    0    0 -0.40362340077E+01 -0.37321997978E+01 -0.29053363492E+03  0.30642678138E+03  0.97248952829E+02 0.  0.
         25    2    1    2    0    0  0.79082599932E+02  0.66562209636E+02  0.69293558638E+02  0.17644819678E+03  0.12509110086E+03 0.  0.
         24    2    1    2    0    0 -0.75046365924E+02 -0.62830009838E+02  0.91270611556E+03  0.92141964607E+03  0.80013396326E+02 0.  0.
        -11    1    5    5    0    0 -0.60685169392E+01 -0.32167208981E+02  0.10013404421E+03  0.10534886350E+03  0.00000000000E+00 0.  1.
         12    1    5    5    0    0 -0.68977848985E+02 -0.30662800857E+02  0.81257207135E+03  0.81607078256E+03  0.00000000000E+00 0. -1.
         13    1    3    3    0    0 -0.27034447885E+02  0.38253766493E+02 -0.10801914579E+03  0.11773847239E+03  0.00000000000E+00 0. -1.
        -14    1    3    3    0    0  0.22998213877E+02 -0.41985966291E+02 -0.18251448914E+03  0.18868830900E+03  0.00000000000E+00 0.  1.
          5    1    4    4  501    0 -0.23435696742E+02 -0.14403095357E+02  0.27766835324E+02  0.39308403447E+02  0.41800000000E+01 0.  1.
         -5    1    4    4    0  501  0.10251829667E+03  0.80965304993E+02  0.41526723314E+02  0.13713979333E+03  0.41800000000E+01 0.  1.
</event>
<event>
11    1  0.8299058E-009  0.1456243E+03  0.7561462E-02  0.1101436E+00
         22   -1    0    0    0    0  0.00000000000E+00  0.00000000000E+00  0.10044741922E+04  0.10044741922E+04  0.00000000000E+00 0. -1.
         22   -1    0    0    0    0 -0.00000000000E+00 -0.00000000000E+00 -0.46301195020E+03  0.46301195020E+03  0.00000000000E+00 0.  1.
         24    2    1    2    0    0  0.13097019053E+02  0.73364835813E+02 -0.43039452220E+03  0.44424917424E+03  0.81018226505E+02 0.  0.
         25    2    1    2    0    0 -0.31482780056E+02 -0.70694885032E+02  0.21450156808E+03  0.26009524889E+03  0.12509869534E+03 0.  0.
        -24    2    1    2    0    0  0.18385761003E+02 -0.26699507815E+01  0.75735519610E+03  0.76314171925E+03  0.91941425640E+02 0.  0.
        -13    1    3    3    0    0 -0.30215702911E+02  0.45980458865E+02 -0.28028125687E+03  0.28563048551E+03  0.00000000000E+00 0.  1.
         14    1    3    3    0    0  0.43312721963E+02  0.27384376948E+02 -0.15011326533E+03  0.15861868873E+03  0.00000000000E+00 0. -1.
         13    1    5    5    0    0  0.52431060828E+02  0.12943882640E+02  0.52718739125E+03  0.52994632344E+03  0.00000000000E+00 0. -1.
        -14    1    5    5    0    0 -0.34045299825E+02 -0.15613833422E+02  0.23016780485E+03  0.23319539580E+03  0.00000000000E+00 0.  1.
          5    1    4    4  501    0 -0.33388969851E+02 -0.14318762719E+02  0.19775129057E+03  0.20110419090E+03  0.41800000000E+01 0. -1.
         -5    1    4    4    0  501  0.19061897955E+01 -0.56376122313E+02  0.16750277509E+02  0.58991057993E+02  0.41800000000E+01 0. -1.
</event>
<event>
11    1  0.8299058E-009  0.1444822E+03  0.7561462E-02  0.1102654E+00
         22   -1    0    0    0    0  0.00000000000E+00  0.00000000000E+00  0.19744129197E+04  0.19744129197E+04  0.00000000000E+00 0. -1.
         22   -1    0    0    0    0 -0.00000000000E+00 -0.00000000000E+00 -0.37186890329E+03  0.37186890329E+03  0.00000000000E+00 0.  1.
         24    2    1    2    0    0 -0.60435823657E+02  0.43068220793E+02 -0.30073291497E+03  0.31990089572E+03  0.79930823273E+02 0.  0.
         25    2    1    2    0    0  0.54949158830E+02 -0.18818676634E+02  0.17860691430E+02  0.13911313712E+03  0.12513955400E+03 0.  0.
        -24    2    1    2    0    0  0.54866648274E+01 -0.24249544158E+02  0.18854162399E+04  0.18872677901E+04  0.79794548657E+02 0.  0.
        -11    1    3    3    0    0 -0.61956975233E+02  0.61966894364E+02 -0.26924340435E+03  0.28314408622E+03  0.00000000000E+00 0.  1.
         12    1    3    3    0    0  0.15211515756E+01 -0.18898673572E+02 -0.31489510621E+02  0.36756809492E+02  0.00000000000E+00 0. -1.
         11    1    5    5    0    0  0.18209194391E+02 -0.19423896227E+02  0.18304074519E+04  0.18306010768E+04  0.00000000000E+00 0. -1.
        -12    1    5    5    0    0 -0.12722529564E+02 -0.48256479307E+01  0.55008788050E+02  0.56666713326E+02  0.00000000000E+00 0.  1.
          5    1    4    4  501    0  0.80147214070E+02 -0.21745486705E+02 -0.26986261940E+02  0.87419522126E+02  0.41800000000E+01 0.  1.
         -5    1    4    4    0  501 -0.25198055240E+02  0.29268100710E+01  0.44846953370E+02  0.51693614999E+02  0.41800000000E+01 0.  1.
</event>
<event>
11    1  0.8299058E-009  0.1741225E+03  0.7561462E-02  0.1074499E+00
         22   -1    0    0    0    0  0.00000000000E+00  0.00000000000E+00  0.11730297808E+04  0.11730297808E+04  0.00000000000E+00 0. -1.
         22   -1    0    0    0    0 -0.00000000000E+00 -0.00000000000E+00 -0.15952523278E+03  0.15952523278E+03  0.00000000000E+00 0.  1.
         24    2    1    2    0    0  0.91047131162E+01  0.11874808471E+03 -0.94717172870E+02  0.17138630824E+03  0.78853791230E+02 0.  0.
         25    2    1    2    0    0 -0.15871845893E+02 -0.13954238234E+03  0.34136022552E+03  0.38974437756E+03  0.12509949765E+03 0.  0.
        -24    2    1    2    0    0  0.67671327771E+01  0.20794297632E+02  0.76686149538E+03  0.77142432778E+03  0.80874863220E+02 0.  0.
        -11    1    3    3    0    0 -0.11041394788E+02  0.12100267632E+03 -0.88019567891E+02  0.15003667687E+03  0.00000000000E+00 0.  1.
         12    1    3    3    0    0  0.20146107904E+02 -0.22545916077E+01 -0.66976049787E+01  0.21349631366E+02  0.00000000000E+00 0. -1.
         13    1    5    5    0    0  0.42760711783E+02  0.12247371177E+01  0.40224579376E+03  0.40451409994E+03  0.00000000000E+00 0. -1.
        -14    1    5    5    0    0 -0.35993579006E+02  0.19569560514E+02  0.36461570162E+03  0.36691022784E+03  0.00000000000E+00 0.  1.
          5    1    4    4  501    0 -0.46376156022E+02 -0.11857748840E+03  0.32497145837E+03  0.34904912227E+03  0.41800000000E+01 0.  1.
         -5    1    4    4    0  501  0.30504310129E+02 -0.20964893940E+02  0.16388767148E+02  0.40695255288E+02  0.41800000000E+01 0.  1.
</event>
<event>
11    1  0.8299058E-009  0.1779487E+03  0.7561462E-02  0.1071314E+00
         22   -1    0    0    0    0  0.00000000000E+00  0.00000000000E+00  0.15203276163E+04  0.15203276163E+04  0.00000000000E+00 0. -1.
         22   -1    0    0    0    0 -0.00000000000E+00 -0.00000000000E+00 -0.54392901857E+03  0.54392901857E+03  0.00000000000E+00 0.  1.
        -24    2    1    2    0    0 -0.51053907124E+02  0.33829559839E+02 -0.48578687438E+03  0.49616581609E+03  0.80253904481E+02 0.  0.
         25    2    1    2    0    0  0.15415110762E+02 -0.15373671291E+03  0.15351582336E+03  0.25116976205E+03  0.12508612556E+03 0.  0.
         24    2    1    2    0    0  0.35638796361E+02  0.11990715307E+03  0.13086696487E+04  0.13169210567E+04  0.77569136789E+02 0.  0.
        -13    1    5    5    0    0  0.51527461359E+02  0.39762746218E+02  0.53246947658E+03  0.53643256683E+03  0.00000000000E+00 0.  1.
         14    1    5    5    0    0 -0.15888664998E+02  0.80144406855E+02  0.77620017214E+03  0.78048848989E+03  0.00000000000E+00 0. -1.
         13    1    3    3    0    0 -0.81522892718E+01 -0.84729384594E+01 -0.71701502823E+01  0.13771766829E+02  0.00000000000E+00 0. -1.
        -14    1    3    3    0    0 -0.42901617852E+02  0.42302498298E+02 -0.47861672410E+03  0.48239404926E+03  0.00000000000E+00 0.  1.
          5    1    4    4  501    0  0.66012294437E+02 -0.78693937297E+02  0.11033288814E+03  0.15080178178E+03  0.41800000000E+01 0.  1.
         -5    1    4    4    0  501 -0.50597183675E+02 -0.75042775615E+02  0.43182935227E+02  0.10036798027E+03  0.41800000000E+01 0.  1.
</event>
<event>
11    1  0.8299058E-009  0.1387612E+03  0.7561462E-02  0.1108950E+00
         22   -1    0    0    0    0  0.00000000000E+00  0.00000000000E+00  0.41673604084E+03  0.41673604084E+03  0.00000000000E+00 0. -1.
         22   -1    0    0    0    0 -0.00000000000E+00 -0.00000000000E+00 -0.83382887251E+03  0.83382887251E+03  0.00000000000E+00 0. -1.
        -24    2    1    2    0    0 -0.14097831218E+02  0.33898866659E+02 -0.77718795169E+03  0.78218033722E+03  0.80231450715E+02 0.  0.
         25    2    1    2    0    0  0.43035197598E+02  0.22570443983E+02  0.51618280335E+02  0.14378158364E+03  0.12508894338E+03 0.  0.
         24    2    1    2    0    0 -0.28937366379E+02 -0.56469310642E+02  0.30847683969E+03  0.32460299248E+03  0.78631977518E+02 0.  0.
        -11    1    5    5    0    0 -0.25893150332E+02  0.13450834422E+02  0.64626707098E+02  0.70908331324E+02  0.00000000000E+00 0.  1.
         12    1    5    5    0    0 -0.30442160468E+01 -0.69920145064E+02  0.24385013259E+03  0.25369466116E+03  0.00000000000E+00 0. -1.
         13    1    3    3    0    0  0.18460819863E+02  0.32380753925E+02 -0.64341863675E+03  0.64449736789E+03  0.00000000000E+00 0. -1.
        -14    1    3    3    0    0 -0.32558651081E+02  0.15181127339E+01 -0.13376931493E+03  0.13768296933E+03  0.00000000000E+00 0.  1.
          5    1    4    4  501    0  0.46970589603E+02  0.38026367803E+02 -0.24908200776E+02  0.65499097717E+02  0.41800000000E+01 0.  1.
         -5    1    4    4    0  501 -0.39353920051E+01 -0.15455923820E+02  0.76526481111E+02  0.78282485925E+02  0.41800000000E+01 0.  1.
</event>
<event>
11    1  0.8299058E-009  0.1959518E+03  0.7561462E-02  0.1057424E+00
         22   -1    0    0    0    0  0.00000000000E+00  0.00000000000E+00  0.56472810917E+03  0.56472810917E+03  0.00000000000E+00 0. -1.
         22   -1    0    0    0    0 -0.00000000000E+00 -0.00000000000E+00 -0.38185826508E+03  0.38185826508E+03  0.00000000000E+00 0. -1.
        -24    2    1    2    0    0  0.46312871632E+02 -0.53456253856E+01 -0.18470220857E+03  0.20918555696E+03  0.86430513115E+02 0.  0.
         25    2    1    2    0    0 -0.19278864887E+03  0.18663058890E+02 -0.91886910154E+02  0.24820816200E+03  0.12509322333E+03 0.  0.
         24    2    1    2    0    0  0.14647577724E+03 -0.13317433505E+02  0.45945896282E+03  0.48919265530E+03  0.81082723986E+02 0.  0.
        -11    1    5    5    0    0  0.25861685636E+02  0.22203040484E+02  0.47440152032E+02  0.58415492940E+02  0.00000000000E+00 0.  1.
         12    1    5    5    0    0  0.12061409160E+03 -0.35520473988E+02  0.41201881079E+03  0.43077716236E+03  0.00000000000E+00 0. -1.
         11    1    3    3    0    0  0.51288593221E+02  0.50907026988E+01 -0.18970939436E+03  0.19658608638E+03  0.00000000000E+00 0. -1.
        -12    1    3    3    0    0 -0.49757215893E+01 -0.10436328084E+02  0.50071857907E+01  0.12599470575E+02  0.00000000000E+00 0.  1.
          5    1    4    4  501    0 -0.19822142932E+03  0.27615525326E+02 -0.52091442937E+02  0.20684618224E+03  0.41800000000E+01 0. -1.
         -5    1    4    4    0  501  0.54327804442E+01 -0.89524664355E+01 -0.39795467217E+02  0.41361979760E+02  0.41800000000E+01 0. -1.
</event>
<event>
11    1  0.8299058E-009  0.1278831E+03  0.7561462E-02  0.1121898E+00
         22   -1    0    0    0    0  0.00000000000E+00  0.00000000000E+00  0.78236423080E+03  0.78236423080E+03  0.00000000000E+00 0.  1.
         22   -1    0    0    0    0 -0.00000000000E+00 -0.00000000000E+00 -0.32282315118E+03  0.32282315118E+03  0.00000000000E+00 0. -1.
        -24    2    1    2    0    0  0.23278767460E+02  0.13416362522E+02 -0.30071700990E+03  0.31235935934E+03  0.80098374066E+02 0.  0.
         25    2    1    2    0    0 -0.10989346393E+02  0.15356160362E+01  0.29490305586E+03  0.32053249005E+03  0.12510052345E+03 0.  0.
         24    2    1    2    0    0 -0.12289421067E+02 -0.14951978558E+02  0.46535503366E+03  0.47229553259E+03  0.78314565832E+02 0.  0.
        -13    1    5    5    0    0  0.11294964283E+02  0.82559689665E+01  0.38684331080E+03  0.38709622105E+03  0.00000000000E+00 0.  1.
         14    1    5    5    0    0 -0.23584385350E+02 -0.23207947525E+02  0.78511722858E+02  0.85199311539E+02  0.00000000000E+00 0. -1.
         11    1    3    3    0    0  0.57572260817E+01  0.29606749908E+01 -0.28850983568E+03  0.28858246055E+03  0.00000000000E+00 0. -1.
        -12    1    3    3    0    0  0.17521541378E+02  0.10455687531E+02 -0.12207174215E+02  0.23776898796E+02  0.00000000000E+00 0.  1.
          5    1    4    4  501    0 -0.67684369268E+02 -0.59188915874E+01  0.15137439481E+03  0.16597556123E+03  0.41800000000E+01 0. -1.
         -5    1    4    4    0  501  0.56695022875E+02  0.74545076236E+01  0.14352866105E+03  0.15455692881E+03  0.41800000000E+01 0. -1.
</event>
<event>
11    1  0.8299058E-009  0.4924832E+03  0.7561462E-02  0.9410476E-01
         22   -1    0    0    0    0  0.00000000000E+00  0.00000000000E+00  0.13676782466E+04  0.13676782466E+04  0.00000000000E+00 0.  1.
         22   -1    0    0    0    0 -0.00000000000E+00 -0.00000000000E+00 -0.59055556965E+03  0.59055556965E+03  0.00000000000E+00 0.  1.
        -24    2    1    2    0    0 -0.21809694809E+03  0.19513271935E+02 -0.33006425907E+03  0.40325379875E+03  0.75658208679E+02 0.  0.
         25    2    1    2    0    0 -0.32109194735E+03 -0.38529352882E+02  0.30681203158E+02  0.34810064034E+03  0.12509264523E+03 0.  0.
         24    2    1    2    0    0  0.53918889544E+03  0.19016080947E+02  0.10765057328E+04  0.12068793771E+04  0.81283219667E+02 0.  0.
        -11    1    5    5    0    0  0.24361889200E+03  0.46460289167E+02  0.45839792726E+03  0.52118843303E+03  0.00000000000E+00 0.  1.
         12    1    5    5    0    0  0.29557000344E+03 -0.27444208220E+02  0.61810780558E+03  0.68569094410E+03  0.00000000000E+00 0. -1.
         13    1    3    3    0    0 -0.19253664769E+03 -0.92842532763E+01 -0.26583124657E+03  0.32836383740E+03  0.00000000000E+00 0. -1.
        -14    1    3    3    0    0 -0.25560300399E+02  0.28797525211E+02 -0.64233012505E+02  0.74889961345E+02  0.00000000000E+00 0.  1.
          5    1    4    4  501    0 -0.16075147160E+03 -0.39117031624E+02  0.74996756153E+02  0.18169524930E+03  0.41800000000E+01 0.  1.
         -5    1    4    4    0  501 -0.16034047575E+03  0.58767874237E+00 -0.44315552995E+02  0.16640539104E+03  0.41800000000E+01 0.  1.
</event>
<event>
11    1  0.8299058E-009  0.1913091E+03  0.7561462E-02  0.1060845E+00
         22   -1    0    0    0    0  0.00000000000E+00  0.00000000000E+00  0.91781254994E+03  0.91781254994E+03  0.00000000000E+00 0. -1.
         22   -1    0    0    0    0 -0.00000000000E+00 -0.00000000000E+00 -0.30425578721E+03  0.30425578721E+03  0.00000000000E+00 0.  1.
         24    2    1    2    0    0 -0.11518514511E+02 -0.73797862017E+02 -0.17470195804E+03  0.20610295114E+03  0.79867713836E+02 0.  0.
         25    2    1    2    0    0  0.64629135451E+02 -0.65532704027E+02 -0.49364784731E+02  0.16295722727E+03  0.12508683184E+03 0.  0.
        -24    2    1    2    0    0 -0.53110620940E+02  0.13933056604E+03  0.83762350549E+03  0.85300815874E+03  0.61449468981E+02 0.  0.
        -13    1    3    3    0    0  0.15029120381E+00 -0.41516042864E+02 -0.16541135734E+03  0.17054184689E+03  0.00000000000E+00 0.  1.
         14    1    3    3    0    0 -0.11668805714E+02 -0.32281819154E+02 -0.92906006964E+01  0.35561104257E+02  0.00000000000E+00 0. -1.
         13    1    5    5    0    0 -0.56643587412E+02  0.14102444833E+03  0.83378850711E+03  0.84752561354E+03  0.00000000000E+00 0. -1.
        -14    1    5    5    0    0  0.35329664712E+01 -0.16938822823E+01  0.38349983763E+01  0.54825451953E+01  0.00000000000E+00 0.  1.
          5    1    4    4  501    0  0.13929144059E+02 -0.29125617945E+01  0.39940215488E+02  0.42605132128E+02  0.41800000000E+01 0. -1.
         -5    1    4    4    0  501  0.50699991392E+02 -0.62620142232E+02 -0.89305000219E+02  0.12035209514E+03  0.41800000000E+01 0. -1.
</event>
<event>
11    1  0.8299058E-009  0.1604913E+03  0.7561462E-02  0.1086616E+00
         22   -1    0    0    0    0  0.00000000000E+00  0.00000000000E+00  0.11618255097E+04  0.11618255097E+04  0.00000000000E+00 0. -1.
         22   -1    0    0    0    0 -0.00000000000E+00 -0.00000000000E+00 -0.99527998062E+02  0.99527998062E+02  0.00000000000E+00 0.  1.
        -24    2    1    2    0    0 -0.61442401238E+02 -0.61842997876E+02  0.11102028778E+02  0.11924683456E+03  0.80602899781E+02 0.  0.
         25    2    1    2    0    0  0.95316678935E+02  0.10864771242E+03  0.17071018975E+03  0.25627960876E+03  0.12509066425E+03 0.  0.
         24    2    1    2    0    0 -0.33874277697E+02 -0.46804714547E+02  0.88048529308E+03  0.88582706441E+03  0.78083857017E+02 0.  0.
        -13    1    5    5    0    0  0.18220892431E+02 -0.22002531704E+02  0.51720567169E+03  0.51799403390E+03  0.00000000000E+00 0.  1.
         14    1    5    5    0    0 -0.52095170127E+02 -0.24802182843E+02  0.36327962139E+03  0.36783303052E+03  0.00000000000E+00 0. -1.
         11    1    3    3    0    0 -0.64471016168E+02 -0.41515571979E+02  0.37850724759E+02  0.85514513430E+02  0.00000000000E+00 0. -1.
        -12    1    3    3    0    0  0.30286149301E+01 -0.20327425897E+02 -0.26748695981E+02  0.33732321128E+02  0.00000000000E+00 0.  1.
          5    1    4    4  501    0  0.74047540734E+02  0.83421517407E+02  0.18811633122E+03  0.21874051826E+03  0.41800000000E+01 0. -1.
         -5    1    4    4    0  501  0.21269138200E+02  0.25226195015E+02 -0.17406141470E+02  0.37539090501E+02  0.41800000000E+01 0. -1.
</event>
<event>
11    1  0.8299058E-009  0.1636185E+03  0.7561462E-02  0.1083722E+00
         22   -1    0    0    0    0  0.00000000000E+00  0.00000000000E+00  0.99285081956E+02  0.99285081956E+02  0.00000000000E+00 0. -1.
         22   -1    0    0    0    0 -0.00000000000E+00 -0.00000000000E+00 -0.17239256734E+04  0.17239256734E+04  0.00000000000E+00 0. -1.
         24    2    1    2    0    0  0.55562505332E+02  0.22651807398E+02 -0.11868842393E+04  0.11910853498E+04  0.79936328972E+02 0.  0.
         25    2    1    2    0    0 -0.12219958415E+03 -0.97503210396E+02 -0.46233152086E+03  0.50382267218E+03  0.12508891006E+03 0.  0.
        -24    2    1    2    0    0  0.66637078820E+02  0.74851402998E+02  0.24575168677E+02  0.12830273339E+03  0.76252342093E+02 0.  0.
        -11    1    3    3    0    0 -0.42872458136E+00 -0.25665735562E+02 -0.34965447922E+03  0.35059544867E+03  0.00000000000E+00 0.  1.
         12    1    3    3    0    0  0.55991229914E+02  0.48317542960E+02 -0.83722976007E+03  0.84048990114E+03  0.00000000000E+00 0. -1.
         11    1    5    5    0    0  0.36103893166E+02  0.33624930299E+02  0.50690218572E+02  0.70736308203E+02  0.00000000000E+00 0. -1.
        -12    1    5    5    0    0  0.30533185654E+02  0.41226472699E+02 -0.26115049896E+02  0.57566425184E+02  0.00000000000E+00 0.  1.
          5    1    4    4  501    0 -0.83110926499E+02 -0.11292345546E+03 -0.42468036763E+03  0.44724715757E+03  0.41800000000E+01 0. -1.
         -5    1    4    4    0  501 -0.39088657653E+02  0.15420245063E+02 -0.37651153221E+02  0.56575514614E+02  0.41800000000E+01 0. -1.
</event>
<event>
11    1  0.8299058E-009  0.1439139E+03  0.7561462E-02  0.1103265E+00
         22   -1    0    0    0    0  0.00000000000E+00  0.00000000000E+00  0.99278838535E+03  0.99278838535E+03  0.00000000000E+00 0. -1.
         22   -1    0    0    0    0 -0.00000000000E+00 -0.00000000000E+00 -0.50329786754E+03  0.50329786754E+03  0.00000000000E+00 0. -1.
         24    2    1    2    0    0 -0.57431952177E+02  0.18181634120E+02 -0.38506308698E+03  0.39844980952E+03  0.82823117556E+02 0.  0.
         25    2    1    2    0    0  0.10564047680E+03  0.33070244358E+02 -0.43603682955E+02  0.17262353921E+03  0.12507619167E+03 0.  0.
        -24    2    1    2    0    0 -0.48208524619E+02 -0.51251878478E+02  0.91815728774E+03  0.92501290417E+03  0.87665563088E+02 0.  0.
        -13    1    3    3    0    0 -0.96760370727E+01 -0.20040450019E+02 -0.26042693407E+02  0.34255907670E+02  0.00000000000E+00 0.  1.
         14    1    3    3    0    0 -0.47755915104E+02  0.38222084139E+02 -0.35902039357E+03  0.36419390185E+03  0.00000000000E+00 0. -1.
         13    1    5    5    0    0 -0.24506570630E+02 -0.27548649597E+02  0.82808478634E+03  0.82890524999E+03  0.00000000000E+00 0. -1.
        -14    1    5    5    0    0 -0.23701953989E+02 -0.23703228881E+02  0.90072501400E+02  0.96107654174E+02  0.00000000000E+00 0.  1.
          5    1    4    4  501    0  0.87312098383E+02  0.66617800860E+02 -0.65924449885E+02  0.12815942965E+03  0.41800000000E+01 0.  1.
         -5    1    4    4    0  501  0.18328378413E+02 -0.33547556502E+02  0.22320766930E+02  0.44464109559E+02  0.41800000000E+01 0.  1.
</event>
<event>
11    1  0.8299058E-009  0.2244412E+03  0.7561462E-02  0.1038471E+00
         22   -1    0    0    0    0  0.00000000000E+00  0.00000000000E+00  0.77599639442E+03  0.77599639442E+03  0.00000000000E+00 0. -1.
         22   -1    0    0    0    0 -0.00000000000E+00 -0.00000000000E+00 -0.10956235671E+03  0.10956235671E+03  0.00000000000E+00 0. -1.
        -24    2    1    2    0    0  0.60021944548E+02  0.84900708138E+01  0.28018064090E+02  0.10426926819E+03  0.80077170551E+02 0.  0.
         25    2    1    2    0    0  0.82889360306E+02  0.13468628396E+03  0.16759000382E+03  0.26219462784E+03  0.12509425384E+03 0.  0.
         24    2    1    2    0    0 -0.14291130485E+03 -0.14317635478E+03  0.47082596980E+03  0.51909485510E+03  0.82820680582E+02 0.  0.
        -11    1    5    5    0    0 -0.55344820286E+02 -0.94169019408E+01  0.90029700566E+02  0.10609935984E+03  0.00000000000E+00 0.  1.
         12    1    5    5    0    0 -0.87566484567E+02 -0.13375945284E+03  0.38079626923E+03  0.41299549526E+03  0.00000000000E+00 0. -1.
         11    1    3    3    0    0  0.67191389749E+02  0.21660007901E+02  0.43333852331E+02  0.82835146867E+02  0.00000000000E+00 0. -1.
        -12    1    3    3    0    0 -0.71694452006E+01 -0.13169937087E+02 -0.15315788241E+02  0.21434121321E+02  0.00000000000E+00 0.  1.
          5    1    4    4  501    0  0.19959888127E+02 -0.96227188461E+01  0.77597447804E+02  0.80807364501E+02  0.41800000000E+01 0.  1.
         -5    1    4    4    0  501  0.62929472179E+02  0.14430900281E+03  0.89992556021E+02  0.18138726333E+03  0.41800000000E+01 0.  1.
</event>
<event>
11    1  0.8299058E-009  0.1349668E+03  0.7561462E-02  0.1113313E+00
         22   -1    0    0    0    0  0.00000000000E+00  0.00000000000E+00  0.86776204265E+03  0.86776204265E+03  0.00000000000E+00 0. -1.
         22   -1    0    0    0    0 -0.00000000000E+00 -0.00000000000E+00 -0.54106284799E+03  0.54106284799E+03  0.00000000000E+00 0.  1.
        -24    2    1    2    0    0  0.12631230028E+02 -0.48051535066E+02 -0.47719560143E+03  0.48657759392E+03  0.81077832246E+02 0.  0.
         25    2    1    2    0    0 -0.38278123067E+02  0.62469646823E+02  0.35380902459E+02  0.14922012387E+03  0.12508863109E+03 0.  0.
         24    2    1    2    0    0  0.25646893039E+02 -0.14418111756E+02  0.76851389363E+03  0.77302717285E+03  0.78049729004E+02 0.  0.
        -13    1    5    5    0    0  0.37746670136E+02  0.10269314574E+02  0.19666791547E+03  0.20052066952E+03  0.00000000000E+00 0.  1.
         14    1    5    5    0    0 -0.12099777097E+02 -0.24687426330E+02  0.57184597816E+03  0.57250650333E+03  0.00000000000E+00 0. -1.
         13    1    3    3    0    0 -0.20388081580E+01 -0.33036051231E+02 -0.57414101997E+02  0.66271536332E+02  0.00000000000E+00 0. -1.
        -14    1    3    3    0    0  0.14670038186E+02 -0.15015483836E+02 -0.41978149944E+03  0.42030605759E+03  0.00000000000E+00 0.  1.
          5    1    4    4  501    0 -0.84305946597E+02  0.36659994873E+02  0.22897448758E+02  0.94832554618E+02  0.41800000000E+01 0.  1.
         -5    1    4    4    0  501  0.46027823530E+02  0.25809651950E+02  0.12483453701E+02  0.54387569251E+02  0.41800000000E+01 0.  1.
</event>
<event>
11    1  0.2318918E-008  0.1907003E+03  0.7561462E-02  0.1061302E+00
         22   -1    0    0    0    0  0.00000000000E+00  0.00000000000E+00  0.11423133114E+04  0.11423133114E+04  0.00000000000E+00 0.  1.
         22   -1    0    0    0    0 -0.00000000000E+00 -0.00000000000E+00 -0.70672293021E+03  0.70672293021E+03  0.00000000000E+00 0. -1.
        -24    2    1    2    0    0 -0.23912235124E+02 -0.21256821320E+02 -0.47516660100E+03  0.48279229265E+03  0.79255609827E+02 0.  0.
         25    2    1    2    0    0 -0.78910388775E+01 -0.11984822915E+03 -0.18748489870E+03  0.25539827538E+03  0.12510725520E+03 0.  0.
         24    2    1    2    0    0  0.31803274002E+02  0.14110505047E+03  0.10982418809E+04  0.11108456736E+04  0.83191334161E+02 0.  0.
        -11    1    5    5    0    0  0.32431382516E+02  0.93666649633E+02  0.95094192526E+03  0.95609402312E+03  0.00000000000E+00 0.  1.
         12    1    5    5    0    0 -0.62810851431E+00  0.47438400833E+02  0.14729995564E+03  0.15475165047E+03  0.00000000000E+00 0. -1.
         13    1    3    3    0    0 -0.11457272183E+02 -0.27914205050E+02 -0.46348048449E+03  0.46446165766E+03  0.00000000000E+00 0. -1.
        -14    1    3    3    0    0 -0.12454962942E+02  0.66573837303E+01 -0.11686116513E+02  0.18330634991E+02  0.00000000000E+00 0.  1.
          5    1    4    4  501    0  0.59896750430E+01 -0.14446683015E+03 -0.16106009796E+03  0.21648179779E+03  0.41800000000E+01 0.  1.
         -5    1    4    4    0  501 -0.13880713920E+02  0.24618601001E+02 -0.26424800741E+02  0.38916477594E+02  0.41800000000E+01 0.  1.
</event>
<event>
11    1  0.8299058E-009  0.1768449E+03  0.7561462E-02  0.1072224E+00
         22   -1    0    0    0    0  0.00000000000E+00  0.00000000000E+00  0.19145226922E+04  0.19145226922E+04  0.00000000000E+00 0. -1.
         22   -1    0    0    0    0 -0.00000000000E+00 -0.00000000000E+00 -0.15741055607E+03  0.15741055607E+03  0.00000000000E+00 0. -1.
        -24    2    1    2    0    0  0.12335957697E+03  0.29245046263E+02 -0.10091098653E+03  0.18105941565E+03  0.80787541328E+02 0.  0.
         25    2    1    2    0    0 -0.74903368308E+02 -0.10495495097E+03  0.57692466432E+03  0.60424750284E+03  0.12508764956E+03 0.  0.
         24    2    1    2    0    0 -0.48456208661E+02  0.75709904706E+02  0.12810984583E+04  0.12866263297E+04  0.78192446526E+02 0.  0.
        -13    1    5    5    0    0 -0.56765594424E+02  0.68909337151E+02  0.73221776620E+03  0.73764062158E+03  0.00000000000E+00 0.  1.
         14    1    5    5    0    0  0.83093857633E+01  0.68005675552E+01  0.54888069208E+03  0.54898570815E+03  0.00000000000E+00 0. -1.
         11    1    3    3    0    0  0.21120846744E+02 -0.22096437322E+02 -0.34361478015E+01  0.30759548456E+02  0.00000000000E+00 0. -1.
        -12    1    3    3    0    0  0.10223873022E+03  0.51341483585E+02 -0.97474838729E+02  0.15029986720E+03  0.00000000000E+00 0.  1.
          5    1    4    4  501    0 -0.89322716450E+02 -0.18118781063E+02  0.27645206258E+03  0.29111862395E+03  0.41800000000E+01 0.  1.
         -5    1    4    4    0  501  0.14419348142E+02 -0.86836169906E+02  0.30047260174E+03  0.31312887890E+03  0.41800000000E+01 0.  1.
</event>
<event>
11    1  0.8299058E-009  0.1639672E+03  0.7561462E-02  0.1083404E+00
         22   -1    0    0    0    0  0.00000000000E+00  0.00000000000E+00  0.29545426446E+03  0.29545426446E+03  0.00000000000E+00 0. -1.
         22   -1    0    0    0    0 -0.00000000000E+00 -0.00000000000E+00 -0.86023053304E+03  0.86023053304E+03  0.00000000000E+00 0.  1.
        -24    2    1    2    0    0  0.10071460206E+02 -0.14489602101E+00 -0.54882719782E+03  0.55468595101E+03  0.79773152591E+02 0.  0.
         25    2    1    2    0    0 -0.11077855620E+03  0.31553407261E+02 -0.26669997141E+03  0.31629220226E+03  0.12507748171E+03 0.  0.
         24    2    1    2    0    0  0.10070709599E+03 -0.31408511240E+02  0.25075090066E+03  0.28470664423E+03  0.83984792248E+02 0.  0.
        -11    1    5    5    0    0  0.35247481944E+02  0.25347397156E+02  0.51004104711E+02  0.66979804593E+02  0.00000000000E+00 0.  1.
         12    1    5    5    0    0  0.65459614051E+02 -0.56755908396E+02  0.19974679594E+03  0.21772683964E+03  0.00000000000E+00 0. -1.
         13    1    3    3    0    0  0.20817091016E+02 -0.29680849099E+02 -0.13881712261E+03  0.14347298565E+03  0.00000000000E+00 0. -1.
        -14    1    3    3    0    0 -0.10745630811E+02  0.29535953078E+02 -0.41001007521E+03  0.41121296536E+03  0.00000000000E+00 0.  1.
          5    1    4    4  501    0  0.14157830636E+02  0.36571252264E+02 -0.10276536262E+03  0.11007312485E+03  0.41800000000E+01 0. -1.
         -5    1    4    4    0  501 -0.12493638684E+03 -0.50178450023E+01 -0.16393460879E+03  0.20621907740E+03  0.41800000000E+01 0. -1.
</event>
<event>
11    1  0.8299058E-009  0.1944349E+03  0.7561462E-02  0.1058530E+00
         22   -1    0    0    0    0  0.00000000000E+00  0.00000000000E+00  0.56710139358E+03  0.56710139358E+03  0.00000000000E+00 0. -1.
         22   -1    0    0    0    0 -0.00000000000E+00 -0.00000000000E+00 -0.80098481687E+03  0.80098481687E+03  0.00000000000E+00 0. -1.
         24    2    1    2    0    0 -0.51663813447E+02 -0.86753267897E+01 -0.68573109108E+03  0.69229676308E+03  0.79393122976E+02 0.  0.
         25    2    1    2    0    0 -0.73055649600E+02  0.98609075713E+02 -0.17429263826E+02  0.17610735764E+03  0.12509654042E+03 0.  0.
        -24    2    1    2    0    0  0.12471946305E+03 -0.89933748923E+02  0.46927693162E+03  0.49968208973E+03  0.76277969201E+02 0.  0.
        -11    1    3    3    0    0  0.12023934632E+02  0.58749622239E+01 -0.35072998151E+03  0.35098519928E+03  0.00000000000E+00 0.  1.
         12    1    3    3    0    0 -0.63687748079E+02 -0.14550289014E+02 -0.33500110957E+03  0.34131156380E+03  0.00000000000E+00 0. -1.
         13    1    5    5    0    0  0.12356499203E+03 -0.91595057621E+02  0.47192028304E+03  0.49635341782E+03  0.00000000000E+00 0. -1.
        -14    1    5    5    0    0  0.11544710215E+01  0.16613086979E+01 -0.26433514219E+01  0.33286719077E+01  0.00000000000E+00 0.  1.
          5    1    4    4  501    0  0.90431243753E+01 -0.16100611273E+02 -0.28865209959E+02  0.34520726062E+02  0.41800000000E+01 0.  1.
         -5    1    4    4    0  501 -0.82098773975E+02  0.11470968699E+03  0.11435946134E+02  0.14158663157E+03  0.41800000000E+01 0.  1.
</event>
<event>
11    1  0.8299058E-009  0.1663364E+03  0.7561462E-02  0.1081265E+00
         22   -1    0    0    0    0  0.00000000000E+00  0.00000000000E+00  0.14986271386E+04  0.14986271386E+04  0.00000000000E+00 0.  1.
         22   -1    0    0    0    0 -0.00000000000E+00 -0.00000000000E+00 -0.44804174303E+03  0.44804174303E+03  0.00000000000E+00 0. -1.
        -24    2    1    2    0    0  0.94096999751E+01 -0.25067724218E+02 -0.41321610498E+03  0.42179468378E+03  0.80288682875E+02 0.  0.
         25    2    1    2    0    0  0.48702741808E+02 -0.72659010265E+02  0.19970220306E+03  0.25135580139E+03  0.12508988829E+03 0.  0.
         24    2    1    2    0    0 -0.58112441783E+02  0.97726734484E+02  0.12640992975E+04  0.12735183965E+04  0.10475925583E+03 0.  0.
        -13    1    5    5    0    0 -0.16237136650E+02  0.42488436580E+02  0.98109407480E+03  0.98214789897E+03  0.00000000000E+00 0.  1.
         14    1    5    5    0    0 -0.41875305133E+02  0.55238297904E+02  0.28300522270E+03  0.29137049749E+03  0.00000000000E+00 0. -1.
         11    1    3    3    0    0  0.36071852691E+01 -0.31963574135E+02 -0.41133164763E+03  0.41258745279E+03  0.00000000000E+00 0. -1.
        -12    1    3    3    0    0  0.58025147060E+01  0.68958499161E+01 -0.18844573496E+01  0.92072309888E+01  0.00000000000E+00 0.  1.
          5    1    4    4  501    0 -0.84663574253E+01  0.17505068138E+02 -0.49469948901E+01  0.20495164723E+02  0.41800000000E+01 0. -1.
         -5    1    4    4    0  501  0.57169099233E+02 -0.90164078403E+02  0.20464919795E+03  0.23086063667E+03  0.41800000000E+01 0. -1.
</event>
<event>
11    1  0.8299058E-009  0.2019615E+03  0.7561462E-02  0.1053145E+00
         22   -1    0    0    0    0  0.00000000000E+00  0.00000000000E+00  0.71555884278E+03  0.71555884278E+03  0.00000000000E+00 0. -1.
         22   -1    0    0    0    0 -0.00000000000E+00 -0.00000000000E+00 -0.76952468022E+03  0.76952468022E+03  0.00000000000E+00 0. -1.
         24    2    1    2    0    0 -0.69151217129E+02 -0.35987209635E+02 -0.36561639416E+03  0.38248528686E+03  0.80886815390E+02 0.  0.
         25    2    1    2    0    0 -0.78611985849E+02  0.97423361322E+02 -0.36338482346E+03  0.40418773392E+03  0.12509212078E+03 0.  0.
        -24    2    1    2    0    0  0.14776320298E+03 -0.61436151688E+02  0.67503538017E+03  0.69841050221E+03  0.80598388495E+02 0.  0.
        -11    1    3    3    0    0 -0.62772454969E+02  0.10931041138E+02 -0.23751356105E+03  0.24591169237E+03  0.00000000000E+00 0.  1.
         12    1    3    3    0    0 -0.63787621600E+01 -0.46918250773E+02 -0.12810283310E+03  0.13657359449E+03  0.00000000000E+00 0. -1.
         11    1    5    5    0    0  0.13963063081E+03 -0.48245908236E+02  0.46724511922E+03  0.49004324519E+03  0.00000000000E+00 0. -1.
        -12    1    5    5    0    0  0.81325721687E+01 -0.13190243452E+02  0.20779026095E+03  0.20836725702E+03  0.00000000000E+00 0.  1.
          5    1    4    4  501    0 -0.99750711728E+02  0.95749836082E+02 -0.35501000984E+03  0.38100894358E+03  0.41800000000E+01 0. -1.
         -5    1    4    4    0  501  0.21138725879E+02  0.16735252402E+01 -0.83748136175E+01  0.23178790341E+02  0.41800000000E+01 0. -1.
</event>
<event>
11    1  0.8299058E-009  0.1299609E+03  0.7561462E-02  0.1119317E+00
         22   -1    0    0    0    0  0.00000000000E+00  0.00000000000E+00  0.12635782404E+04  0.12635782404E+04  0.00000000000E+00 0.  1.
         22   -1    0    0    0    0 -0.00000000000E+00 -0.00000000000E+00 -0.18293089506E+03  0.18293089506E+03  0.00000000000E+00 0.  1.
         24    2    1    2    0    0  0.72556816686E+01 -0.47273659488E+02 -0.85719032855E+02  0.12755729684E+03  0.81459607076E+02 0.  0.
         25    2    1    2    0    0 -0.13019526731E+02  0.66805719549E+00 -0.21284516919E+02  0.12755595651E+03  0.12509011554E+03 0.  0.
        -24    2    1    2    0    0  0.57638450629E+01  0.46605602293E+02  0.11876508952E+04  0.11913958822E+04  0.81879149702E+02 0.  0.
        -11    1    3    3    0    0  0.46038442327E+01 -0.62463096836E+02 -0.29444321862E+02  0.69208394996E+02  0.00000000000E+00 0.  1.
         12    1    3    3    0    0  0.26518374358E+01  0.15189437347E+02 -0.56274710993E+02  0.58348901841E+02  0.00000000000E+00 0. -1.
         13    1    5    5    0    0  0.27289582260E+02 -0.21721941263E+01  0.15714927675E+03  0.15951593936E+03  0.00000000000E+00 0. -1.
        -14    1    5    5    0    0 -0.21525737197E+02  0.48777796419E+02  0.10305016184E+04  0.10318799428E+04  0.00000000000E+00 0.  1.
          5    1    4    4  501    0 -0.49183153293E+01  0.10568994184E+02 -0.73038356983E+02  0.74080817048E+02  0.41800000000E+01 0.  1.
         -5    1    4    4    0  501 -0.81012114022E+01 -0.99009369883E+01  0.51753840064E+02  0.53475139465E+02  0.41800000000E+01 0.  1.
</event>
<event>
11    1  0.8299058E-009  0.1705635E+03  0.7561462E-02  0.1077542E+00
         22   -1    0    0    0    0  0.00000000000E+00  0.00000000000E+00  0.27574453476E+04  0.27574453476E+04  0.00000000000E+00 0. -1.
         22   -1    0    0    0    0 -0.00000000000E+00 -0.00000000000E+00 -0.42909986540E+03  0.42909986540E+03  0.00000000000E+00 0. -1.
         24    2    1    2    0    0  0.32250622175E+02 -0.26292229042E+02 -0.25734562868E+03  0.27293245837E+03  0.80832977744E+02 0.  0.
         25    2    1    2    0    0 -0.42119349777E+02  0.14149220434E+03 -0.10437903391E+03  0.21985700141E+03  0.12509210540E+03 0.  0.
        -24    2    1    2    0    0  0.98687276019E+01 -0.11519997530E+03  0.26900701448E+04  0.26937557533E+04  0.80462712228E+02 0.  0.
        -11    1    3    3    0    0  0.39259967756E+02 -0.38919528591E+02 -0.94759466106E+02  0.10970611282E+03  0.00000000000E+00 0.  1.
         12    1    3    3    0    0 -0.70093455809E+01  0.12627299549E+02 -0.16258616257E+03  0.16322634554E+03  0.00000000000E+00 0. -1.
         11    1    5    5    0    0 -0.28137851526E+02 -0.89017773398E+02  0.16159985426E+04  0.16186930506E+04  0.00000000000E+00 0. -1.
        -12    1    5    5    0    0  0.38006579128E+02 -0.26182201905E+02  0.10740716023E+04  0.10750627026E+04  0.00000000000E+00 0.  1.
          5    1    4    4  501    0 -0.16254694875E+02  0.16026987321E+03 -0.89812584706E+02  0.18448420023E+03  0.41800000000E+01 0.  1.
         -5    1    4    4    0  501 -0.25864654902E+02 -0.18777668861E+02 -0.14566449205E+02  0.35372801182E+02  0.41800000000E+01 0.  1.
</event>
<event>
11    1  0.8299058E-009  0.1443042E+03  0.7561462E-02  0.1102845E+00
         22   -1    0    0    0    0  0.00000000000E+00  0.00000000000E+00  0.28441722736E+04  0.28441722736E+04  0.00000000000E+00 0. -1.
         22   -1    0    0    0    0 -0.00000000000E+00 -0.00000000000E+00 -0.74003253454E+03  0.74003253454E+03  0.00000000000E+00 0. -1.
        -24    2    1    2    0    0  0.14368070595E+02 -0.71284254564E+02 -0.71619529465E+03  0.72417763601E+03  0.78801408691E+02 0.  0.
         25    2    1    2    0    0 -0.11260348793E+02  0.33299815202E+02  0.20160649822E+03  0.23982071657E+03  0.12503248708E+03 0.  0.
         24    2    1    2    0    0 -0.31077218021E+01  0.37984439361E+02  0.26187285355E+04  0.26202064556E+04  0.79311106205E+02 0.  0.
        -11    1    5    5    0    0  0.19083157417E+02  0.51970838573E+02  0.12485676083E+04  0.12497944661E+04  0.00000000000E+00 0.  1.
         12    1    5    5    0    0 -0.22190879220E+02 -0.13986399211E+02  0.13701609272E+04  0.13704119895E+04  0.00000000000E+00 0. -1.
         11    1    3    3    0    0  0.22667217516E+02 -0.22799607464E+02 -0.54786174570E+03  0.54880426133E+03  0.00000000000E+00 0. -1.
        -12    1    3    3    0    0 -0.82991469211E+01 -0.48484647100E+02 -0.16833354895E+03  0.17537337468E+03  0.00000000000E+00 0.  1.
          5    1    4    4  501    0 -0.34650496576E+02  0.66646373191E+02  0.17631215017E+03  0.19169205166E+03  0.41800000000E+01 0.  1.
         -5    1    4    4    0  501  0.23390147783E+02 -0.33346557989E+02  0.25294348049E+02  0.48128664912E+02  0.41800000000E+01 0.  1.
</event>
<event>
11    1  0.8299058E-009  0.1479629E+03  0.7561462E-02  0.1098979E+00
         22   -1    0    0    0    0  0.00000000000E+00  0.00000000000E+00  0.38016755931E+03  0.38016755931E+03  0.00000000000E+00 0.  1.
         22   -1    0    0    0    0 -0.00000000000E+00 -0.00000000000E+00 -0.37030254650E+03  0.37030254650E+03  0.00000000000E+00 0.  1.
         24    2    1    2    0    0 -0.98994059560E+01 -0.79381141051E+02 -0.31171067341E+03  0.33383497450E+03  0.88785598431E+02 0.  0.
         25    2    1    2    0    0  0.37318099616E+02  0.62722461180E+02  0.94084554050E+02  0.17270559444E+03  0.12509424985E+03 0.  0.
        -24    2    1    2    0    0 -0.27418693660E+02  0.16658679871E+02  0.22749113216E+03  0.24392953688E+03  0.81976261022E+02 0.  0.
        -11    1    3    3    0    0  0.26943170498E+02 -0.57800066119E+02 -0.25496706453E+03  0.26282120552E+03  0.00000000000E+00 0.  1.
         12    1    3    3    0    0 -0.36842576454E+02 -0.21581074932E+02 -0.56743608881E+02  0.71013768973E+02  0.00000000000E+00 0. -1.
         11    1    5    5    0    0 -0.12504695169E+02  0.14101405326E+02  0.31859997416E+01  0.19114592012E+02  0.00000000000E+00 0. -1.
        -12    1    5    5    0    0 -0.14913998491E+02  0.25572745451E+01  0.22430513242E+03  0.22481494486E+03  0.00000000000E+00 0.  1.
          5    1    4    4  501    0 -0.17726180268E+02  0.52742042291E+02 -0.78568130793E+01  0.56348401962E+02  0.41800000000E+01 0.  1.
         -5    1    4    4    0  501  0.55044279884E+02  0.99804188897E+01  0.10194136713E+03  0.11635719248E+03  0.41800000000E+01 0.  1.
</event>
<event>
11    1  0.8299058E-009  0.3479660E+03  0.7561462E-02  0.9817139E-01
         22   -1    0    0    0    0  0.00000000000E+00  0.00000000000E+00  0.27104153272E+03  0.27104153272E+03  0.00000000000E+00 0. -1.
         22   -1    0    0    0    0 -0.00000000000E+00 -0.00000000000E+00 -0.10308557116E+04  0.10308557116E+04  0.00000000000E+00 0.  1.
        -24    2    1    2    0    0 -0.14941269865E+03  0.19744121330E+03 -0.62483580111E+03  0.67692626364E+03  0.80636225273E+02 0.  0.
         25    2    1    2    0    0 -0.14889790372E+03  0.14305037424E+02 -0.15641242063E+03  0.24997688900E+03  0.12509348455E+03 0.  0.
         24    2    1    2    0    0  0.29831060237E+03 -0.21174625072E+03  0.21434042841E+02  0.37499409171E+03  0.79595605676E+02 0.  0.
        -13    1    5    5    0    0  0.23250988389E+03 -0.13136912457E+03  0.38199745342E+02  0.26977381922E+03  0.00000000000E+00 0.  1.
         14    1    5    5    0    0  0.65800718487E+02 -0.80377126151E+02 -0.16765702501E+02  0.10522027249E+03  0.00000000000E+00 0. -1.
         11    1    3    3    0    0 -0.13879948919E+02  0.55726804056E+02 -0.85029822776E+02  0.10260701942E+03  0.00000000000E+00 0. -1.
        -12    1    3    3    0    0 -0.13553274973E+03  0.14171440924E+03 -0.53980597834E+03  0.57431924422E+03  0.00000000000E+00 0.  1.
          5    1    4    4  501    0 -0.41022229596E+02  0.58624977474E+02 -0.29337462672E+02  0.77445919330E+02  0.41800000000E+01 0. -1.
         -5    1    4    4    0  501 -0.10787567412E+03 -0.44319940050E+02 -0.12707495796E+03  0.17253096967E+03  0.41800000000E+01 0. -1.
</event>
<event>
11    1  0.8299058E-009  0.1898241E+03  0.7561462E-02  0.1061962E+00
         22   -1    0    0    0    0  0.00000000000E+00  0.00000000000E+00  0.17667682895E+03  0.17667682895E+03  0.00000000000E+00 0.  1.
         22   -1    0    0    0    0 -0.00000000000E+00 -0.00000000000E+00 -0.76060298947E+03  0.76060298947E+03  0.00000000000E+00 0. -1.
        -24    2    1    2    0    0  0.57307939342E+02 -0.70627375459E+02 -0.39101283396E+03  0.40796278614E+03  0.72595953623E+02 0.  0.
         25    2    1    2    0    0  0.84503206399E+02  0.11061147251E+03 -0.28240245413E+03  0.33878136593E+03  0.12508388412E+03 0.  0.
         24    2    1    2    0    0 -0.14181114574E+03 -0.39984097048E+02  0.89489127566E+02  0.19053566634E+03  0.81156682542E+02 0.  0.
        -13    1    5    5    0    0 -0.15173994731E+03 -0.43183164371E+02  0.83291220213E+02  0.17840186282E+03  0.00000000000E+00 0.  1.
         14    1    5    5    0    0  0.99288015642E+01  0.31990673233E+01  0.61979073532E+01  0.12133803517E+02  0.00000000000E+00 0. -1.
         13    1    3    3    0    0  0.44437079480E+02 -0.66481943384E+02 -0.38490765611E+03  0.39312645111E+03  0.00000000000E+00 0. -1.
        -14    1    3    3    0    0  0.12870859862E+02 -0.41454320758E+01 -0.61051778454E+01  0.14836335033E+02  0.00000000000E+00 0.  1.
          5    1    4    4  501    0  0.96232213426E+02  0.95125530556E+02 -0.28791996158E+03  0.31815858018E+03  0.41800000000E+01 0. -1.
         -5    1    4    4    0  501 -0.11729007027E+02  0.15485941951E+02  0.55175074517E+01  0.20622785758E+02  0.41800000000E+01 0. -1.
</event>
<event>
11    1  0.8299058E-009  0.1792338E+03  0.7561462E-02  0.1070264E+00
         22   -1    0    0    0    0  0.00000000000E+00  0.00000000000E+00  0.11542312233E+04  0.11542312233E+04  0.00000000000E+00 0. -1.
         22   -1    0    0    0    0 -0.00000000000E+00 -0.00000000000E+00 -0.30017106779E+03  0.30017106779E+03  0.00000000000E+00 0. -1.
        -24    2    1    2    0    0 -0.27930526335E+02  0.63080363927E+02 -0.25457052233E+03  0.27551307555E+03  0.79637035027E+02 0.  0.
         25    2    1    2    0    0 -0.91601765908E+02  0.82528231387E+01  0.18533872618E+03  0.24177878493E+03  0.12509014676E+03 0.  0.
         24    2    1    2    0    0  0.11953229224E+03 -0.71333187065E+02  0.92329195166E+03  0.93711043060E+03  0.79570966263E+02 0.  0.
        -13    1    5    5    0    0  0.48514634589E+02 -0.53430122502E+01  0.14941115583E+03  0.15718114084E+03  0.00000000000E+00 0.  1.
         14    1    5    5    0    0  0.71017657654E+02 -0.65990174815E+02  0.77388079582E+03  0.77992928975E+03  0.00000000000E+00 0. -1.
         13    1    3    3    0    0  0.22592923735E+02  0.99342785719E+01 -0.11746483011E+03  0.12002964803E+03  0.00000000000E+00 0. -1.
        -14    1    3    3    0    0 -0.50523450069E+02  0.53146085355E+02 -0.13710569222E+03  0.15548342752E+03  0.00000000000E+00 0.  1.
          5    1    4    4  501    0 -0.48367894782E+02 -0.58047106640E+01  0.18971651269E+03  0.19591573571E+03  0.41800000000E+01 0. -1.
         -5    1    4    4    0  501 -0.43233871126E+02  0.14057533803E+02 -0.43777865140E+01  0.45863049222E+02  0.41800000000E+01 0. -1.
</event>
<event>
11    1  0.8299058E-009  0.3575098E+03  0.7561462E-02  0.9784179E-01
         22   -1    0    0    0    0  0.00000000000E+00  0.00000000000E+00  0.33733478980E+04  0.33733478980E+04  0.00000000000E+00 0.  1.
         22   -1    0    0    0    0 -0.00000000000E+00 -0.00000000000E+00 -0.48847986593E+03  0.48847986593E+03  0.00000000000E+00 0. -1.
        -24    2    1    2    0    0  0.50091629226E+01  0.21301730471E+02 -0.35416501013E+03  0.36398329336E+03  0.81068662317E+02 0.  0.
         25    2    1    2    0    0 -0.27565908229E+03 -0.21649317514E+03  0.16900768037E+03  0.40873887497E+03  0.12508655945E+03 0.  0.
         24    2    1    2    0    0  0.27064991937E+03  0.19519144466E+03  0.30700253618E+04  0.30891055956E+04  0.78527572004E+02 0.  0.
        -11    1    5    5    0    0  0.23447988479E+03  0.18319781167E+03  0.28775627242E+04  0.28929067538E+04  0.00000000000E+00 0.  1.
         12    1    5    5    0    0  0.36170034576E+02  0.11993632997E+02  0.19246263761E+03  0.19619884177E+03  0.00000000000E+00 0. -1.
         13    1    3    3    0    0 -0.21299144129E+02  0.38702082585E+02 -0.27888895325E+03  0.28236599119E+03  0.00000000000E+00 0. -1.
        -14    1    3    3    0    0  0.26308307051E+02 -0.17400352113E+02 -0.75276056876E+02  0.81617302163E+02  0.00000000000E+00 0.  1.
          5    1    4    4  501    0 -0.27068573210E+03 -0.15892089314E+03  0.14859476187E+03  0.34731036767E+03  0.41800000000E+01 0. -1.
         -5    1    4    4    0  501 -0.49733501934E+01 -0.57572282000E+02  0.20412918500E+02  0.61428507296E+02  0.41800000000E+01 0. -1.
</event>
<event>
11    1  0.8299058E-009  0.1328230E+03  0.7561462E-02  0.1115848E+00
         22   -1    0    0    0    0  0.00000000000E+00  0.00000000000E+00  0.31597511986E+03  0.31597511986E+03  0.00000000000E+00 0.  1.
         22   -1    0    0    0    0 -0.00000000000E+00 -0.00000000000E+00 -0.72066549982E+03  0.72066549982E+03  0.00000000000E+00 0. -1.
        -24    2    1    2    0    0  0.14335855533E+02 -0.91109005051E+01 -0.49103379928E+03  0.49755291221E+03  0.78461348103E+02 0.  0.
         25    2    1    2    0    0  0.14142347952E+02  0.43604381534E+02 -0.19884074274E+03  0.23934465549E+03  0.12508746957E+03 0.  0.
         24    2    1    2    0    0 -0.28478203485E+02 -0.34493481029E+02  0.28518416207E+03  0.29974305197E+03  0.80716061635E+02 0.  0.
        -11    1    5    5    0    0 -0.25089094767E+02 -0.16869060843E+02  0.27918859693E+03  0.28082076231E+03  0.00000000000E+00 0.  1.
         12    1    5    5    0    0 -0.33891087173E+01 -0.17624420186E+02  0.59955651389E+01  0.18922289664E+02  0.00000000000E+00 0. -1.
         11    1    3    3    0    0  0.41243626664E+02 -0.20928696406E+02 -0.21260579502E+03  0.21757819549E+03  0.00000000000E+00 0. -1.
        -12    1    3    3    0    0 -0.26907771131E+02  0.11817795901E+02 -0.27842800426E+03  0.27997471672E+03  0.00000000000E+00 0.  1.
          5    1    4    4  501    0 -0.32697281137E+02  0.50794602161E+02 -0.17686167150E+03  0.18694043717E+03  0.41800000000E+01 0. -1.
         -5    1    4    4    0  501  0.46839629088E+02 -0.71902206274E+01 -0.21979071245E+02  0.52404218329E+02  0.41800000000E+01 0. -1.
</event>
<event>
11    1  0.8299058E-009  0.1823711E+03  0.7561462E-02  0.1067741E+00
         22   -1    0    0    0    0  0.00000000000E+00  0.00000000000E+00  0.68943545698E+02  0.68943545698E+02  0.00000000000E+00 0.  1.
         22   -1    0    0    0    0 -0.00000000000E+00 -0.00000000000E+00 -0.20446399395E+04  0.20446399395E+04  0.00000000000E+00 0. -1.
         24    2    1    2    0    0  0.48322463762E+02 -0.12170809801E+03 -0.14928463536E+04  0.15006527269E+04  0.78869826241E+02 0.  0.
         25    2    1    2    0    0 -0.17837656223E+02  0.14351309102E+03 -0.48815800672E+03  0.52427052761E+03  0.12508859788E+03 0.  0.
        -24    2    1    2    0    0 -0.30484807538E+02 -0.21804993016E+02  0.53079665895E+01  0.88660230677E+02  0.80172818233E+02 0.  0.
        -11    1    3    3    0    0  0.27973387972E+01  0.94206628385E+01 -0.22820366188E+03  0.22841515994E+03  0.00000000000E+00 0.  1.
         12    1    3    3    0    0  0.45525124964E+02 -0.13112876085E+03 -0.12646426917E+04  0.12722375669E+04  0.00000000000E+00 0. -1.
         11    1    5    5    0    0  0.25312649012E+02 -0.16438007447E+02 -0.76305749667E+01  0.31131398348E+02  0.00000000000E+00 0. -1.
        -12    1    5    5    0    0 -0.55797456550E+02 -0.53669855692E+01  0.12938541556E+02  0.57528832329E+02  0.00000000000E+00 0.  1.
          5    1    4    4  501    0 -0.41151816441E+02  0.12773452903E+03 -0.24435948418E+03  0.27881644824E+03  0.41800000000E+01 0.  1.
         -5    1    4    4    0  501  0.23314160218E+02  0.15778561999E+02 -0.24379852253E+03  0.24545407936E+03  0.41800000000E+01 0.  1.
</event>
<event>
11    1  0.8299058E-009  0.2417257E+03  0.7561462E-02  0.1028402E+00
         22   -1    0    0    0    0  0.00000000000E+00  0.00000000000E+00  0.20511895140E+04  0.20511895140E+04  0.00000000000E+00 0.  1.
         22   -1    0    0    0    0 -0.00000000000E+00 -0.00000000000E+00 -0.28583598383E+03  0.28583598383E+03  0.00000000000E+00 0. -1.
        -24    2    1    2    0    0  0.64261609627E+02 -0.19877234570E+03 -0.22024168798E+03  0.31376325845E+03  0.79378720953E+02 0.  0.
         25    2    1    2    0    0 -0.58342981315E+02  0.16696085596E+03  0.66146348753E+03  0.69603511256E+03  0.12510436319E+03 0.  0.
         24    2    1    2    0    0 -0.59186283118E+01  0.31811489743E+02  0.13241317307E+04  0.13272271269E+04  0.84616813329E+02 0.  0.
        -11    1    5    5    0    0 -0.39681620127E+02  0.40793193268E+01  0.89216133207E+03  0.89305269400E+03  0.00000000000E+00 0.  1.
         12    1    5    5    0    0  0.33762991815E+02  0.27732170416E+02  0.43197039860E+03  0.43417443287E+03  0.00000000000E+00 0. -1.
         11    1    3    3    0    0  0.23525757344E+02 -0.12929736933E+03 -0.18231131753E+03  0.22474137908E+03  0.00000000000E+00 0. -1.
        -12    1    3    3    0    0  0.40735852283E+02 -0.69474976369E+02 -0.37930370458E+02  0.89021879366E+02  0.00000000000E+00 0.  1.
          5    1    4    4  501    0 -0.23614683502E+02  0.15974425347E+02  0.31704806896E+03  0.31835481145E+03  0.41800000000E+01 0.  1.
         -5    1    4    4    0  501 -0.34728297813E+02  0.15098643061E+03  0.34441541856E+03  0.37768030110E+03  0.41800000000E+01 0.  1.
</event>
<event>
11    1  0.8299058E-009  0.1520763E+03  0.7561462E-02  0.1094776E+00
         22   -1    0    0    0    0  0.00000000000E+00  0.00000000000E+00  0.17696487890E+03  0.17696487890E+03  0.00000000000E+00 0. -1.
         22   -1    0    0    0    0 -0.00000000000E+00 -0.00000000000E+00 -0.14917246761E+04  0.14917246761E+04  0.00000000000E+00 0. -1.
         24    2    1    2    0    0 -0.42879339143E+01 -0.11678892648E+02 -0.10542919080E+04  0.10573697639E+04  0.79653044415E+02 0.  0.
         25    2    1    2    0    0  0.88967296213E+02  0.27694030492E+02 -0.40008582579E+03  0.42941496243E+03  0.12508558208E+03 0.  0.
        -24    2    1    2    0    0 -0.84679362299E+02 -0.16015137844E+02  0.13961793656E+03  0.18190482866E+03  0.78543742207E+02 0.  0.
        -13    1    3    3    0    0  0.20770977318E+02  0.73097878392E+01 -0.93282692316E+02  0.95846372820E+02  0.00000000000E+00 0.  1.
         14    1    3    3    0    0 -0.25058911232E+02 -0.18988680488E+02 -0.96100921570E+03  0.96152339112E+03  0.00000000000E+00 0. -1.
         13    1    5    5    0    0 -0.43500198315E+02  0.13728100497E+02  0.11834721792E+03  0.12683371786E+03  0.00000000000E+00 0. -1.
        -14    1    5    5    0    0 -0.41179163984E+02 -0.29743238341E+02  0.21270718649E+02  0.55071110804E+02  0.00000000000E+00 0.  1.
          5    1    4    4  501    0  0.54169313872E+02  0.23685901921E+02 -0.49960063018E+02  0.77516558308E+02  0.41800000000E+01 0.  1.
         -5    1    4    4    0  501  0.34797982341E+02  0.40081285719E+01 -0.35012576277E+03  0.35189840412E+03  0.41800000000E+01 0.  1.
</event>
<event>
11    1  0.8299058E-009  0.3474749E+03  0.7561462E-02  0.9818866E-01
         22   -1    0    0    0    0  0.00000000000E+00  0.00000000000E+00  0.49988960408E+03  0.49988960408E+03  0.00000000000E+00 0.  1.
         22   -1    0    0    0    0 -0.00000000000E+00 -0.00000000000E+00 -0.69824735548E+03  0.69824735548E+03  0.00000000000E+00 0.  1.
        -24    2    1    2    0    0  0.51795855109E+02 -0.34779806883E+02 -0.22869983974E+03  0.25054162688E+03  0.81086648282E+02 0.  0.
         25    2    1    2    0    0 -0.20279341078E+03 -0.25306342586E+03 -0.31328789439E+03  0.46793625456E+03  0.12509503827E+03 0.  0.
         24    2    1    2    0    0  0.15099755567E+03  0.28784323274E+03  0.34362998273E+03  0.47965907812E+03  0.79607020633E+02 0.  0.
        -11    1    5    5    0    0  0.61451250397E+02  0.50138180127E+02  0.10068556163E+03  0.12817049428E+03  0.00000000000E+00 0.  1.
         12    1    5    5    0    0  0.89546305272E+02  0.23770505262E+03  0.24294442110E+03  0.35148858384E+03  0.00000000000E+00 0. -1.
         11    1    3    3    0    0 -0.18701505991E+02  0.25304928717E+01 -0.21994425668E+02  0.28981105586E+02  0.00000000000E+00 0. -1.
        -12    1    3    3    0    0  0.70497361100E+02 -0.37310299755E+02 -0.20670541407E+03  0.22156052130E+03  0.00000000000E+00 0.  1.
          5    1    4    4  501    0 -0.18412462005E+03 -0.15236541169E+03 -0.25709329698E+03  0.35104348753E+03  0.41800000000E+01 0.  1.
         -5    1    4    4    0  501 -0.18668790725E+02 -0.10069801417E+03 -0.56194597413E+02  0.11689276703E+03  0.41800000000E+01 0.  1.
</event>
<event>
11    1  0.8299058E-009  0.1351624E+03  0.7561462E-02  0.1113084E+00
         22   -1    0    0    0    0  0.00000000000E+00  0.00000000000E+00  0.39935563756E+03  0.39935563756E+03  0.00000000000E+00 0.  1.
         22   -1    0    0    0    0 -0.00000000000E+00 -0.00000000000E+00 -0.41176309234E+03  0.41176309234E+03  0.00000000000E+00 0.  1.
        -24    2    1    2    0    0  0.47999181557E+02 -0.35174806507E+01 -0.32430493799E+03  0.33730349002E+03  0.79269524248E+02 0.  0.
         25    2    1    2    0    0 -0.87699188542E+02  0.55701509553E+01  0.23054026241E+01  0.15288881064E+03  0.12508996477E+03 0.  0.
         24    2    1    2    0    0  0.39700006985E+02 -0.20526703045E+01  0.30959208059E+03  0.32092642923E+03  0.74607054674E+02 0.  0.
        -13    1    5    5    0    0  0.56803052319E+02 -0.11564135341E+01  0.28703777025E+03  0.29260657134E+03  0.00000000000E+00 0.  1.
         14    1    5    5    0    0 -0.17103045334E+02 -0.89625677046E+00  0.22554310341E+02  0.28319857889E+02  0.00000000000E+00 0. -1.
         11    1    3    3    0    0 -0.87148288872E+01 -0.38595023653E+01 -0.16145666588E+01  0.96669967693E+01  0.00000000000E+00 0. -1.
        -12    1    3    3    0    0  0.56714010445E+02  0.34202171456E+00 -0.32269037133E+03  0.32763649325E+03  0.00000000000E+00 0.  1.
          5    1    4    4  501    0 -0.76198704543E+02  0.56290468679E+02 -0.18681607724E+02  0.96650578402E+02  0.41800000000E+01 0. -1.
         -5    1    4    4    0  501 -0.11500483999E+02 -0.50720317724E+02  0.20987010348E+02  0.56238232241E+02  0.41800000000E+01 0. -1.
</event>
<event>
11    1  0.8299058E-009  0.1326658E+03  0.7561462E-02  0.1116036E+00
         22   -1    0    0    0    0  0.00000000000E+00  0.00000000000E+00  0.16863056910E+04  0.16863056910E+04  0.00000000000E+00 0. -1.
         22   -1    0    0    0    0 -0.00000000000E+00 -0.00000000000E+00 -0.12731168879E+04  0.12731168879E+04  0.00000000000E+00 0.  1.
         24    2    1    2    0    0 -0.28800627652E+02 -0.33820319240E+02 -0.12310283204E+04  0.12345294214E+04  0.81601940147E+02 0.  0.
         25    2    1    2    0    0  0.22368525592E+01  0.36764362416E+02  0.69170422918E+02  0.14761119991E+03  0.12509155479E+03 0.  0.
        -24    2    1    2    0    0  0.26563775093E+02 -0.29440431759E+01  0.15750467006E+04  0.15772819575E+04  0.79573632596E+02 0.  0.
        -13    1    3    3    0    0 -0.69074430787E+01 -0.47048903899E+02 -0.11000138006E+04  0.11010411771E+04  0.00000000000E+00 0.  1.
         14    1    3    3    0    0 -0.21893184573E+02  0.13228584659E+02 -0.13101451971E+03  0.13348824427E+03  0.00000000000E+00 0. -1.
         13    1    5    5    0    0 -0.13297806309E+02  0.10325270660E+02  0.11584307464E+04  0.11585530791E+04  0.00000000000E+00 0. -1.
        -14    1    5    5    0    0  0.39861581402E+02 -0.13269313836E+02  0.41661595421E+03  0.41872887847E+03  0.00000000000E+00 0.  1.
          5    1    4    4  501    0 -0.16825366666E+02  0.79498903200E+02  0.56149512258E+02  0.98860551790E+02  0.41800000000E+01 0.  1.
         -5    1    4    4    0  501  0.19062219225E+02 -0.42734540784E+02  0.13020910661E+02  0.48750648122E+02  0.41800000000E+01 0.  1.
</event>
<event>
11    1  0.8299058E-009  0.1346636E+03  0.7561462E-02  0.1113668E+00
         22   -1    0    0    0    0  0.00000000000E+00  0.00000000000E+00  0.36441606547E+03  0.36441606547E+03  0.00000000000E+00 0.  1.
         22   -1    0    0    0    0 -0.00000000000E+00 -0.00000000000E+00 -0.64110497241E+03  0.64110497241E+03  0.00000000000E+00 0. -1.
         24    2    1    2    0    0 -0.38554930565E+02 -0.52373769591E+01 -0.56273196731E+03  0.56944049567E+03  0.77982679456E+02 0.  0.
         25    2    1    2    0    0 -0.15294311280E+02  0.51385338368E+01 -0.81576160634E+01  0.12638867758E+03  0.12508889092E+03 0.  0.
        -24    2    1    2    0    0  0.53849241844E+02  0.98843122340E-01  0.29420067642E+03  0.30969186463E+03  0.80344647544E+02 0.  0.
        -11    1    3    3    0    0 -0.17808367701E+02  0.32110292699E+02 -0.14689092076E+03  0.15141053946E+03  0.00000000000E+00 0.  1.
         12    1    3    3    0    0 -0.20746562863E+02 -0.37347669658E+02 -0.41584104655E+03  0.41802995622E+03  0.00000000000E+00 0. -1.
         13    1    5    5    0    0 -0.30192124571E+01 -0.28294951402E+02  0.51858720016E+02  0.59152740938E+02  0.00000000000E+00 0. -1.
        -14    1    5    5    0    0  0.56868454302E+02  0.28393794524E+02  0.24234195641E+03  0.25053912369E+03  0.00000000000E+00 0.  1.
          5    1    4    4  501    0 -0.38530889854E+02  0.12752178909E+02  0.49187946918E+02  0.63907543075E+02  0.41800000000E+01 0. -1.
         -5    1    4    4    0  501  0.23236578574E+02 -0.76136450719E+01 -0.57345562982E+02  0.62481134503E+02  0.41800000000E+01 0. -1.
</event>
<event>
11    1  0.8299058E-009  0.1781804E+03  0.7561462E-02  0.1071124E+00
         22   -1    0    0    0    0  0.00000000000E+00  0.00000000000E+00  0.97786504235E+03  0.97786504235E+03  0.00000000000E+00 0.  1.
         22   -1    0    0    0    0 -0.00000000000E+00 -0.00000000000E+00 -0.23010479094E+03  0.23010479094E+03  0.00000000000E+00 0.  1.
         24    2    1    2    0    0 -0.21803807810E+02  0.28012611772E+02 -0.18791844849E+03  0.20489320248E+03  0.73537532486E+02 0.  0.
         25    2    1    2    0    0 -0.51748356387E+02 -0.12791415860E+03  0.32315384590E+03  0.37298515354E+03  0.12509833046E+03 0.  0.
        -24    2    1    2    0    0  0.73552164197E+02  0.99901546824E+02  0.61252485401E+03  0.63009147727E+03  0.80239223788E+02 0.  0.
        -13    1    3    3    0    0  0.10127198446E+02  0.40502116084E+02 -0.13915186870E+03  0.14527981318E+03  0.00000000000E+00 0.  1.
         14    1    3    3    0    0 -0.31931006256E+02 -0.12489504313E+02 -0.48766579793E+02  0.59613389295E+02  0.00000000000E+00 0. -1.
         13    1    5    5    0    0  0.82192810436E+01  0.72974843752E+02  0.38139782805E+03  0.38840338264E+03  0.00000000000E+00 0. -1.
        -14    1    5    5    0    0  0.65332883154E+02  0.26926703072E+02  0.23112702595E+03  0.24168809463E+03  0.00000000000E+00 0.  1.
          5    1    4    4  501    0 -0.25065747537E+02 -0.42476268098E+02  0.25669645716E+03  0.26142507257E+03  0.41800000000E+01 0.  1.
         -5    1    4    4    0  501 -0.26682608850E+02 -0.85437890498E+02  0.66457388740E+02  0.11156008097E+03  0.41800000000E+01 0.  1.
</event>
<event>
11    1  0.8299058E-009  0.1518874E+03  0.7561462E-02  0.1094966E+00
         22   -1    0    0    0    0  0.00000000000E+00  0.00000000000E+00  0.74974002645E+02  0.74974002645E+02  0.00000000000E+00 0.  1.
         22   -1    0    0    0    0 -0.00000000000E+00 -0.00000000000E+00 -0.21392465833E+04  0.21392465833E+04  0.00000000000E+00 0. -1.
        -24    2    1    2    0    0  0.59165706398E+02 -0.35606018144E+02 -0.18671897134E+04  0.18702626451E+04  0.81954659957E+02 0.  0.
         25    2    1    2    0    0 -0.96409861522E+02 -0.40472406159E+02 -0.13571453600E+03  0.21212943113E+03  0.12509030022E+03 0.  0.
         24    2    1    2    0    0  0.37244155124E+02  0.76078424303E+02 -0.61368331229E+02  0.13182850975E+03  0.80234843861E+02 0.  0.
        -11    1    5    5    0    0  0.21442977885E+02  0.20559396019E+02  0.17206115287E+02  0.34329877200E+02  0.00000000000E+00 0.  1.
         12    1    5    5    0    0  0.15801177238E+02  0.55519028284E+02 -0.78574446516E+02  0.97498632549E+02  0.00000000000E+00 0. -1.
         13    1    3    3    0    0  0.53753141096E+02 -0.14403881625E+02 -0.17591103116E+04  0.17599903296E+04  0.00000000000E+00 0. -1.
        -14    1    3    3    0    0  0.54125653023E+01 -0.21202136519E+02 -0.10807940188E+03  0.11027231550E+03  0.00000000000E+00 0.  1.
          5    1    4    4  501    0 -0.88208181470E+02  0.21676140049E+02 -0.11363345273E+03  0.14553546751E+03  0.41800000000E+01 0. -1.
         -5    1    4    4    0  501 -0.82016800517E+01 -0.62148546208E+02 -0.22081083279E+02  0.66593963617E+02  0.41800000000E+01 0. -1.
</event>
<event>
11    1  0.8299058E-009  0.1327727E+03  0.7561462E-02  0.1115908E+00
         22   -1    0    0    0    0  0.00000000000E+00  0.00000000000E+00  0.10620098398E+03  0.10620098398E+03  0.00000000000E+00 0.  1.
         22   -1    0    0    0    0 -0.00000000000E+00 -0.00000000000E+00 -0.17749673594E+04  0.17749673594E+04  0.00000000000E+00 0.  1.
        -24    2    1    2    0    0  0.41003894587E+02  0.83421371282E+01 -0.14695976000E+04  0.14723051117E+04  0.78830992524E+02 0.  0.
         25    2    1    2    0    0 -0.19927571755E+02 -0.48501032074E+02 -0.26254300756E+03  0.29550821742E+03  0.12508723963E+03 0.  0.
         24    2    1    2    0    0 -0.21076322832E+02  0.40158894946E+02  0.63374232111E+02  0.11335501429E+03  0.82317177687E+02 0.  0.
        -11    1    5    5    0    0 -0.89619756555E+01  0.63036223532E+02  0.59566261533E+02  0.87189575053E+02  0.00000000000E+00 0.  1.
         12    1    5    5    0    0 -0.12114347176E+02 -0.22877328586E+02  0.38079705775E+01  0.26165439240E+02  0.00000000000E+00 0. -1.
         11    1    3    3    0    0 -0.79570940293E+01 -0.22442125774E+02 -0.20367909595E+03  0.20506618073E+03  0.00000000000E+00 0. -1.
        -12    1    3    3    0    0  0.48960988616E+02  0.30784262902E+02 -0.12659185040E+04  0.12672389309E+04  0.00000000000E+00 0.  1.
          5    1    4    4  501    0  0.11865845095E+02  0.32430067375E+02 -0.14573991290E+03  0.14983358155E+03  0.41800000000E+01 0. -1.
         -5    1    4    4    0  501 -0.31793416849E+02 -0.80931099449E+02 -0.11680309466E+03  0.14567463587E+03  0.41800000000E+01 0. -1.
</event>
<event>
11    1  0.8299058E-009  0.2152412E+03  0.7561462E-02  0.1044240E+00
         22   -1    0    0    0    0  0.00000000000E+00  0.00000000000E+00  0.97560583076E+03  0.97560583076E+03  0.00000000000E+00 0. -1.
         22   -1    0    0    0    0 -0.00000000000E+00 -0.00000000000E+00 -0.27104675365E+03  0.27104675365E+03  0.00000000000E+00 0. -1.
        -24    2    1    2    0    0  0.33471649399E+02 -0.19762325377E+02 -0.20964060516E+03  0.22834847545E+03  0.81749263544E+02 0.  0.
         25    2    1    2    0    0 -0.80146589626E+02  0.18056047704E+03  0.32049355494E+03  0.39672304161E+03  0.12508993279E+03 0.  0.
         24    2    1    2    0    0  0.46674940227E+02 -0.16079815167E+03  0.59370612733E+03  0.62158106735E+03  0.76429457875E+02 0.  0.
        -11    1    5    5    0    0 -0.63464525882E+01 -0.11689564625E+02  0.14831118511E+03  0.14890645053E+03  0.00000000000E+00 0.  1.
         12    1    5    5    0    0  0.53021392816E+02 -0.14910858704E+03  0.44539494222E+03  0.47267461681E+03  0.00000000000E+00 0. -1.
         13    1    3    3    0    0  0.49190249615E+02 -0.40382993891E+02 -0.16301864796E+03  0.17500156123E+03  0.00000000000E+00 0. -1.
        -14    1    3    3    0    0 -0.15718600216E+02  0.20620668514E+02 -0.46621957203E+02  0.53346914214E+02  0.00000000000E+00 0.  1.
          5    1    4    4  501    0  0.30240575622E+02  0.15938303326E+02  0.34602041762E+02  0.48819008808E+02  0.41800000000E+01 0.  1.
         -5    1    4    4    0  501 -0.11038716525E+03  0.16462217372E+03  0.28589151318E+03  0.34790403280E+03  0.41800000000E+01 0.  1.
</event>
<event>
11    1  0.8299058E-009  0.1267305E+03  0.7561462E-02  0.1123353E+00
         22   -1    0    0    0    0  0.00000000000E+00  0.00000000000E+00  0.45302901281E+03  0.45302901281E+03  0.00000000000E+00 0. -1.
         22   -1    0    0    0    0 -0.00000000000E+00 -0.00000000000E+00 -0.13165508528E+04  0.13165508528E+04  0.00000000000E+00 0.  1.
         24    2    1    2    0    0 -0.37940118140E+00 -0.15900989977E+02 -0.12869144164E+04  0.12895425161E+04  0.80735371583E+02 0.  0.
         25    2    1    2    0    0 -0.18323059166E+02  0.20474248598E+02  0.16554801263E+03  0.20930368173E+03  0.12508779855E+03 0.  0.
        -24    2    1    2    0    0  0.18702460347E+02 -0.45732586206E+01  0.25784456380E+03  0.27073366776E+03  0.80263335735E+02 0.  0.
        -13    1    3    3    0    0 -0.32558792622E+02 -0.25355467749E+02 -0.96581255621E+03  0.96669378216E+03  0.00000000000E+00 0.  1.
         14    1    3    3    0    0  0.32179391441E+02  0.94544777719E+01 -0.32110186020E+03  0.32284873394E+03  0.00000000000E+00 0. -1.
         13    1    5    5    0    0 -0.16224047079E+02 -0.22070835714E+00  0.21351453977E+03  0.21413016394E+03  0.00000000000E+00 0. -1.
        -14    1    5    5    0    0  0.34926507426E+02 -0.43525502634E+01  0.44330024025E+02  0.56603503821E+02  0.00000000000E+00 0.  1.
          5    1    4    4  501    0  0.11037038048E+02  0.41836952247E+02  0.39781343209E+01  0.43651400148E+02  0.41800000000E+01 0. -1.
         -5    1    4    4    0  501 -0.29360097214E+02 -0.21362703649E+02  0.16156987831E+03  0.16565228158E+03  0.41800000000E+01 0. -1.
</event>
<event>
11    1  0.8299058E-009  0.1581729E+03  0.7561462E-02  0.1088808E+00
         22   -1    0    0    0    0  0.00000000000E+00  0.00000000000E+00  0.73621738349E+03  0.73621738349E+03  0.00000000000E+00 0.  1.
         22   -1    0    0    0    0 -0.00000000000E+00 -0.00000000000E+00 -0.42471350920E+03  0.42471350920E+03  0.00000000000E+00 0. -1.
         24    2    1    2    0    0  0.12236611701E+01 -0.50798213104E+02 -0.37887500718E+03  0.39055170470E+03  0.80015043452E+02 0.  0.
         25    2    1    2    0    0 -0.95079965766E+02  0.18358103374E+02  0.16101131474E+03  0.22572291854E+03  0.12509585377E+03 0.  0.
        -24    2    1    2    0    0  0.93856304596E+02  0.32440109730E+02  0.52936756672E+03  0.54465626945E+03  0.80988051710E+02 0.  0.
        -11    1    3    3    0    0 -0.19780413405E+02  0.15148401097E+02 -0.12187028963E+03  0.12439094141E+03  0.00000000000E+00 0.  1.
         12    1    3    3    0    0  0.21004074575E+02 -0.65946614201E+02 -0.25700471755E+03  0.26616076330E+03  0.00000000000E+00 0. -1.
         13    1    5    5    0    0  0.88920428884E+01  0.39586374450E+02  0.22222576742E+03  0.22589918365E+03  0.00000000000E+00 0. -1.
        -14    1    5    5    0    0  0.84964261708E+02 -0.71462647201E+01  0.30714179930E+03  0.31875708579E+03  0.00000000000E+00 0.  1.
          5    1    4    4  501    0  0.17263596685E+02 -0.83028084115E-01 -0.98904130867E+01  0.20330551768E+02  0.41800000000E+01 0. -1.
         -5    1    4    4    0  501 -0.11234356245E+03  0.18441131458E+02  0.17090172783E+03  0.20539236677E+03  0.41800000000E+01 0. -1.
</event>
<event>
11    1  0.8299058E-009  0.1608083E+03  0.7561462E-02  0.1086319E+00
         22   -1    0    0    0    0  0.00000000000E+00  0.00000000000E+00  0.29230624389E+03  0.29230624389E+03  0.00000000000E+00 0. -1.
         22   -1    0    0    0    0 -0.00000000000E+00 -0.00000000000E+00 -0.10110911075E+04  0.10110911075E+04  0.00000000000E+00 0. -1.
        -24    2    1    2    0    0 -0.87293523435E+02 -0.55666041170E+02 -0.86693783144E+03  0.87674981725E+03  0.79938545706E+02 0.  0.
         25    2    1    2    0    0  0.43459923422E+02  0.76519465352E+02 -0.84813736862E+02  0.17486811432E+03  0.12506595829E+03 0.  0.
         24    2    1    2    0    0  0.43833600013E+02 -0.20853424182E+02  0.23296670468E+03  0.25177941984E+03  0.82238318163E+02 0.  0.
        -11    1    5    5    0    0 -0.24226007979E+02 -0.11402986021E+02  0.66741447327E+02  0.71912087608E+02  0.00000000000E+00 0.  1.
         12    1    5    5    0    0  0.68059607993E+02 -0.94504381608E+01  0.16622525735E+03  0.17986733223E+03  0.00000000000E+00 0. -1.
         11    1    3    3    0    0 -0.60957735750E+02  0.79583083664E+01 -0.37213391167E+03  0.37717744953E+03  0.00000000000E+00 0. -1.
        -12    1    3    3    0    0 -0.26335787685E+02 -0.63624349536E+02 -0.49480391977E+03  0.49957236771E+03  0.00000000000E+00 0.  1.
          5    1    4    4  501    0 -0.13760962270E+02  0.82870017094E+02 -0.81392925600E+02  0.11704308845E+03  0.41800000000E+01 0.  1.
         -5    1    4    4    0  501  0.57220885692E+02 -0.63505517421E+01 -0.34208112625E+01  0.57825025867E+02  0.41800000000E+01 0.  1.
</event>
<event>
11    1  0.8299058E-009  0.1286935E+03  0.7561462E-02  0.1120885E+00
         22   -1    0    0    0    0  0.00000000000E+00  0.00000000000E+00  0.37244825944E+03  0.37244825944E+03  0.00000000000E+00 0. -1.
         22   -1    0    0    0    0 -0.00000000000E+00 -0.00000000000E+00 -0.23762109629E+03  0.23762109629E+03  0.00000000000E+00 0. -1.
        -24    2    1    2    0    0  0.22184465716E+02  0.22542084140E+02 -0.13864860489E+03  0.16313540791E+03  0.79933907697E+02 0.  0.
         25    2    1    2    0    0 -0.45048955754E+01 -0.28613115009E+02 -0.30535975748E+02  0.13198203439E+03  0.12509119534E+03 0.  0.
         24    2    1    2    0    0 -0.17679570141E+02  0.60710308684E+01  0.30401174379E+03  0.31495191344E+03  0.80138272987E+02 0.  0.
        -11    1    5    5    0    0  0.22963597295E+02 -0.10834909527E+02  0.40590476100E+02  0.47878061941E+02  0.00000000000E+00 0.  1.
         12    1    5    5    0    0 -0.40643167436E+02  0.16905940396E+02  0.26342126769E+03  0.26707385149E+03  0.00000000000E+00 0. -1.
         13    1    3    3    0    0  0.13120783975E+02  0.47591868212E+02 -0.12227959858E+03  0.13186903018E+03  0.00000000000E+00 0. -1.
        -14    1    3    3    0    0  0.90636817408E+01 -0.25049784072E+02 -0.16369006311E+02  0.31266377730E+02  0.00000000000E+00 0.  1.
          5    1    4    4  501    0  0.12809019208E+02 -0.69600845722E+02  0.10063329566E+02  0.71603712894E+02  0.41800000000E+01 0. -1.
         -5    1    4    4    0  501 -0.17313914784E+02  0.40987730713E+02 -0.40599305314E+02  0.60378321492E+02  0.41800000000E+01 0. -1.
</event>
<event>
11    1  0.8299058E-009  0.1327104E+03  0.7561462E-02  0.1115983E+00
         22   -1    0    0    0    0  0.00000000000E+00  0.00000000000E+00  0.70713607456E+03  0.70713607456E+03  0.00000000000E+00 0.  1.
         22   -1    0    0    0    0 -0.00000000000E+00 -0.00000000000E+00 -0.99879633995E+02  0.99879633995E+02  0.00000000000E+00 0.  1.
         24    2    1    2    0    0 -0.23714737627E+02 -0.26831365983E+00 -0.38668477764E+02  0.94667514264E+02  0.83091674140E+02 0.  0.
         25    2    1    2    0    0 -0.10445904932E+02  0.31295815657E+02  0.11141363870E+03  0.17073094100E+03  0.12509000887E+03 0.  0.
        -24    2    1    2    0    0  0.34160642559E+02 -0.31027501998E+02  0.53451127963E+03  0.54161725329E+03  0.74278433171E+02 0.  0.
        -11    1    3    3    0    0  0.23555119445E+02  0.23666083619E+02 -0.13629600736E+02  0.36065124181E+02  0.00000000000E+00 0.  1.
         12    1    3    3    0    0 -0.47269857072E+02 -0.23934397278E+02 -0.25038877028E+02  0.58602390084E+02  0.00000000000E+00 0. -1.
         13    1    5    5    0    0  0.27162215162E+02 -0.12438093988E+02  0.63385313885E+02  0.70072748847E+02  0.00000000000E+00 0. -1.
        -14    1    5    5    0    0  0.69984273967E+01 -0.18589408009E+02  0.47112596574E+03  0.47154450445E+03  0.00000000000E+00 0.  1.
          5    1    4    4  501    0 -0.17820443595E+02 -0.34996457140E+02  0.93561527421E+02  0.10155565979E+03  0.41800000000E+01 0. -1.
         -5    1    4    4    0  501  0.73745386623E+01  0.66292272797E+02  0.17852111283E+02  0.69175281209E+02  0.41800000000E+01 0. -1.
</event>
<event>
11    1  0.8299058E-009  0.2472693E+03  0.7561462E-02  0.1025364E+00
         22   -1    0    0    0    0  0.00000000000E+00  0.00000000000E+00  0.17810942478E+03  0.17810942478E+03  0.00000000000E+00 0. -1.
         22   -1    0    0    0    0 -0.00000000000E+00 -0.00000000000E+00 -0.13047977703E+04  0.13047977703E+04  0.00000000000E+00 0. -1.
        -24    2    1    2    0    0 -0.43991127203E+02 -0.19418118156E+03 -0.80391531357E+03  0.83188795144E+03  0.78206021599E+02 0.  0.
         25    2    1    2    0    0 -0.39959558244E+01  0.26807011926E+03 -0.40152890806E+03  0.49874601746E+03  0.12507825318E+03 0.  0.
         24    2    1    2    0    0  0.47987083027E+02 -0.73888937698E+02  0.78755876164E+02  0.15227322614E+03  0.96032869981E+02 0.  0.
        -11    1    5    5    0    0  0.16192050942E+02 -0.33194337384E+02 -0.19134786678E+02  0.41595511889E+02  0.00000000000E+00 0.  1.
         12    1    5    5    0    0  0.31795032085E+02 -0.40694600313E+02  0.97890662842E+02  0.11067771425E+03  0.00000000000E+00 0. -1.
         11    1    3    3    0    0  0.17483557020E+01 -0.97655239343E+02 -0.50752780917E+03  0.51684047790E+03  0.00000000000E+00 0. -1.
        -12    1    3    3    0    0 -0.45739482905E+02 -0.96525942218E+02 -0.29638750440E+03  0.31504747354E+03  0.00000000000E+00 0.  1.
          5    1    4    4  501    0  0.56315359818E+02  0.17935584817E+03 -0.24219767667E+03  0.30662212413E+03  0.41800000000E+01 0. -1.
         -5    1    4    4    0  501 -0.60311315643E+02  0.88714271093E+02 -0.15933123140E+03  0.19212389333E+03  0.41800000000E+01 0. -1.
</event>
<event>
11    1  0.8299058E-009  0.1634795E+03  0.7561462E-02  0.1083850E+00
         22   -1    0    0    0    0  0.00000000000E+00  0.00000000000E+00  0.41062506157E+03  0.41062506157E+03  0.00000000000E+00 0.  1.
         22   -1    0    0    0    0 -0.00000000000E+00 -0.00000000000E+00 -0.11374585738E+04  0.11374585738E+04  0.00000000000E+00 0.  1.
        -24    2    1    2    0    0 -0.10202300130E+03 -0.20857259766E+02 -0.41289594389E+03  0.43324562207E+03  0.79843537478E+02 0.  0.
         25    2    1    2    0    0  0.18652069350E+03 -0.39867296587E+02 -0.68383394362E+03  0.72087139554E+03  0.12508931218E+03 0.  0.
         24    2    1    2    0    0 -0.84497692200E+02  0.60724556354E+02  0.36989637528E+03  0.39396661777E+03  0.86942715308E+02 0.  0.
        -11    1    5    5    0    0 -0.88181072124E+02  0.58934811503E+02  0.37364992034E+03  0.38841147828E+03  0.00000000000E+00 0.  1.
         12    1    5    5    0    0  0.36833799237E+01  0.17897448507E+01 -0.37535450620E+01  0.55551394964E+01  0.00000000000E+00 0. -1.
         11    1    3    3    0    0 -0.61905460314E+02 -0.35836946079E+02 -0.14213540061E+03  0.15911959284E+03  0.00000000000E+00 0. -1.
        -12    1    3    3    0    0 -0.40117540985E+02  0.14979686313E+02 -0.27076054329E+03  0.27412602922E+03  0.00000000000E+00 0.  1.
          5    1    4    4  501    0  0.71633227646E+01  0.31165963880E+02 -0.63501424863E+02  0.71221723212E+02  0.41800000000E+01 0.  1.
         -5    1    4    4    0  501  0.17935737073E+03 -0.71033260468E+02 -0.62033251875E+03  0.64964967233E+03  0.41800000000E+01 0.  1.
</event>
<event>
11    1  0.8299058E-009  0.1300985E+03  0.7561462E-02  0.1119148E+00
         22   -1    0    0    0    0  0.00000000000E+00  0.00000000000E+00  0.26894806366E+04  0.26894806366E+04  0.00000000000E+00 0. -1.
         22   -1    0    0    0    0 -0.00000000000E+00 -0.00000000000E+00 -0.15417670587E+03  0.15417670587E+03  0.00000000000E+00 0.  1.
        -24    2    1    2    0    0  0.34523630401E+02 -0.99218916673E+01 -0.13734068470E+03  0.16265677802E+03  0.79400496042E+02 0.  0.
         25    2    1    2    0    0 -0.12040254903E+02  0.20683500318E+02  0.14419433896E+04  0.14475567004E+04  0.12508751885E+03 0.  0.
         24    2    1    2    0    0 -0.22483375498E+02 -0.10761608651E+02  0.12307012259E+04  0.12334438640E+04  0.78338649070E+02 0.  0.
        -11    1    5    5    0    0  0.15555845668E+02 -0.28482427801E+02  0.29061091437E+03  0.29241740129E+03  0.00000000000E+00 0.  1.
         12    1    5    5    0    0 -0.38039221166E+02  0.17720819150E+02  0.94009031150E+03  0.94102646273E+03  0.00000000000E+00 0. -1.
         13    1    3    3    0    0  0.26876282338E+01 -0.52481923098E+00  0.10646244208E+02  0.10992783836E+02  0.00000000000E+00 0. -1.
        -14    1    3    3    0    0  0.31836002167E+02 -0.93970724363E+01 -0.14798692891E+03  0.15166399418E+03  0.00000000000E+00 0.  1.
          5    1    4    4  501    0  0.45122318911E+01 -0.12142874993E+02  0.15479521506E+02  0.20613045282E+02  0.41800000000E+01 0.  1.
         -5    1    4    4    0  501 -0.16552486794E+02  0.32826375311E+02  0.14264638681E+04  0.14269436552E+04  0.41800000000E+01 0.  1.
</event>
<event>
11    1  0.8299058E-009  0.1457742E+03  0.7561462E-02  0.1101277E+00
         22   -1    0    0    0    0  0.00000000000E+00  0.00000000000E+00  0.32896421209E+04  0.32896421209E+04  0.00000000000E+00 0.  1.
         22   -1    0    0    0    0 -0.00000000000E+00 -0.00000000000E+00 -0.19602281900E+03  0.19602281900E+03  0.00000000000E+00 0. -1.
        -24    2    1    2    0    0  0.72585915560E+02 -0.14067326789E+02 -0.17070068665E+03  0.20271355895E+03  0.80544756123E+02 0.  0.
         25    2    1    2    0    0 -0.14106315681E+03 -0.44875689008E+01  0.10958923099E+04  0.11120012491E+04  0.12509144902E+03 0.  0.
         24    2    1    2    0    0  0.68477241246E+02  0.18554895690E+02  0.21684276786E+04  0.21709501318E+04  0.76892527440E+02 0.  0.
        -11    1    5    5    0    0  0.20895267475E+02 -0.17069452088E+02  0.13879703572E+04  0.13882325781E+04  0.00000000000E+00 0.  1.
         12    1    5    5    0    0  0.47581973770E+02  0.35624347778E+02  0.78045732133E+03  0.78271755365E+03  0.00000000000E+00 0. -1.
         11    1    3    3    0    0  0.63938435932E+02  0.23177527313E+02 -0.13095612482E+03  0.14756296279E+03  0.00000000000E+00 0. -1.
        -12    1    3    3    0    0  0.86474796281E+01 -0.37244854102E+02 -0.39744561831E+02  0.55150596154E+02  0.00000000000E+00 0.  1.
          5    1    4    4  501    0  0.20910861898E+01  0.38029461734E+02  0.27015433144E+03  0.27285792603E+03  0.41800000000E+01 0. -1.
         -5    1    4    4    0  501 -0.14315424300E+03 -0.42517030635E+02  0.82573797850E+03  0.83914332311E+03  0.41800000000E+01 0. -1.
</event>
<event>
11    1  0.8299058E-009  0.1378197E+03  0.7561462E-02  0.1110018E+00
         22   -1    0    0    0    0  0.00000000000E+00  0.00000000000E+00  0.49150193306E+03  0.49150193306E+03  0.00000000000E+00 0. -1.
         22   -1    0    0    0    0 -0.00000000000E+00 -0.00000000000E+00 -0.36175818344E+03  0.36175818344E+03  0.00000000000E+00 0. -1.
        -24    2    1    2    0    0 -0.22237007012E+02  0.24177018614E+02 -0.24611929045E+03  0.26049197073E+03  0.78754993301E+02 0.  0.
         25    2    1    2    0    0  0.23432164754E+01  0.31889160721E+02 -0.61991018628E+02  0.14321719195E+03  0.12508344592E+03 0.  0.
         24    2    1    2    0    0  0.19893790536E+02 -0.56066179336E+02  0.43785405870E+03  0.44955095383E+03  0.82708548526E+02 0.  0.
        -13    1    5    5    0    0 -0.19577922042E+02 -0.35106812438E+02  0.86707394845E+02  0.95571730296E+02  0.00000000000E+00 0.  1.
         14    1    5    5    0    0  0.39471712578E+02 -0.20959366897E+02  0.35114666386E+03  0.35397922353E+03  0.00000000000E+00 0. -1.
         11    1    3    3    0    0 -0.49058988037E+01  0.34881700538E+02 -0.23431601044E+03  0.23694892620E+03  0.00000000000E+00 0. -1.
        -12    1    3    3    0    0 -0.17331108208E+02 -0.10704681923E+02 -0.11803280011E+02  0.23543044532E+02  0.00000000000E+00 0.  1.
          5    1    4    4  501    0 -0.36699413079E+02 -0.34566843543E+02 -0.14650610537E+02  0.52667128097E+02  0.41800000000E+01 0. -1.
         -5    1    4    4    0  501  0.39042629554E+02  0.66456004265E+02 -0.47340408090E+02  0.90550063851E+02  0.41800000000E+01 0. -1.
</event>
<event>
11    1  0.8299058E-009  0.1461631E+03  0.7561462E-02  0.1100865E+00
         22   -1    0    0    0    0  0.00000000000E+00  0.00000000000E+00  0.10734981652E+04  0.10734981652E+04  0.00000000000E+00 0. -1.
         22   -1    0    0    0    0 -0.00000000000E+00 -0.00000000000E+00 -0.62248398738E+03  0.62248398738E+03  0.00000000000E+00 0.  1.
        -24    2    1    2    0    0  0.69161427041E+02  0.15613426811E+02 -0.46854614879E+03  0.48079482499E+03  0.81247080581E+02 0.  0.
         25    2    1    2    0    0 -0.10606355776E+03 -0.45352024399E+02 -0.96001034675E+02  0.19537133310E+03  0.12508986665E+03 0.  0.
         24    2    1    2    0    0  0.36902130722E+02  0.29738597588E+02  0.10155613613E+04  0.10198159945E+04  0.80085158569E+02 0.  0.
        -11    1    5    5    0    0 -0.29473906422E+01 -0.23219407214E+02  0.16154251364E+03  0.16322932241E+03  0.00000000000E+00 0.  1.
         12    1    5    5    0    0  0.39849521364E+02  0.52958004802E+02  0.85401884770E+03  0.85658667212E+03  0.00000000000E+00 0. -1.
         13    1    3    3    0    0  0.95519331392E+00  0.21752116360E+02 -0.26791051481E+03  0.26879380742E+03  0.00000000000E+00 0. -1.
        -14    1    3    3    0    0  0.68206233727E+02 -0.61386895486E+01 -0.20063563398E+03  0.21200101757E+03  0.00000000000E+00 0.  1.
          5    1    4    4  501    0 -0.11681634639E+03 -0.33761892660E+02 -0.11697230989E+03  0.16877771731E+03  0.41800000000E+01 0. -1.
         -5    1    4    4    0  501  0.10752788627E+02 -0.11590131739E+02  0.20971275212E+02  0.26593615794E+02  0.41800000000E+01 0. -1.
</event>
<event>
11    1  0.8299058E-009  0.1426256E+03  0.7561462E-02  0.1104661E+00
         22   -1    0    0    0    0  0.00000000000E+00  0.00000000000E+00  0.21427666254E+03  0.21427666254E+03  0.00000000000E+00 0.  1.
         22   -1    0    0    0    0 -0.00000000000E+00 -0.00000000000E+00 -0.68290223812E+03  0.68290223812E+03  0.00000000000E+00 0. -1.
        -24    2    1    2    0    0  0.40235093502E+02  0.56502911378E+02 -0.55664256068E+03  0.56536229580E+03  0.70513427177E+02 0.  0.
         25    2    1    2    0    0 -0.57405140760E+02 -0.31887932757E+02 -0.64686063823E+02  0.15538003794E+03  0.12508588607E+03 0.  0.
         24    2    1    2    0    0  0.17170047258E+02 -0.24614978621E+02  0.15270304892E+03  0.17643656691E+03  0.83132023301E+02 0.  0.
        -11    1    5    5    0    0 -0.22002824322E+02  0.18553580033E+02  0.36973769142E+02  0.46855300818E+02  0.00000000000E+00 0.  1.
         12    1    5    5    0    0  0.39172871580E+02 -0.43168558653E+02  0.11572927978E+03  0.12958126609E+03  0.00000000000E+00 0. -1.
         11    1    3    3    0    0  0.36541146727E+02  0.66544296345E+02 -0.54164526050E+03  0.54693965572E+03  0.00000000000E+00 0. -1.
        -12    1    3    3    0    0  0.36939467744E+01 -0.10041384967E+02 -0.14997300180E+02  0.18422640080E+02  0.00000000000E+00 0.  1.
          5    1    4    4  501    0  0.16618759266E+02  0.32331073134E+02  0.22009107564E+01  0.36657848514E+02  0.41800000000E+01 0.  1.
         -5    1    4    4    0  501 -0.74023900026E+02 -0.64219005891E+02 -0.66886974580E+02  0.11872218942E+03  0.41800000000E+01 0.  1.
</event>
<event>
11    1  0.8299058E-009  0.2022235E+03  0.7561462E-02  0.1052962E+00
         22   -1    0    0    0    0  0.00000000000E+00  0.00000000000E+00  0.20716740435E+04  0.20716740435E+04  0.00000000000E+00 0.  1.
         22   -1    0    0    0    0 -0.00000000000E+00 -0.00000000000E+00 -0.24256075036E+04  0.24256075036E+04  0.00000000000E+00 0.  1.
         24    2    1    2    0    0  0.28407422143E+02  0.70112666237E+02 -0.23121168791E+04  0.23147559217E+04  0.80546550151E+02 0.  0.
         25    2    1    2    0    0 -0.55400863962E+02  0.88857320093E+02 -0.46486271625E+02  0.16962817106E+03  0.12509142219E+03 0.  0.
        -24    2    1    2    0    0  0.26993441820E+02 -0.15896998633E+03  0.20046696907E+04  0.20128974544E+04  0.83996966940E+02 0.  0.
        -13    1    3    3    0    0  0.22601400096E+02 -0.12788734809E+02 -0.72478072349E+03  0.72524580121E+03  0.00000000000E+00 0.  1.
         14    1    3    3    0    0  0.58060220463E+01  0.82901401046E+02 -0.15873361556E+04  0.15895101205E+04  0.00000000000E+00 0. -1.
         13    1    5    5    0    0  0.23872498824E+02 -0.90795915602E+01  0.14827228130E+03  0.15045598886E+03  0.00000000000E+00 0. -1.
        -14    1    5    5    0    0  0.31209429955E+01 -0.14989039477E+03  0.18563974094E+04  0.18624414655E+04  0.00000000000E+00 0.  1.
          5    1    4    4  501    0 -0.90946921800E+02  0.88944157500E+02 -0.34301748596E+02  0.13181990781E+03  0.41800000000E+01 0.  1.
         -5    1    4    4    0  501  0.35546057838E+02 -0.86837406718E-01 -0.12184523030E+02  0.37808263251E+02  0.41800000000E+01 0.  1.
</event>
<event>
11    1  0.8299058E-009  0.2385432E+03  0.7561462E-02  0.1030186E+00
         22   -1    0    0    0    0  0.00000000000E+00  0.00000000000E+00  0.14264610885E+03  0.14264610885E+03  0.00000000000E+00 0.  1.
         22   -1    0    0    0    0 -0.00000000000E+00 -0.00000000000E+00 -0.13440050088E+04  0.13440050088E+04  0.00000000000E+00 0.  1.
         24    2    1    2    0    0 -0.55110124335E+02 -0.13199370664E+02 -0.64618635072E+03  0.65357462021E+03  0.79947702558E+02 0.  0.
         25    2    1    2    0    0 -0.98112329184E+02 -0.13117508299E+03 -0.57081070567E+03  0.60688153583E+03  0.12508958905E+03 0.  0.
        -24    2    1    2    0    0  0.15322245352E+03  0.14437445365E+03  0.15638156450E+02  0.22619496160E+03  0.81231186055E+02 0.  0.
        -13    1    3    3    0    0 -0.55381430484E+02  0.18380578737E+02 -0.27923444188E+03  0.28526623012E+03  0.00000000000E+00 0.  1.
         14    1    3    3    0    0  0.27130614957E+00 -0.31579949401E+02 -0.36695190884E+03  0.36830839009E+03  0.00000000000E+00 0. -1.
         13    1    5    5    0    0 -0.45593852284E+01  0.30625165690E+02 -0.96702873880E+00  0.30977797078E+02  0.00000000000E+00 0. -1.
        -14    1    5    5    0    0  0.15778183875E+03  0.11374928796E+03  0.16605185189E+02  0.19521716453E+03  0.00000000000E+00 0.  1.
          5    1    4    4  501    0 -0.11742628274E+03 -0.60301323369E+02 -0.34679768521E+03  0.37109471614E+03  0.41800000000E+01 0. -1.
         -5    1    4    4    0  501  0.19313953557E+02 -0.70873759619E+02 -0.22401302046E+03  0.23578681969E+03  0.41800000000E+01 0. -1.
</event>
<event>
11    1  0.8299058E-009  0.1378760E+03  0.7561462E-02  0.1109954E+00
         22   -1    0    0    0    0  0.00000000000E+00  0.00000000000E+00  0.17332175511E+04  0.17332175511E+04  0.00000000000E+00 0. -1.
         22   -1    0    0    0    0 -0.00000000000E+00 -0.00000000000E+00 -0.59452803705E+03  0.59452803705E+03  0.00000000000E+00 0. -1.
         24    2    1    2    0    0 -0.36282109106E+02 -0.54710270285E+02 -0.33376751968E+03  0.34978815313E+03  0.81494722279E+02 0.  0.
         25    2    1    2    0    0 -0.17272529058E+02  0.53510829028E+02 -0.23270530547E+03  0.27011170940E+03  0.12508727865E+03 0.  0.
        -24    2    1    2    0    0  0.53554638164E+02  0.11994412562E+01  0.17051623392E+04  0.17078457257E+04  0.79302469098E+02 0.  0.
        -11    1    3    3    0    0 -0.36892950699E+02  0.99744501185E+01 -0.94629664116E+02  0.10205563579E+03  0.00000000000E+00 0.  1.
         12    1    3    3    0    0  0.61084159322E+00 -0.64684720403E+02 -0.23913785556E+03  0.24773251733E+03  0.00000000000E+00 0. -1.
         11    1    5    5    0    0  0.52320140352E+02 -0.32658169767E+02  0.11445471030E+04  0.11462076706E+04  0.00000000000E+00 0. -1.
        -12    1    5    5    0    0  0.12344978119E+01  0.33857611024E+02  0.56061523621E+03  0.56163805505E+03  0.00000000000E+00 0.  1.
          5    1    4    4  501    0 -0.53507649776E+02  0.74338725408E+02 -0.18551282568E+03  0.20693427839E+03  0.41800000000E+01 0.  1.
         -5    1    4    4    0  501  0.36235120717E+02 -0.20827896380E+02 -0.47192479789E+02  0.63177431015E+02  0.41800000000E+01 0.  1.
</event>
<event>
11    1  0.8299058E-009  0.1306087E+03  0.7561462E-02  0.1118523E+00
         22   -1    0    0    0    0  0.00000000000E+00  0.00000000000E+00  0.69535622800E+03  0.69535622800E+03  0.00000000000E+00 0.  1.
         22   -1    0    0    0    0 -0.00000000000E+00 -0.00000000000E+00 -0.43436265633E+03  0.43436265633E+03  0.00000000000E+00 0.  1.
        -24    2    1    2    0    0  0.28067484072E+02  0.58144452097E+01 -0.37631327306E+03  0.38573826281E+03  0.79754225468E+02 0.  0.
         25    2    1    2    0    0 -0.33144334124E+02 -0.42442721328E+02  0.42455423118E+02  0.14264420077E+03  0.12507986881E+03 0.  0.
         24    2    1    2    0    0  0.50768500521E+01  0.36628276118E+02  0.59485142162E+03  0.60133642075E+03  0.79936675603E+02 0.  0.
        -11    1    5    5    0    0 -0.13714283504E+02 -0.17191164039E+02  0.31336569392E+03  0.31413639684E+03  0.00000000000E+00 0.  1.
         12    1    5    5    0    0  0.18791133556E+02  0.53819440157E+02  0.28148572770E+03  0.28720002391E+03  0.00000000000E+00 0. -1.
         13    1    3    3    0    0 -0.23122897532E+02  0.20283863261E+02 -0.11341289441E+03  0.11750994902E+03  0.00000000000E+00 0. -1.
        -14    1    3    3    0    0  0.51190381603E+02 -0.14469418051E+02 -0.26290037865E+03  0.26822831379E+03  0.00000000000E+00 0.  1.
          5    1    4    4  501    0  0.35388427050E+02  0.10625346863E+02 -0.13307302448E+02  0.39494245954E+02  0.41800000000E+01 0. -1.
         -5    1    4    4    0  501 -0.68532761173E+02 -0.53068068191E+02  0.55762725567E+02  0.10314995481E+03  0.41800000000E+01 0. -1.
</event>
<event>
11    1  0.8299058E-009  0.1366829E+03  0.7561462E-02  0.1111320E+00
         22   -1    0    0    0    0  0.00000000000E+00  0.00000000000E+00  0.88068651338E+03  0.88068651338E+03  0.00000000000E+00 0. -1.
         22   -1    0    0    0    0 -0.00000000000E+00 -0.00000000000E+00 -0.12576730878E+03  0.12576730878E+03  0.00000000000E+00 0.  1.
         24    2    1    2    0    0  0.48503784222E+02  0.28139622385E+02 -0.77210144638E+02  0.12682527413E+03  0.83539142270E+02 0.  0.
         25    2    1    2    0    0 -0.63701923179E+02  0.25533427567E+02  0.23917449421E+03  0.27850231503E+03  0.12509680195E+03 0.  0.
        -24    2    1    2    0    0  0.15198138957E+02 -0.53673049952E+02  0.59295485503E+03  0.60112623300E+03  0.81519986336E+02 0.  0.
        -13    1    3    3    0    0  0.69683183355E+02  0.32116673080E+02 -0.47924038167E+02  0.90465132324E+02  0.00000000000E+00 0.  1.
         14    1    3    3    0    0 -0.21179399133E+02 -0.39770506946E+01 -0.29286106472E+02  0.36360141806E+02  0.00000000000E+00 0. -1.
         13    1    5    5    0    0  0.28485573203E+02 -0.33766505150E+02  0.55143758599E+03  0.55320431668E+03  0.00000000000E+00 0. -1.
        -14    1    5    5    0    0 -0.13287434246E+02 -0.19906544802E+02  0.41517269042E+02  0.47921916317E+02  0.00000000000E+00 0.  1.
          5    1    4    4  501    0 -0.31003994872E+02 -0.34722711960E+02  0.23814169785E+02  0.52454756756E+02  0.41800000000E+01 0.  1.
         -5    1    4    4    0  501 -0.32697928308E+02  0.60256139527E+02  0.21536032442E+03  0.22604755827E+03  0.41800000000E+01 0.  1.
</event>
<event>
11    1  0.8299058E-009  0.1304695E+03  0.7561462E-02  0.1118693E+00
         22   -1    0    0    0    0  0.00000000000E+00  0.00000000000E+00  0.72564796228E+03  0.72564796228E+03  0.00000000000E+00 0. -1.
         22   -1    0    0    0    0 -0.00000000000E+00 -0.00000000000E+00 -0.64914030227E+03  0.64914030227E+03  0.00000000000E+00 0. -1.
        -24    2    1    2    0    0  0.28775151948E+02 -0.19159270397E+01 -0.50471994616E+03  0.51184818296E+03  0.80091561335E+02 0.  0.
         25    2    1    2    0    0 -0.18582754534E+01  0.27958947024E+02 -0.10815345053E+03  0.16772455860E+03  0.12509677370E+03 0.  0.
         24    2    1    2    0    0 -0.26916876495E+02 -0.26043019984E+02  0.68938105670E+03  0.69521552300E+03  0.81704497735E+02 0.  0.
        -13    1    5    5    0    0  0.39005470393E+01 -0.43965073863E+02  0.21426537433E+03  0.21876423982E+03  0.00000000000E+00 0.  1.
         14    1    5    5    0    0 -0.30817423534E+02  0.17922053879E+02  0.47511568236E+03  0.47645128317E+03  0.00000000000E+00 0. -1.
         11    1    3    3    0    0 -0.67154072973E+01 -0.13297125355E+02 -0.40683558777E+03  0.40710822359E+03  0.00000000000E+00 0. -1.
        -12    1    3    3    0    0  0.35490559246E+02  0.11381198315E+02 -0.97884358391E+02  0.10473995937E+03  0.00000000000E+00 0.  1.
          5    1    4    4  501    0  0.30383599114E+02  0.39747377269E+02  0.39968160297E+01  0.50363320317E+02  0.41800000000E+01 0. -1.
         -5    1    4    4    0  501 -0.32241874568E+02 -0.11788430246E+02 -0.11215026656E+03  0.11736123829E+03  0.41800000000E+01 0. -1.
</event>
<event>
11    1  0.8299058E-009  0.1349563E+03  0.7561462E-02  0.1113325E+00
         22   -1    0    0    0    0  0.00000000000E+00  0.00000000000E+00  0.13836590232E+04  0.13836590232E+04  0.00000000000E+00 0.  1.
         22   -1    0    0    0    0 -0.00000000000E+00 -0.00000000000E+00 -0.26230411141E+04  0.26230411141E+04  0.00000000000E+00 0. -1.
         24    2    1    2    0    0 -0.32211040380E+02 -0.29370524435E+02 -0.24813052201E+04  0.24830965914E+04  0.83623610258E+02 0.  0.
         25    2    1    2    0    0 -0.25483833533E+01 -0.81960104019E+01 -0.11090504317E+03  0.16739311446E+03  0.12508739874E+03 0.  0.
        -24    2    1    2    0    0  0.34759423733E+02  0.37566534837E+02  0.13528281723E+04  0.13562104315E+04  0.80890102820E+02 0.  0.
        -13    1    3    3    0    0 -0.23712255412E+02  0.13141665147E+02 -0.18937738695E+04  0.18939679098E+04  0.00000000000E+00 0.  1.
         14    1    3    3    0    0 -0.84987849681E+01 -0.42512189582E+02 -0.58753135057E+03  0.58912868162E+03  0.00000000000E+00 0. -1.
         13    1    5    5    0    0 -0.20922048212E+02  0.31776274891E+02  0.42713289046E+03  0.42882393807E+03  0.00000000000E+00 0. -1.
        -14    1    5    5    0    0  0.55681471945E+02  0.57902599458E+01  0.92569528181E+03  0.92738649342E+03  0.00000000000E+00 0.  1.
          5    1    4    4  501    0  0.33836662360E+02  0.39460360923E+02 -0.89513065089E+02  0.10359585429E+03  0.41800000000E+01 0. -1.
         -5    1    4    4    0  501 -0.36385045713E+02 -0.47656371325E+02 -0.21391978078E+02  0.63797260172E+02  0.41800000000E+01 0. -1.
</event>
<event>
11    1  0.8299058E-009  0.3410750E+03  0.7561462E-02  0.9841651E-01
         22   -1    0    0    0    0  0.00000000000E+00  0.00000000000E+00  0.90894167934E+03  0.90894167934E+03  0.00000000000E+00 0.  1.
         22   -1    0    0    0    0 -0.00000000000E+00 -0.00000000000E+00 -0.80638392229E+03  0.80638392229E+03  0.00000000000E+00 0.  1.
        -24    2    1    2    0    0 -0.26276895031E+03  0.11150393802E+03 -0.55713065620E+03  0.63071607432E+03  0.76990576600E+02 0.  0.
         25    2    1    2    0    0  0.28770232999E+03 -0.39537810285E+03  0.21058502918E+03  0.54689121756E+03  0.12508986546E+03 0.  0.
         24    2    1    2    0    0 -0.24933379684E+02  0.28387416482E+03  0.44910338406E+03  0.53771830975E+03  0.78999469549E+02 0.  0.
        -13    1    5    5    0    0 -0.27047125665E+02  0.19509195264E+03  0.23954996439E+03  0.31012352770E+03  0.00000000000E+00 0.  1.
         14    1    5    5    0    0  0.21137459811E+01  0.88782212181E+02  0.20955341967E+03  0.22759478205E+03  0.00000000000E+00 0. -1.
         13    1    3    3    0    0 -0.85732577994E+02 -0.44196857316E+00 -0.14629315163E+03  0.16956401882E+03  0.00000000000E+00 0. -1.
        -14    1    3    3    0    0 -0.17703637231E+03  0.11194590660E+03 -0.41083750457E+03  0.46115205550E+03  0.00000000000E+00 0.  1.
          5    1    4    4  501    0  0.17462886847E+03 -0.13575016273E+03  0.83287002820E+02  0.23638431764E+03  0.41800000000E+01 0.  1.
         -5    1    4    4    0  501  0.11307346152E+03 -0.25962794011E+03  0.12729802636E+03  0.31050689993E+03  0.41800000000E+01 0.  1.
</event>
<event>
11    1  0.8299058E-009  0.1826652E+03  0.7561462E-02  0.1067507E+00
         22   -1    0    0    0    0  0.00000000000E+00  0.00000000000E+00  0.20072119906E+03  0.20072119906E+03  0.00000000000E+00 0.  1.
         22   -1    0    0    0    0 -0.00000000000E+00 -0.00000000000E+00 -0.16784436257E+04  0.16784436257E+04  0.00000000000E+00 0.  1.
         24    2    1    2    0    0  0.28331402197E+02 -0.76840316828E+01 -0.94140790543E+03  0.94518952455E+03  0.79200253849E+02 0.  0.
         25    2    1    2    0    0  0.43632162031E+02 -0.10542851788E+03 -0.69255222045E+03  0.71294844962E+03  0.12509186955E+03 0.  0.
        -24    2    1    2    0    0 -0.71963564228E+02  0.11311254956E+03  0.15623769927E+03  0.22102685056E+03  0.80432869849E+02 0.  0.
        -13    1    3    3    0    0  0.34179608177E+02  0.28043478805E+02 -0.65713774668E+03  0.65862333730E+03  0.00000000000E+00 0.  1.
         14    1    3    3    0    0 -0.58482059797E+01 -0.35727510488E+02 -0.28427015875E+03  0.28656618725E+03  0.00000000000E+00 0. -1.
         11    1    5    5    0    0 -0.21925757749E+02 -0.75598167217E+01  0.39634196614E+02  0.45921228457E+02  0.00000000000E+00 0. -1.
        -12    1    5    5    0    0 -0.50037806479E+02  0.12067236628E+03  0.11660350265E+03  0.17510562211E+03  0.00000000000E+00 0.  1.
          5    1    4    4  501    0 -0.46106086187E+00 -0.81841250020E+02 -0.61592469440E+03  0.62135247996E+03  0.41800000000E+01 0. -1.
         -5    1    4    4    0  501  0.44093222893E+02 -0.23587267860E+02 -0.76627526050E+02  0.91595969664E+02  0.41800000000E+01 0. -1.
</event>
<event>
11    1  0.8299058E-009  0.1317148E+03  0.7561462E-02  0.1117180E+00
         22   -1    0    0    0    0  0.00000000000E+00  0.00000000000E+00  0.10588559493E+03  0.10588559493E+03  0.00000000000E+00 0. -1.
         22   -1    0    0    0    0 -0.00000000000E+00 -0.00000000000E+00 -0.47934668334E+03  0.47934668334E+03  0.00000000000E+00 0. -1.
         24    2    1    2    0    0  0.73997494954E+01  0.16539081048E+02 -0.32451515663E+03  0.33615108159E+03  0.85785577319E+02 0.  0.
         25    2    1    2    0    0 -0.46657283277E+02 -0.77449625766E+01 -0.76396094875E+02  0.15401571620E+03  0.12509033135E+03 0.  0.
        -24    2    1    2    0    0  0.39257533782E+02 -0.87941184719E+01  0.27450163094E+02  0.95065480481E+02  0.81642168313E+02 0.  0.
        -13    1    3    3    0    0  0.26587435751E+02  0.34305466567E+02 -0.87248113361E+02  0.97447370725E+02  0.00000000000E+00 0.  1.
         14    1    3    3    0    0 -0.19187686255E+02 -0.17766385519E+02 -0.23726704327E+03  0.23870371086E+03  0.00000000000E+00 0. -1.
         13    1    5    5    0    0  0.53412489266E+02  0.13588024668E+02  0.37585425651E+02  0.66709764243E+02  0.00000000000E+00 0. -1.
        -14    1    5    5    0    0 -0.14154955484E+02 -0.22382143140E+02 -0.10135262557E+02  0.28355716238E+02  0.00000000000E+00 0.  1.
          5    1    4    4  501    0 -0.50505727370E+02 -0.27383101826E+02 -0.10446321234E+03  0.11929248885E+03  0.41800000000E+01 0. -1.
         -5    1    4    4    0  501  0.38484440923E+01  0.19638139249E+02  0.28067117465E+02  0.34723227354E+02  0.41800000000E+01 0. -1.
</event>
<event>
11    1  0.8299058E-009  0.1324388E+03  0.7561462E-02  0.1116308E+00
         22   -1    0    0    0    0  0.00000000000E+00  0.00000000000E+00  0.10513109795E+03  0.10513109795E+03  0.00000000000E+00 0.  1.
         22   -1    0    0    0    0 -0.00000000000E+00 -0.00000000000E+00 -0.71432523611E+03  0.71432523611E+03  0.00000000000E+00 0. -1.
        -24    2    1    2    0    0  0.42832795634E+02  0.18646059592E+02 -0.56496350690E+03  0.57263644941E+03  0.80909919932E+02 0.  0.
         25    2    1    2    0    0 -0.12616578823E+02 -0.14271667111E+02 -0.87888919401E+02  0.15401638019E+03  0.12503489381E+03 0.  0.
         24    2    1    2    0    0 -0.30216216810E+02 -0.43743924810E+01  0.43658288143E+02  0.92803504468E+02  0.75988744233E+02 0.  0.
        -11    1    5    5    0    0 -0.40719304084E+02  0.11711530149E+02  0.55810335346E+02  0.70071500590E+02  0.00000000000E+00 0.  1.
         12    1    5    5    0    0  0.10503087273E+02 -0.16085922630E+02 -0.12152047203E+02  0.22732003879E+02  0.00000000000E+00 0. -1.
         11    1    3    3    0    0 -0.79255016149E+01  0.10889113649E+02 -0.39152767855E+03  0.39175924934E+03  0.00000000000E+00 0. -1.
        -12    1    3    3    0    0  0.50758297249E+02  0.77569459427E+01 -0.17343582835E+03  0.18087720007E+03  0.00000000000E+00 0.  1.
          5    1    4    4  501    0 -0.65250963675E+02 -0.26224006332E+02 -0.62693262561E+02  0.94304317712E+02  0.41800000000E+01 0. -1.
         -5    1    4    4    0  501  0.52634384851E+02  0.11952339221E+02 -0.25195656840E+02  0.59712062476E+02  0.41800000000E+01 0. -1.
</event>
<event>
11    1  0.8299058E-009  0.1306200E+03  0.7561462E-02  0.1118510E+00
         22   -1    0    0    0    0  0.00000000000E+00  0.00000000000E+00  0.19369962230E+03  0.19369962230E+03  0.00000000000E+00 0. -1.
         22   -1    0    0    0    0 -0.00000000000E+00 -0.00000000000E+00 -0.74994582913E+03  0.74994582913E+03  0.00000000000E+00 0. -1.
        -24    2    1    2    0    0 -0.19323961837E+02  0.43224573190E+01 -0.48180916687E+03  0.48923770647E+03  0.82591531137E+02 0.  0.
         25    2    1    2    0    0  0.21375229005E+02  0.33362333595E+02 -0.23530014577E+03  0.26941374590E+03  0.12509061581E+03 0.  0.
         24    2    1    2    0    0 -0.20512671680E+01 -0.37684790914E+02  0.16086310581E+03  0.18499399905E+03  0.83195490946E+02 0.  0.
        -13    1    5    5    0    0  0.29372171940E+02  0.12679678536E+02  0.56282479497E+02  0.64739603263E+02  0.00000000000E+00 0.  1.
         14    1    5    5    0    0 -0.31423439108E+02 -0.50364469450E+02  0.10458062631E+03  0.12025439579E+03  0.00000000000E+00 0. -1.
         11    1    3    3    0    0  0.17207632635E+02 -0.29971947124E+02 -0.21593566472E+03  0.21868386208E+03  0.00000000000E+00 0. -1.
        -12    1    3    3    0    0 -0.36531594471E+02  0.34294404443E+02 -0.26587350215E+03  0.27055384439E+03  0.00000000000E+00 0.  1.
          5    1    4    4  501    0  0.28624978561E+02 -0.31980274116E+02 -0.17456377703E+03  0.17981132328E+03  0.41800000000E+01 0.  1.
         -5    1    4    4    0  501 -0.72497495563E+01  0.65342607711E+02 -0.60736368737E+02  0.89602422615E+02  0.41800000000E+01 0.  1.
</event>
<event>
11    1  0.8299058E-009  0.1539659E+03  0.7561462E-02  0.1092894E+00
         22   -1    0    0    0    0  0.00000000000E+00  0.00000000000E+00  0.95118158121E+03  0.95118158121E+03  0.00000000000E+00 0. -1.
         22   -1    0    0    0    0 -0.00000000000E+00 -0.00000000000E+00 -0.14997788645E+03  0.14997788645E+03  0.00000000000E+00 0. -1.
         24    2    1    2    0    0  0.12624753580E+02 -0.85684406058E+02 -0.92567330973E+02  0.14998474613E+03  0.80159288069E+02 0.  0.
         25    2    1    2    0    0 -0.22205845111E+02  0.12090774522E+03  0.27588559861E+03  0.32691417022E+03  0.12509288052E+03 0.  0.
        -24    2    1    2    0    0  0.95810915308E+01 -0.35223339167E+02  0.61788542713E+03  0.62426055132E+03  0.81156354886E+02 0.  0.
        -11    1    3    3    0    0  0.21359509260E+02 -0.57455742953E+02 -0.97683618113E+01  0.62071023244E+02  0.00000000000E+00 0.  1.
         12    1    3    3    0    0 -0.87347556799E+01 -0.28228663105E+02 -0.82798969162E+02  0.87913722886E+02  0.00000000000E+00 0. -1.
         11    1    5    5    0    0 -0.26542249766E+01 -0.57579530468E+02  0.51710764802E+03  0.52031026021E+03  0.00000000000E+00 0. -1.
        -12    1    5    5    0    0  0.12235316507E+02  0.22356191302E+02  0.10077777911E+03  0.10395029111E+03  0.00000000000E+00 0.  1.
          5    1    4    4  501    0 -0.95388618229E+01  0.20924197329E+02 -0.87322423613E+01  0.24950678857E+02  0.41800000000E+01 0. -1.
         -5    1    4    4    0  501 -0.12666983288E+02  0.99983547895E+02  0.28461784097E+03  0.30196349136E+03  0.41800000000E+01 0. -1.
</event>
<event>
11    1  0.8299058E-009  0.1890800E+03  0.7561462E-02  0.1062526E+00
         22   -1    0    0    0    0  0.00000000000E+00  0.00000000000E+00  0.67613229661E+03  0.67613229661E+03  0.00000000000E+00 0. -1.
         22   -1    0    0    0    0 -0.00000000000E+00 -0.00000000000E+00 -0.14083891263E+03  0.14083891263E+03  0.00000000000E+00 0. -1.
        -24    2    1    2    0    0  0.14713675221E+03 -0.32291036162E+02  0.25901671183E+02  0.17166952734E+03  0.78151104790E+02 0.  0.
         25    2    1    2    0    0 -0.92258665861E+02  0.11684185671E+03  0.10460488210E+03  0.22080096130E+03  0.12508877745E+03 0.  0.
         24    2    1    2    0    0 -0.54878086352E+02 -0.84550820548E+02  0.40478683070E+03  0.42450072060E+03  0.78664082465E+02 0.  0.
        -11    1    5    5    0    0 -0.16568271171E+02  0.80627273295E+01  0.14303698321E+03  0.14421890912E+03  0.00000000000E+00 0.  1.
         12    1    5    5    0    0 -0.38309815181E+02 -0.92613547877E+02  0.26174984749E+03  0.28028181149E+03  0.00000000000E+00 0. -1.
         13    1    3    3    0    0  0.75236032968E+02 -0.25433251451E+02 -0.25054409153E+02  0.83276853652E+02  0.00000000000E+00 0. -1.
        -14    1    3    3    0    0  0.71900719245E+02 -0.68577847111E+01  0.50956080336E+02  0.88392673692E+02  0.00000000000E+00 0.  1.
          5    1    4    4  501    0  0.26172050523E+02  0.50781993358E+02  0.18876210400E+02  0.60312277332E+02  0.41800000000E+01 0. -1.
         -5    1    4    4    0  501 -0.11843071638E+03  0.66059863352E+02  0.85728671702E+02  0.16048868397E+03  0.41800000000E+01 0. -1.
</event>
<event>
11    1  0.8299058E-009  0.1481370E+03  0.7561462E-02  0.1098798E+00
         22   -1    0    0    0    0  0.00000000000E+00  0.00000000000E+00  0.23986639377E+04  0.23986639377E+04  0.00000000000E+00 0.  1.
         22   -1    0    0    0    0 -0.00000000000E+00 -0.00000000000E+00 -0.75680429512E+03  0.75680429512E+03  0.00000000000E+00 0.  1.
         24    2    1    2    0    0  0.62421628408E+02 -0.53284631596E+02 -0.64722934674E+03  0.65773435715E+03  0.83504165388E+02 0.  0.
         25    2    1    2    0    0 -0.54664965520E+02  0.21064837795E+02 -0.57399284934E+02  0.14958066406E+03  0.12509081222E+03 0.  0.
        -24    2    1    2    0    0 -0.77566628876E+01  0.32219793801E+02  0.23464882743E+04  0.23481532116E+04  0.81963425138E+02 0.  0.
        -13    1    3    3    0    0 -0.20632871858E+02 -0.76763716800E+01 -0.10418438441E+03  0.10648487234E+03  0.00000000000E+00 0.  1.
         14    1    3    3    0    0  0.83054500266E+02 -0.45608259916E+02 -0.54304496234E+03  0.55124948481E+03  0.00000000000E+00 0. -1.
         13    1    5    5    0    0 -0.33427484928E+02  0.35013598252E+02  0.80833105162E+03  0.80977925252E+03  0.00000000000E+00 0. -1.
        -14    1    5    5    0    0  0.25670822040E+02 -0.27938044515E+01  0.15381572226E+04  0.15383739591E+04  0.00000000000E+00 0.  1.
          5    1    4    4  501    0  0.33738796589E+02 -0.62595287988E+00  0.10896412295E+02  0.35705775628E+02  0.41800000000E+01 0. -1.
         -5    1    4    4    0  501 -0.88403762109E+02  0.21690790675E+02 -0.68295697230E+02  0.11387488843E+03  0.41800000000E+01 0. -1.
</event>
<event>
11    1  0.8299058E-009  0.1403707E+03  0.7561462E-02  0.1107145E+00
         22   -1    0    0    0    0  0.00000000000E+00  0.00000000000E+00  0.48037144899E+03  0.48037144899E+03  0.00000000000E+00 0.  1.
         22   -1    0    0    0    0 -0.00000000000E+00 -0.00000000000E+00 -0.52823680806E+03  0.52823680806E+03  0.00000000000E+00 0.  1.
        -24    2    1    2    0    0 -0.57932847402E+02 -0.25236738661E+02 -0.39940483662E+03  0.41228118474E+03  0.80364444817E+02 0.  0.
         25    2    1    2    0    0  0.37011665681E+02  0.77340930420E+02 -0.67495369570E+02  0.16598791311E+03  0.12507949261E+03 0.  0.
         24    2    1    2    0    0  0.20921181722E+02 -0.52104191759E+02  0.41903484711E+03  0.43033915919E+03  0.80305953679E+02 0.  0.
        -13    1    5    5    0    0 -0.84397313640E+01  0.60338310196E+01  0.23302861470E+03  0.23325945094E+03  0.00000000000E+00 0.  1.
         14    1    5    5    0    0  0.29360913086E+02 -0.58138022779E+02  0.18600623241E+03  0.19707970826E+03  0.00000000000E+00 0. -1.
         13    1    3    3    0    0  0.50453690323E+01 -0.29752868943E+02 -0.61233073273E+02  0.68265498032E+02  0.00000000000E+00 0. -1.
        -14    1    3    3    0    0 -0.62978216435E+02  0.45161302821E+01 -0.33817176335E+03  0.34401568671E+03  0.00000000000E+00 0.  1.
          5    1    4    4  501    0  0.54066253464E+02  0.26644793063E+01 -0.70779348658E+02  0.89204527968E+02  0.41800000000E+01 0.  1.
         -5    1    4    4    0  501 -0.17054587784E+02  0.74676451114E+02  0.32839790883E+01  0.76783385143E+02  0.41800000000E+01 0.  1.
</event>
<event>
11    1  0.8299058E-009  0.1566522E+03  0.7561462E-02  0.1090269E+00
         22   -1    0    0    0    0  0.00000000000E+00  0.00000000000E+00  0.18417408313E+04  0.18417408313E+04  0.00000000000E+00 0.  1.
         22   -1    0    0    0    0 -0.00000000000E+00 -0.00000000000E+00 -0.21582716154E+03  0.21582716154E+03  0.00000000000E+00 0.  1.
        -24    2    1    2    0    0 -0.34560624987E+02  0.50760922734E+02 -0.14081850311E+03  0.17371456752E+03  0.81091257690E+02 0.  0.
         25    2    1    2    0    0 -0.19389534700E+02  0.29466443763E+02  0.18754583222E+02  0.13132016831E+03  0.12509607048E+03 0.  0.
         24    2    1    2    0    0  0.53950159687E+02 -0.80227366498E+02  0.17479775897E+04  0.17525332570E+04  0.81241079208E+02 0.  0.
        -13    1    5    5    0    0  0.11615932481E+02 -0.12838866278E+02  0.10321868608E+04  0.10323320600E+04  0.00000000000E+00 0.  1.
         14    1    5    5    0    0  0.42334227205E+02 -0.67388500220E+02  0.71579072885E+03  0.72020119707E+03  0.00000000000E+00 0. -1.
         11    1    3    3    0    0 -0.55841710467E+02  0.31372441912E+02 -0.12597777202E+03  0.14132560200E+03  0.00000000000E+00 0. -1.
        -12    1    3    3    0    0  0.21281085480E+02  0.19388480823E+02 -0.14840731097E+02  0.32388965518E+02  0.00000000000E+00 0.  1.
          5    1    4    4  501    0 -0.65576585924E+02 -0.13124707980E+02  0.95061458920E+01  0.67678547493E+02  0.41800000000E+01 0.  1.
         -5    1    4    4    0  501  0.46187051225E+02  0.42591151743E+02  0.92484373300E+01  0.63641620821E+02  0.41800000000E+01 0.  1.
</event>
<event>
11    1  0.8299058E-009  0.1944469E+03  0.7561462E-02  0.1058521E+00
         22   -1    0    0    0    0  0.00000000000E+00  0.00000000000E+00  0.25488592255E+04  0.25488592255E+04  0.00000000000E+00 0. -1.
         22   -1    0    0    0    0 -0.00000000000E+00 -0.00000000000E+00 -0.10829941116E+03  0.10829941116E+03  0.00000000000E+00 0.  1.
         24    2    1    2    0    0 -0.43315464785E+02  0.23549407795E+02 -0.61150649560E+02  0.11337300568E+03  0.81751039009E+02 0.  0.
         25    2    1    2    0    0  0.12302197132E+03  0.10117294590E+03  0.57322044026E+03  0.60794623942E+03  0.12508631613E+03 0.  0.
        -24    2    1    2    0    0 -0.79706506537E+02 -0.12472235370E+03  0.19284900237E+04  0.19358393916E+04  0.80570378540E+02 0.  0.
        -13    1    3    3    0    0 -0.27695570506E+01 -0.13134783821E+02 -0.56975738935E+02  0.58535696968E+02  0.00000000000E+00 0.  1.
         14    1    3    3    0    0 -0.40545907734E+02  0.36684191615E+02 -0.41749106245E+01  0.54837308716E+02  0.00000000000E+00 0. -1.
         13    1    5    5    0    0 -0.45196343124E+02 -0.12470680869E+03  0.16212959648E+04  0.16267129750E+04  0.00000000000E+00 0. -1.
        -14    1    5    5    0    0 -0.34510163413E+02 -0.15545012365E-01  0.30719405885E+03  0.30912641655E+03  0.00000000000E+00 0.  1.
          5    1    4    4  501    0  0.68864200621E+02  0.12473541802E+02  0.92304570144E+02  0.11591148969E+03  0.41800000000E+01 0.  1.
         -5    1    4    4    0  501  0.54157770700E+02  0.88699404101E+02  0.48091587012E+03  0.49203474973E+03  0.41800000000E+01 0.  1.
</event>
<event>
11    1  0.8299058E-009  0.1318099E+03  0.7561462E-02  0.1117065E+00
         22   -1    0    0    0    0  0.00000000000E+00  0.00000000000E+00  0.64333424315E+03  0.64333424315E+03  0.00000000000E+00 0. -1.
         22   -1    0    0    0    0 -0.00000000000E+00 -0.00000000000E+00 -0.85971277247E+03  0.85971277247E+03  0.00000000000E+00 0. -1.
         24    2    1    2    0    0  0.41725514136E+02  0.87553488646E+01 -0.81141568357E+03  0.81639803284E+03  0.79326299686E+02 0.  0.
         25    2    1    2    0    0 -0.57705589481E+01  0.17803504451E+02  0.53083078809E+02  0.13717191464E+03  0.12509219316E+03 0.  0.
        -24    2    1    2    0    0 -0.35954955188E+02 -0.26558853316E+02  0.54195407544E+03  0.54947706814E+03  0.78820663729E+02 0.  0.
        -11    1    3    3    0    0  0.16353094154E+02 -0.37474331589E+01 -0.29240920643E+02  0.33711991690E+02  0.00000000000E+00 0.  1.
         12    1    3    3    0    0  0.25372419982E+02  0.12502782023E+02 -0.78217476292E+03  0.78268604115E+03  0.00000000000E+00 0. -1.
         11    1    5    5    0    0 -0.11873872855E+02 -0.12379582400E+02  0.49151167303E+03  0.49181090639E+03  0.00000000000E+00 0. -1.
        -12    1    5    5    0    0 -0.24081082333E+02 -0.14179270916E+02  0.50442402409E+02  0.57666161748E+02  0.00000000000E+00 0.  1.
          5    1    4    4  501    0 -0.11600720169E+02 -0.27787265490E+02 -0.29631841773E+02  0.42452647488E+02  0.41800000000E+01 0. -1.
         -5    1    4    4    0  501  0.58301612210E+01  0.45590769942E+02  0.82714920582E+02  0.94719267156E+02  0.41800000000E+01 0. -1.
</event>
<event>
11    1  0.8299058E-009  0.1426694E+03  0.7561462E-02  0.1104614E+00
         22   -1    0    0    0    0  0.00000000000E+00  0.00000000000E+00  0.11290076745E+04  0.11290076745E+04  0.00000000000E+00 0. -1.
         22   -1    0    0    0    0 -0.00000000000E+00 -0.00000000000E+00 -0.18599717212E+03  0.18599717212E+03  0.00000000000E+00 0. -1.
         24    2    1    2    0    0 -0.41426933326E+02  0.52303356727E+02 -0.13207748944E+03  0.16852489209E+03  0.80649513996E+02 0.  0.
         25    2    1    2    0    0  0.77007725051E+02 -0.49366753145E+02  0.14477849706E+03  0.21207342499E+03  0.12508820225E+03 0.  0.
        -24    2    1    2    0    0 -0.35580791725E+02 -0.29366035816E+01  0.93030949480E+03  0.93440652959E+03  0.79782141139E+02 0.  0.
        -11    1    3    3    0    0 -0.23294757765E+02  0.43831978099E+02 -0.18148273757E+02  0.52851186209E+02  0.00000000000E+00 0.  1.
         12    1    3    3    0    0 -0.18132175562E+02  0.84713786282E+01 -0.11392921568E+03  0.11567370588E+03  0.00000000000E+00 0. -1.
         13    1    5    5    0    0 -0.23059400916E+02 -0.22718794592E+02  0.85337264683E+03  0.85398638980E+03  0.00000000000E+00 0. -1.
        -14    1    5    5    0    0 -0.12521390808E+02  0.19782191011E+02  0.76936847968E+02  0.80420139792E+02  0.00000000000E+00 0.  1.
          5    1    4    4  501    0  0.10314357635E+03 -0.63718590375E+02  0.95780540054E+02  0.15456403318E+03  0.41800000000E+01 0.  1.
         -5    1    4    4    0  501 -0.26135851298E+02  0.14351837230E+02  0.48997957003E+02  0.57509391801E+02  0.41800000000E+01 0.  1.
</event>
<event>
11    1  0.8299058E-009  0.1934680E+03  0.7561462E-02  0.1059241E+00
         22   -1    0    0    0    0  0.00000000000E+00  0.00000000000E+00  0.12392606323E+04  0.12392606323E+04  0.00000000000E+00 0. -1.
         22   -1    0    0    0    0 -0.00000000000E+00 -0.00000000000E+00 -0.57078656461E+03  0.57078656461E+03  0.00000000000E+00 0. -1.
         24    2    1    2    0    0 -0.15012260152E+03  0.25067259798E+02 -0.44217741386E+03  0.47482368673E+03  0.82289155710E+02 0.  0.
         25    2    1    2    0    0  0.11579908533E+03 -0.65193320971E+02 -0.34416007148E+02  0.18572246212E+03  0.12509506036E+03 0.  0.
        -24    2    1    2    0    0  0.34323516192E+02  0.40126061173E+02  0.11450674887E+04  0.11495010481E+04  0.85935448196E+02 0.  0.
        -11    1    3    3    0    0 -0.61707691932E+02 -0.30227124126E+02 -0.17976552791E+03  0.19245041778E+03  0.00000000000E+00 0.  1.
         12    1    3    3    0    0 -0.88414909585E+02  0.55294383925E+02 -0.26241188595E+03  0.28237326895E+03  0.00000000000E+00 0. -1.
         13    1    5    5    0    0  0.80738941230E+01  0.63512461486E+02  0.83381509983E+03  0.83626947884E+03  0.00000000000E+00 0. -1.
        -14    1    5    5    0    0  0.26249622069E+02 -0.23386400313E+02  0.31125238891E+03  0.31323156926E+03  0.00000000000E+00 0.  1.
          5    1    4    4  501    0  0.13870782220E+03 -0.61309421490E+02 -0.10433143204E+02  0.15206915525E+03  0.41800000000E+01 0.  1.
         -5    1    4    4    0  501 -0.22908736870E+02 -0.38838994809E+01 -0.23982863944E+02  0.33653306867E+02  0.41800000000E+01 0.  1.
</event>
<event>
11    1  0.8299058E-009  0.2021519E+03  0.7561462E-02  0.1053012E+00
         22   -1    0    0    0    0  0.00000000000E+00  0.00000000000E+00  0.86257298480E+03  0.86257298480E+03  0.00000000000E+00 0. -1.
         22   -1    0    0    0    0 -0.00000000000E+00 -0.00000000000E+00 -0.23051796547E+04  0.23051796547E+04  0.00000000000E+00 0.  1.
         24    2    1    2    0    0  0.15943532454E+03  0.82775833911E+01 -0.22259985775E+04  0.22333184785E+04  0.84579064906E+02 0.  0.
         25    2    1    2    0    0 -0.12871341967E+03 -0.46189097996E+02  0.47892450812E+02  0.19141982898E+03  0.12508911586E+03 0.  0.
        -24    2    1    2    0    0 -0.30721904871E+02  0.37911514605E+02  0.73549945678E+03  0.74301433203E+03  0.93433015055E+02 0.  0.
        -11    1    3    3    0    0  0.10936243703E+03  0.30657696287E+02 -0.18324397349E+04  0.18359562682E+04  0.00000000000E+00 0.  1.
         12    1    3    3    0    0  0.50072887509E+02 -0.22380112896E+02 -0.39355884267E+03  0.39736221028E+03  0.00000000000E+00 0. -1.
         13    1    5    5    0    0 -0.40800926277E+02  0.15000827126E+02  0.68757053710E+03  0.68894338220E+03  0.00000000000E+00 0. -1.
        -14    1    5    5    0    0  0.10079021406E+02  0.22910687478E+02  0.47928919683E+02  0.54070949827E+02  0.00000000000E+00 0.  1.
          5    1    4    4  501    0  0.17604001184E+02 -0.33915820579E+02  0.97171712385E+01  0.39649458509E+02  0.41800000000E+01 0.  1.
         -5    1    4    4    0  501 -0.14631742085E+03 -0.12273277417E+02  0.38175279573E+02  0.15177037048E+03  0.41800000000E+01 0.  1.
</event>
<event>
11    1  0.8299058E-009  0.1950527E+03  0.7561462E-02  0.1058078E+00
         22   -1    0    0    0    0  0.00000000000E+00  0.00000000000E+00  0.49161977938E+03  0.49161977938E+03  0.00000000000E+00 0.  1.
         22   -1    0    0    0    0 -0.00000000000E+00 -0.00000000000E+00 -0.18276969377E+03  0.18276969377E+03  0.00000000000E+00 0. -1.
        -24    2    1    2    0    0 -0.23495299218E+02  0.31316512696E+02 -0.23856639170E+02  0.93268279429E+02  0.81222408623E+02 0.  0.
         25    2    1    2    0    0 -0.59008442113E+02  0.10103133474E+03 -0.33723750022E+02  0.17456908383E+03  0.12509095441E+03 0.  0.
         24    2    1    2    0    0  0.82503741331E+02 -0.13234784744E+03  0.36643047480E+03  0.40655210988E+03  0.81795508015E+02 0.  0.
        -13    1    5    5    0    0  0.86413291988E+02 -0.13881255436E+03  0.36324992676E+03  0.39835498186E+03  0.00000000000E+00 0.  1.
         14    1    5    5    0    0 -0.39095506569E+01  0.64647069257E+01  0.31805480409E+01  0.81971280223E+01  0.00000000000E+00 0. -1.
         13    1    3    3    0    0 -0.11015471882E+02 -0.27634045423E+02 -0.10511605552E+02  0.31551147974E+02  0.00000000000E+00 0. -1.
        -14    1    3    3    0    0 -0.12479827337E+02  0.58950558118E+02 -0.13345033617E+02  0.61717131455E+02  0.00000000000E+00 0.  1.
          5    1    4    4  501    0  0.33536461783E+02  0.62048764625E+02 -0.17114913346E+02  0.72698941665E+02  0.41800000000E+01 0.  1.
         -5    1    4    4    0  501 -0.92544903896E+02  0.38982570115E+02 -0.16608836675E+02  0.10187014217E+03  0.41800000000E+01 0.  1.
</event>
<event>
11    1  0.8299058E-009  0.1253597E+03  0.7561462E-02  0.1125106E+00
         22   -1    0    0    0    0  0.00000000000E+00  0.00000000000E+00  0.95625712152E+03  0.95625712152E+03  0.00000000000E+00 0.  1.
         22   -1    0    0    0    0 -0.00000000000E+00 -0.00000000000E+00 -0.32650467737E+03  0.32650467737E+03  0.00000000000E+00 0.  1.
        -24    2    1    2    0    0 -0.32815951349E+01  0.20017761801E+02 -0.28821554059E+03  0.30006668506E+03  0.80995913412E+02 0.  0.
         25    2    1    2    0    0  0.65737948938E+01 -0.26117804667E+02  0.10522257904E+03  0.16566458588E+03  0.12509040482E+03 0.  0.
         24    2    1    2    0    0 -0.32921997589E+01  0.61000428658E+01  0.81274540570E+03  0.81703052794E+03  0.83281090333E+02 0.  0.
        -11    1    5    5    0    0 -0.35719504784E+02  0.25276027775E+02  0.52677951014E+03  0.52859380710E+03  0.00000000000E+00 0.  1.
         12    1    5    5    0    0  0.32427305026E+02 -0.19175984909E+02  0.28596589556E+03  0.28843672085E+03  0.00000000000E+00 0. -1.
         13    1    3    3    0    0  0.27650811093E+02  0.23710614337E+02 -0.63525440072E+02  0.73227331801E+02  0.00000000000E+00 0. -1.
        -14    1    3    3    0    0 -0.30932406228E+02 -0.36928525358E+01 -0.22469010052E+03  0.22683935326E+03  0.00000000000E+00 0.  1.
          5    1    4    4  501    0  0.21511557580E+02 -0.33829892536E+02 -0.15884878391E+02  0.43324479224E+02  0.41800000000E+01 0. -1.
         -5    1    4    4    0  501 -0.14937762686E+02  0.77120878690E+01  0.12110745743E+03  0.12234010666E+03  0.41800000000E+01 0. -1.
</event>
<event>
11    1  0.8299058E-009  0.1290440E+03  0.7561462E-02  0.1120449E+00
         22   -1    0    0    0    0  0.00000000000E+00  0.00000000000E+00  0.14155412089E+03  0.14155412089E+03  0.00000000000E+00 0.  1.
         22   -1    0    0    0    0 -0.00000000000E+00 -0.00000000000E+00 -0.58896121881E+03  0.58896121881E+03  0.00000000000E+00 0.  1.
         24    2    1    2    0    0  0.30223564213E+02  0.12992193370E+02 -0.49763849401E+03  0.50496226064E+03  0.79123656527E+02 0.  0.
         25    2    1    2    0    0 -0.65752641094E+01 -0.13274368750E+02 -0.36745388369E+01  0.12602215626E+03  0.12509451894E+03 0.  0.
        -24    2    1    2    0    0 -0.23648300103E+02  0.28217538062E+00  0.53905934938E+02  0.99530922806E+02  0.80257292830E+02 0.  0.
        -13    1    3    3    0    0 -0.80477595318E+01  0.37785893873E+02 -0.27512616576E+03  0.27782538994E+03  0.00000000000E+00 0.  1.
         14    1    3    3    0    0  0.38271323744E+02 -0.24793700504E+02 -0.22251232825E+03  0.22713687069E+03  0.00000000000E+00 0. -1.
         11    1    5    5    0    0 -0.20766462281E+02 -0.72640180679E+01 -0.17225970200E+02  0.27941831785E+02  0.00000000000E+00 0. -1.
        -12    1    5    5    0    0 -0.28818378223E+01  0.75461934485E+01  0.71131905137E+02  0.71589091021E+02  0.00000000000E+00 0.  1.
          5    1    4    4  501    0 -0.17904364881E+02 -0.38425303106E+02  0.49905611775E+02  0.65613357537E+02  0.41800000000E+01 0.  1.
         -5    1    4    4    0  501  0.11329100771E+02  0.25150934356E+02 -0.53580150612E+02  0.60408798721E+02  0.41800000000E+01 0.  1.
</event>
<event>
11    1  0.8299058E-009  0.3016521E+03  0.7561462E-02  0.9994944E-01
         22   -1    0    0    0    0  0.00000000000E+00  0.00000000000E+00  0.30872064796E+04  0.30872064796E+04  0.00000000000E+00 0. -1.
         22   -1    0    0    0    0 -0.00000000000E+00 -0.00000000000E+00 -0.21817021718E+04  0.21817021718E+04  0.00000000000E+00 0. -1.
         24    2    1    2    0    0  0.71560041383E+02 -0.13133507491E+02 -0.21519119113E+04  0.21545979102E+04  0.79208284580E+02 0.  0.
         25    2    1    2    0    0 -0.18107770560E+03  0.24110197952E+03  0.17560398900E+04  0.17861250961E+04  0.12508982231E+03 0.  0.
        -24    2    1    2    0    0  0.10951766421E+03 -0.22796847203E+03  0.13013763290E+04  0.13281856451E+04  0.80827069064E+02 0.  0.
        -11    1    3    3    0    0  0.18254237701E+02  0.23996311310E+02 -0.29212868521E+03  0.29368045368E+03  0.00000000000E+00 0.  1.
         12    1    3    3    0    0  0.53305803681E+02 -0.37129818802E+02 -0.18597832260E+04  0.18609174565E+04  0.00000000000E+00 0. -1.
         11    1    5    5    0    0  0.88651419090E+02 -0.20585608989E+03  0.12350532527E+04  0.12552260118E+04  0.00000000000E+00 0. -1.
        -12    1    5    5    0    0  0.20866245123E+02 -0.22112382141E+02  0.66323076349E+02  0.72959633263E+02  0.00000000000E+00 0.  1.
          5    1    4    4  501    0 -0.81154651336E+02  0.13187594374E+03  0.12272888626E+04  0.12370257745E+04  0.41800000000E+01 0.  1.
         -5    1    4    4    0  501 -0.99923054260E+02  0.10922603578E+03  0.52875102737E+03  0.54909932162E+03  0.41800000000E+01 0.  1.
</event>
<event>
11    1  0.8299058E-009  0.1560918E+03  0.7561462E-02  0.1090812E+00
         22   -1    0    0    0    0  0.00000000000E+00  0.00000000000E+00  0.41790532424E+03  0.41790532424E+03  0.00000000000E+00 0.  1.
         22   -1    0    0    0    0 -0.00000000000E+00 -0.00000000000E+00 -0.37098133429E+03  0.37098133429E+03  0.00000000000E+00 0. -1.
        -24    2    1    2    0    0  0.41295084245E+02  0.16356741512E+02 -0.30858817107E+03  0.32214120783E+03  0.81089280920E+02 0.  0.
         25    2    1    2    0    0 -0.76128292417E+02  0.69332236208E+02  0.12058234827E+03  0.20196390598E+03  0.12508733238E+03 0.  0.
         24    2    1    2    0    0  0.34833208172E+02 -0.85688977720E+02  0.23492981276E+03  0.26478154471E+03  0.79757734450E+02 0.  0.
        -13    1    5    5    0    0  0.52600675278E+02 -0.33238049027E+02  0.88115427440E+02  0.10786995641E+03  0.00000000000E+00 0.  1.
         14    1    5    5    0    0 -0.17767467106E+02 -0.52450928693E+02  0.14681438532E+03  0.15691158830E+03  0.00000000000E+00 0. -1.
         13    1    3    3    0    0  0.33748309843E+02  0.41463631312E+02 -0.27155497786E+03  0.27676756880E+03  0.00000000000E+00 0. -1.
        -14    1    3    3    0    0  0.75467744027E+01 -0.25106889800E+02 -0.37033193215E+02  0.45373639032E+02  0.00000000000E+00 0.  1.
          5    1    4    4  501    0 -0.48601115555E+02  0.78708480921E+02  0.16809305045E+02  0.94112265610E+02  0.41800000000E+01 0. -1.
         -5    1    4    4    0  501 -0.27527176862E+02 -0.93762447134E+01  0.10377304323E+03  0.10785164037E+03  0.41800000000E+01 0. -1.
</event>
<event>
11    1  0.9969430E-009  0.2187766E+03  0.7561462E-02  0.1041987E+00
         22   -1    0    0    0    0  0.00000000000E+00  0.00000000000E+00  0.26789655574E+03  0.26789655574E+03  0.00000000000E+00 0.  1.
         22   -1    0    0    0    0 -0.00000000000E+00 -0.00000000000E+00 -0.33771752099E+04  0.33771752099E+04  0.00000000000E+00 0.  1.
         24    2    1    2    0    0  0.63006874669E+01  0.60077250278E+02 -0.23056389850E+04  0.23077631620E+04  0.78426452358E+02 0.  0.
         25    2    1    2    0    0 -0.19782898574E+02 -0.23691582537E+03 -0.10151349256E+04  0.10500794042E+04  0.12508943417E+03 0.  0.
        -24    2    1    2    0    0  0.13482211107E+02  0.17683857509E+03  0.21149525643E+03  0.28722919939E+03  0.79477782008E+02 0.  0.
        -11    1    3    3    0    0 -0.12651972582E+02  0.43530604698E+02 -0.21132379817E+04  0.21137241432E+04  0.00000000000E+00 0.  1.
         12    1    3    3    0    0  0.18952660049E+02  0.16546645580E+02 -0.19240100323E+03  0.19403901888E+03  0.00000000000E+00 0. -1.
         13    1    5    5    0    0 -0.28436915754E+02  0.29100694802E+02  0.40831962638E+02  0.57643367254E+02  0.00000000000E+00 0. -1.
        -14    1    5    5    0    0  0.41919126861E+02  0.14773788029E+03  0.17066329379E+03  0.22958583214E+03  0.00000000000E+00 0.  1.
          5    1    4    4  501    0 -0.23409470960E+02 -0.23979096079E+03 -0.10156291302E+04  0.10438236014E+04  0.41800000000E+01 0. -1.
         -5    1    4    4    0  501  0.36265723863E+01  0.28751354208E+01  0.49420460846E+00  0.62558028387E+01  0.41800000000E+01 0. -1.
</event>
<event>
11    1  0.8299058E-009  0.1822321E+03  0.7561462E-02  0.1067851E+00
         22   -1    0    0    0    0  0.00000000000E+00  0.00000000000E+00  0.20495544662E+04  0.20495544662E+04  0.00000000000E+00 0. -1.
         22   -1    0    0    0    0 -0.00000000000E+00 -0.00000000000E+00 -0.22296903579E+03  0.22296903579E+03  0.00000000000E+00 0.  1.
        -24    2    1    2    0    0 -0.12267718629E+03  0.19896981838E+02 -0.75983759253E+02  0.16574915681E+03  0.79080145368E+02 0.  0.
         25    2    1    2    0    0  0.14107311521E+03 -0.59161505142E+02 -0.42979379344E+01  0.19765557676E+03  0.12509015640E+03 0.  0.
         24    2    1    2    0    0 -0.18395928925E+02  0.39264523304E+02  0.19068671276E+04  0.19091187684E+04  0.81927508347E+02 0.  0.
        -13    1    5    5    0    0  0.10222360185E+02  0.27578730643E+02  0.21873146968E+03  0.22070011070E+03  0.00000000000E+00 0.  1.
         14    1    5    5    0    0 -0.28618289110E+02  0.11685792661E+02  0.16881356579E+04  0.16884186577E+04  0.00000000000E+00 0. -1.
         11    1    3    3    0    0 -0.35566519102E+02 -0.22674880148E+02  0.61691246956E+00  0.42184215671E+02  0.00000000000E+00 0. -1.
        -12    1    3    3    0    0 -0.87110667186E+02  0.42571861986E+02 -0.76600671722E+02  0.12356494114E+03  0.00000000000E+00 0.  1.
          5    1    4    4  501    0  0.15506553984E+03 -0.22287527738E+02 -0.12297007839E+02  0.15719651504E+03  0.41800000000E+01 0. -1.
         -5    1    4    4    0  501 -0.13992424625E+02 -0.36873977404E+02  0.79990699048E+01  0.40459061727E+02  0.41800000000E+01 0. -1.
</event>
<event>
11    1  0.8299058E-009  0.2556006E+03  0.7561462E-02  0.1020957E+00
         22   -1    0    0    0    0  0.00000000000E+00  0.00000000000E+00  0.94642910084E+03  0.94642910084E+03  0.00000000000E+00 0. -1.
         22   -1    0    0    0    0 -0.00000000000E+00 -0.00000000000E+00 -0.42857483825E+03  0.42857483825E+03  0.00000000000E+00 0.  1.
         24    2    1    2    0    0 -0.26225051300E+02  0.21861117917E+03 -0.31542849498E+03  0.39301771853E+03  0.80555512908E+02 0.  0.
         25    2    1    2    0    0  0.52015734456E+02 -0.23648449525E+03  0.18904510387E+03  0.33168708320E+03  0.12509083395E+03 0.  0.
        -24    2    1    2    0    0 -0.25790683156E+02  0.17873316077E+02  0.64423765370E+03  0.65029913736E+03  0.82838389932E+02 0.  0.
        -13    1    3    3    0    0 -0.31618675178E+02  0.19854312533E+03 -0.31312431472E+03  0.37211013115E+03  0.00000000000E+00 0.  1.
         14    1    3    3    0    0  0.53936238776E+01  0.20068053841E+02 -0.23041802624E+01  0.20907587383E+02  0.00000000000E+00 0. -1.
         13    1    5    5    0    0 -0.20538613120E+02  0.35996158521E+02  0.14772988558E+03  0.15343297282E+03  0.00000000000E+00 0. -1.
        -14    1    5    5    0    0 -0.52520700359E+01 -0.18122842444E+02  0.49650776812E+03  0.49686616454E+03  0.00000000000E+00 0.  1.
          5    1    4    4  501    0  0.32257855586E+02  0.15058897964E+01  0.13406894321E+02  0.35214402826E+02  0.41800000000E+01 0.  1.
         -5    1    4    4    0  501  0.19757878870E+02 -0.23799038505E+03  0.17563820955E+03  0.29647268037E+03  0.41800000000E+01 0.  1.
</event>
<event>
11    1  0.8299058E-009  0.1362450E+03  0.7561462E-02  0.1111825E+00
         22   -1    0    0    0    0  0.00000000000E+00  0.00000000000E+00  0.14506017258E+04  0.14506017258E+04  0.00000000000E+00 0.  1.
         22   -1    0    0    0    0 -0.00000000000E+00 -0.00000000000E+00 -0.16128649200E+03  0.16128649200E+03  0.00000000000E+00 0. -1.
         24    2    1    2    0    0 -0.40496386557E+02 -0.37824170103E+02 -0.13383461224E+03  0.17003480756E+03  0.89047780321E+02 0.  0.
         25    2    1    2    0    0 -0.84940877794E+00  0.92771125013E+00  0.68132609114E+03  0.69271529051E+03  0.12509056360E+03 0.  0.
        -24    2    1    2    0    0  0.41345795335E+02  0.36896458853E+02  0.74182375494E+03  0.74913811976E+03  0.88513364025E+02 0.  0.
        -13    1    3    3    0    0  0.20918602432E+02 -0.10550569806E+02 -0.38986609526E+01  0.23750831736E+02  0.00000000000E+00 0.  1.
         14    1    3    3    0    0 -0.61414988989E+02 -0.27273600298E+02 -0.12993595129E+03  0.14628397583E+03  0.00000000000E+00 0. -1.
         13    1    5    5    0    0 -0.51241464534E+01  0.47297803762E+02  0.21676253622E+03  0.22192191471E+03  0.00000000000E+00 0. -1.
        -14    1    5    5    0    0  0.46469941789E+02 -0.10401344908E+02  0.52506121872E+03  0.52721620505E+03  0.00000000000E+00 0.  1.
          5    1    4    4  501    0  0.24487558853E+02  0.25782310113E+02  0.56634563180E+02  0.67002344734E+02  0.41800000000E+01 0.  1.
         -5    1    4    4    0  501 -0.25336967631E+02 -0.24854598862E+02  0.62469152796E+03  0.62571294578E+03  0.41800000000E+01 0.  1.
</event>
<event>
11    1  0.8299058E-009  0.1644155E+03  0.7561462E-02  0.1082996E+00
         22   -1    0    0    0    0  0.00000000000E+00  0.00000000000E+00  0.32270031517E+03  0.32270031517E+03  0.00000000000E+00 0.  1.
         22   -1    0    0    0    0 -0.00000000000E+00 -0.00000000000E+00 -0.12287212948E+04  0.12287212948E+04  0.00000000000E+00 0.  1.
        -24    2    1    2    0    0  0.28767182327E+02  0.10630923320E+03 -0.10846106496E+04  0.10931679432E+04  0.80664036762E+02 0.  0.
         25    2    1    2    0    0 -0.49447720967E+02 -0.62148339297E+02 -0.90299065414E+02  0.17351813959E+03  0.12508849013E+03 0.  0.
         24    2    1    2    0    0  0.20680538640E+02 -0.44160893901E+02  0.26888873539E+03  0.28473552725E+03  0.79970614786E+02 0.  0.
        -11    1    5    5    0    0  0.39119300415E+02 -0.34563659228E+02  0.25363823331E+03  0.25895428091E+03  0.00000000000E+00 0.  1.
         12    1    5    5    0    0 -0.18438761774E+02 -0.95972346732E+01  0.15250502079E+02  0.25781246339E+02  0.00000000000E+00 0. -1.
         13    1    3    3    0    0 -0.20634716200E+02  0.46119907260E+01 -0.25733024401E+03  0.25819743696E+03  0.00000000000E+00 0. -1.
        -14    1    3    3    0    0  0.49401898527E+02  0.10169724247E+03 -0.82728040562E+03  0.83497050620E+03  0.00000000000E+00 0.  1.
          5    1    4    4  501    0 -0.77388837552E+02 -0.26280365088E+02 -0.97502990581E+02  0.12729491482E+03  0.41800000000E+01 0.  1.
         -5    1    4    4    0  501  0.27941116585E+02 -0.35867974210E+02  0.72039251668E+01  0.46223224765E+02  0.41800000000E+01 0.  1.
</event>
<event>
11    1  0.8299058E-009  0.3489297E+03  0.7561462E-02  0.9813760E-01
         22   -1    0    0    0    0  0.00000000000E+00  0.00000000000E+00  0.70704039604E+03  0.70704039604E+03  0.00000000000E+00 0.  1.
         22   -1    0    0    0    0 -0.00000000000E+00 -0.00000000000E+00 -0.67500924780E+03  0.67500924780E+03  0.00000000000E+00 0.  1.
        -24    2    1    2    0    0  0.29954159892E+03 -0.85379762387E+02 -0.39732384814E+03  0.51152657840E+03  0.82330594547E+02 0.  0.
         25    2    1    2    0    0 -0.34884324430E+03  0.12580215717E+03 -0.37109374819E+02  0.39311857691E+03  0.12508924002E+03 0.  0.
         24    2    1    2    0    0  0.49301645385E+02 -0.40422394781E+02  0.46646437120E+03  0.47740448853E+03  0.79129095994E+02 0.  0.
        -13    1    5    5    0    0  0.22280852208E+02 -0.31310775972E+02  0.42694646656E+03  0.42867246981E+03  0.00000000000E+00 0.  1.
         14    1    5    5    0    0  0.27020793177E+02 -0.91116188089E+01  0.39517904641E+02  0.48732018719E+02  0.00000000000E+00 0. -1.
         13    1    3    3    0    0  0.65762730932E+02 -0.10908706699E+02 -0.38936921957E+02  0.77199874047E+02  0.00000000000E+00 0. -1.
        -14    1    3    3    0    0  0.23377886799E+03 -0.74471055687E+02 -0.35838692619E+03  0.43432670435E+03  0.00000000000E+00 0.  1.
          5    1    4    4  501    0 -0.35806835142E+03  0.12842370855E+03 -0.32910679037E+02  0.38184575210E+03  0.41800000000E+01 0. -1.
         -5    1    4    4    0  501  0.92251071123E+01 -0.26215513845E+01 -0.41986957824E+01  0.11272824809E+02  0.41800000000E+01 0. -1.
</event>
<event>
11    1  0.8299058E-009  0.1316018E+03  0.7561462E-02  0.1117316E+00
         22   -1    0    0    0    0  0.00000000000E+00  0.00000000000E+00  0.15830890787E+03  0.15830890787E+03  0.00000000000E+00 0. -1.
         22   -1    0    0    0    0 -0.00000000000E+00 -0.00000000000E+00 -0.12467433992E+04  0.12467433992E+04  0.00000000000E+00 0.  1.
        -24    2    1    2    0    0 -0.27996663236E+02  0.26734184694E+02 -0.10519314250E+04  0.10584230013E+04  0.11045812345E+03 0.  0.
         25    2    1    2    0    0  0.51071755118E+02 -0.31268013830E+02 -0.15139593570E+03  0.20531920624E+03  0.12509689942E+03 0.  0.
         24    2    1    2    0    0 -0.23075091882E+02  0.45338291363E+01  0.11489286938E+03  0.14131009950E+03  0.78836269034E+02 0.  0.
        -11    1    5    5    0    0 -0.27730079842E+02  0.37997586299E+02  0.53536877894E+02  0.71266901064E+02  0.00000000000E+00 0.  1.
         12    1    5    5    0    0  0.46549879596E+01 -0.33463757163E+02  0.61355991484E+02  0.70043198438E+02  0.00000000000E+00 0. -1.
         11    1    3    3    0    0  0.24612589576E+02  0.20302181856E+01 -0.61295714626E+02  0.66083780030E+02  0.00000000000E+00 0. -1.
        -12    1    3    3    0    0 -0.52609252811E+02  0.24703966508E+02 -0.99063571038E+03  0.99233922130E+03  0.00000000000E+00 0.  1.
          5    1    4    4  501    0  0.30972047586E+02 -0.25044553528E+02 -0.17138211348E+03  0.17599942788E+03  0.41800000000E+01 0.  1.
         -5    1    4    4    0  501  0.20099707532E+02 -0.62234603019E+01  0.19986177776E+02  0.29319778361E+02  0.41800000000E+01 0.  1.
</event>
<event>
11    1  0.8299058E-009  0.2950706E+03  0.7561462E-02  0.1002299E+00
         22   -1    0    0    0    0  0.00000000000E+00  0.00000000000E+00  0.14716969323E+04  0.14716969323E+04  0.00000000000E+00 0. -1.
         22   -1    0    0    0    0 -0.00000000000E+00 -0.00000000000E+00 -0.25572139635E+04  0.25572139635E+04  0.00000000000E+00 0. -1.
         24    2    1    2    0    0  0.24361046707E+03  0.15938023103E+02 -0.16423502431E+04  0.16626380227E+04  0.86317977517E+02 0.  0.
         25    2    1    2    0    0 -0.35627419147E+03 -0.11909282331E+03 -0.85588613278E+03  0.94302851784E+03  0.12508922058E+03 0.  0.
        -24    2    1    2    0    0  0.11266372440E+03  0.10315480021E+03  0.14127193447E+04  0.14232443553E+04  0.80712578697E+02 0.  0.
        -13    1    3    3    0    0  0.13984113087E+03 -0.32424659280E+02 -0.84402709196E+03  0.85614755293E+03  0.00000000000E+00 0.  1.
         14    1    3    3    0    0  0.10376933620E+03  0.48362682383E+02 -0.79832315112E+03  0.80649046975E+03  0.00000000000E+00 0. -1.
         13    1    5    5    0    0  0.13232790909E+02  0.64664792520E+02  0.51243177901E+03  0.51666524006E+03  0.00000000000E+00 0. -1.
        -14    1    5    5    0    0  0.99430933488E+02  0.38490007689E+02  0.90028756567E+03  0.90657911521E+03  0.00000000000E+00 0.  1.
          5    1    4    4  501    0 -0.12520741359E+02 -0.23759424005E+02 -0.14636136609E+03  0.14886369967E+03  0.41800000000E+01 0. -1.
         -5    1    4    4    0  501 -0.34375345011E+03 -0.95333399307E+02 -0.70952476669E+03  0.79416481818E+03  0.41800000000E+01 0. -1.
</event>
<event>
11    1  0.1001964E-008  0.1782113E+03  0.7561462E-02  0.1071099E+00
         22   -1    0    0    0    0  0.00000000000E+00  0.00000000000E+00  0.12424491058E+04  0.12424491058E+04  0.00000000000E+00 0. -1.
         22   -1    0    0    0    0 -0.00000000000E+00 -0.00000000000E+00 -0.12766570730E+04  0.12766570730E+04  0.00000000000E+00 0.  1.
        -24    2    1    2    0    0  0.14341598288E+02  0.58843610360E+01 -0.49819882593E+03  0.50248806497E+03  0.63654364592E+02 0.  0.
         25    2    1    2    0    0 -0.63359576698E+02 -0.12290463221E+03 -0.76070072952E+03  0.78321946614E+03  0.12508855934E+03 0.  0.
         24    2    1    2    0    0  0.49017978411E+02  0.11702027118E+03  0.12246915883E+04  0.12333986477E+04  0.72843886658E+02 0.  0.
        -13    1    5    5    0    0 -0.46851234453E+01  0.78247823175E+02  0.75527086156E+03  0.75932782547E+03  0.00000000000E+00 0.  1.
         14    1    5    5    0    0  0.53703101856E+02  0.38772448002E+02  0.46942072670E+03  0.47407082227E+03  0.00000000000E+00 0. -1.
         13    1    3    3    0    0  0.12510441075E+02 -0.28448424433E+02 -0.22622380971E+03  0.22834849697E+03  0.00000000000E+00 0. -1.
        -14    1    3    3    0    0  0.18311572128E+01  0.34332785469E+02 -0.27197501622E+03  0.27413956800E+03  0.00000000000E+00 0.  1.
          5    1    4    4  501    0 -0.50125136926E+02 -0.57832701455E+02 -0.64667327183E+03  0.65119961887E+03  0.41800000000E+01 0.  1.
         -5    1    4    4    0  501 -0.13234439772E+02 -0.65071930758E+02 -0.11402745768E+03  0.13201984727E+03  0.41800000000E+01 0.  1.
</event>
<event>
11    1  0.8299058E-009  0.1478147E+03  0.7561462E-02  0.1099133E+00
         22   -1    0    0    0    0  0.00000000000E+00  0.00000000000E+00  0.19890950186E+03  0.19890950186E+03  0.00000000000E+00 0. -1.
         22   -1    0    0    0    0 -0.00000000000E+00 -0.00000000000E+00 -0.11128372651E+04  0.11128372651E+04  0.00000000000E+00 0. -1.
        -24    2    1    2    0    0  0.39540617673E+01 -0.17293184094E+02 -0.78015255949E+03  0.78448875684E+03  0.80435717873E+02 0.  0.
         25    2    1    2    0    0  0.66093252322E+02  0.52742839124E+02 -0.29292178364E+03  0.32954343629E+03  0.12508229289E+03 0.  0.
         24    2    1    2    0    0 -0.70047314089E+02 -0.35449655030E+02  0.15914657989E+03  0.19771457383E+03  0.87178635915E+02 0.  0.
        -11    1    5    5    0    0 -0.33559712927E+02 -0.62140639066E+02  0.81281964292E+02  0.10767762569E+03  0.00000000000E+00 0.  1.
         12    1    5    5    0    0 -0.36487601162E+02  0.26690984036E+02  0.77864615598E+02  0.90036948136E+02  0.00000000000E+00 0. -1.
         11    1    3    3    0    0  0.30979092057E+02  0.61695084287E+01 -0.59914063463E+03  0.59997272191E+03  0.00000000000E+00 0. -1.
        -12    1    3    3    0    0 -0.27025030290E+02 -0.23462692522E+02 -0.18101192486E+03  0.18451603492E+03  0.00000000000E+00 0.  1.
          5    1    4    4  501    0  0.62394922571E+02  0.83584761333E+02 -0.27331907391E+03  0.29257533603E+03  0.41800000000E+01 0.  1.
         -5    1    4    4    0  501  0.36983297510E+01 -0.30841922210E+02 -0.19602709729E+02  0.36968100266E+02  0.41800000000E+01 0.  1.
</event>
<event>
11    1  0.8299058E-009  0.1560385E+03  0.7561462E-02  0.1090863E+00
         22   -1    0    0    0    0  0.00000000000E+00  0.00000000000E+00  0.18299947572E+04  0.18299947572E+04  0.00000000000E+00 0.  1.
         22   -1    0    0    0    0 -0.00000000000E+00 -0.00000000000E+00 -0.91795718765E+02  0.91795718765E+02  0.00000000000E+00 0.  1.
        -24    2    1    2    0    0 -0.94677708410E+02 -0.89935845886E+01 -0.34475624946E+02  0.12822732918E+03  0.78796739780E+02 0.  0.
         25    2    1    2    0    0  0.65737670265E+02  0.37600169592E+02  0.60167677582E+03  0.61919230794E+03  0.12509579373E+03 0.  0.
         24    2    1    2    0    0  0.28940038146E+02 -0.28606585004E+02  0.11709978876E+04  0.11743708388E+04  0.79088254084E+02 0.  0.
        -13    1    5    5    0    0  0.46757327092E+02 -0.32695974496E+02  0.10826068493E+04  0.10841092493E+04  0.00000000000E+00 0.  1.
         14    1    5    5    0    0 -0.17817288946E+02  0.40893894919E+01  0.88391038288E+02  0.90261589513E+02  0.00000000000E+00 0. -1.
         13    1    3    3    0    0 -0.11675075996E+02  0.44134186168E+01  0.23147328216E+02  0.26297993591E+02  0.00000000000E+00 0. -1.
        -14    1    3    3    0    0 -0.83002632415E+02 -0.13407003205E+02 -0.57622953162E+02  0.10192933559E+03  0.00000000000E+00 0.  1.
          5    1    4    4  501    0  0.21270816061E+02  0.23095017792E+02  0.24334212633E+02  0.39943131665E+02  0.41800000000E+01 0. -1.
         -5    1    4    4    0  501  0.44466854203E+02  0.14505151800E+02  0.57734256319E+03  0.57924917628E+03  0.41800000000E+01 0. -1.
</event>
<event>
11    1  0.8299058E-009  0.1428363E+03  0.7561462E-02  0.1104432E+00
         22   -1    0    0    0    0  0.00000000000E+00  0.00000000000E+00  0.81934733277E+03  0.81934733277E+03  0.00000000000E+00 0.  1.
         22   -1    0    0    0    0 -0.00000000000E+00 -0.00000000000E+00 -0.10480849763E+03  0.10480849763E+03  0.00000000000E+00 0. -1.
        -24    2    1    2    0    0 -0.75477651746E+02 -0.23195984466E+01 -0.45744397841E+02  0.11876250638E+03  0.79433787136E+02 0.  0.
         25    2    1    2    0    0  0.29101763446E+02 -0.15337155441E+02  0.20337023569E+03  0.24102283477E+03  0.12510161127E+03 0.  0.
         24    2    1    2    0    0  0.46375888300E+02  0.17656753887E+02  0.55691299730E+03  0.56437048925E+03  0.76808063389E+02 0.  0.
        -13    1    5    5    0    0  0.72188277568E+01  0.42631027615E+02  0.21378212198E+03  0.21811077843E+03  0.00000000000E+00 0.  1.
         14    1    5    5    0    0  0.39157060544E+02 -0.24974273727E+02  0.34313087531E+03  0.34625971081E+03  0.00000000000E+00 0. -1.
         13    1    3    3    0    0 -0.90275758537E+02  0.93418823747E+01 -0.37731183483E+02  0.98288481283E+02  0.00000000000E+00 0. -1.
        -14    1    3    3    0    0  0.14798106791E+02 -0.11661480821E+02 -0.80132143578E+01  0.20474025102E+02  0.00000000000E+00 0.  1.
          5    1    4    4  501    0 -0.24958638903E+02  0.35489271220E+02  0.12781177782E+03  0.13503979035E+03  0.41800000000E+01 0.  1.
         -5    1    4    4    0  501  0.54060402349E+02 -0.50826426660E+02  0.75558457872E+02  0.10598304442E+03  0.41800000000E+01 0.  1.
</event>
<event>
11    1  0.8299058E-009  0.1291137E+03  0.7561462E-02  0.1120363E+00
         22   -1    0    0    0    0  0.00000000000E+00  0.00000000000E+00  0.42382141972E+03  0.42382141972E+03  0.00000000000E+00 0.  1.
         22   -1    0    0    0    0 -0.00000000000E+00 -0.00000000000E+00 -0.71565654136E+03  0.71565654136E+03  0.00000000000E+00 0.  1.
         24    2    1    2    0    0  0.28077735736E+02  0.14874641737E+02 -0.68416447514E+03  0.68983920495E+03  0.82386196806E+02 0.  0.
         25    2    1    2    0    0 -0.42319580444E+02 -0.25707105660E+02  0.20550592436E+03  0.24562415054E+03  0.12508691462E+03 0.  0.
        -24    2    1    2    0    0  0.14241844708E+02  0.10832463922E+02  0.18682342914E+03  0.20401460560E+03  0.79992457194E+02 0.  0.
        -11    1    3    3    0    0  0.23775251770E+02  0.47518760357E+02 -0.34323422853E+03  0.34732266096E+03  0.00000000000E+00 0.  1.
         12    1    3    3    0    0  0.43024839658E+01 -0.32644118620E+02 -0.34093024661E+03  0.34251654399E+03  0.00000000000E+00 0. -1.
         11    1    5    5    0    0  0.13181647832E+02  0.13919799097E+02  0.21259053917E+01  0.19288237872E+02  0.00000000000E+00 0. -1.
        -12    1    5    5    0    0  0.10601968767E+01 -0.30873351747E+01  0.18469752375E+03  0.18472636773E+03  0.00000000000E+00 0.  1.
          5    1    4    4  501    0 -0.54193139628E+02  0.28555924744E+02  0.16693938799E+03  0.17787233872E+03  0.41800000000E+01 0.  1.
         -5    1    4    4    0  501  0.11873559184E+02 -0.54263030403E+02  0.38566536372E+02  0.67751811813E+02  0.41800000000E+01 0.  1.
</event>
<event>
11    1  0.8299058E-009  0.3661648E+03  0.7561462E-02  0.9755228E-01
         22   -1    0    0    0    0  0.00000000000E+00  0.00000000000E+00  0.57522969090E+03  0.57522969090E+03  0.00000000000E+00 0. -1.
         22   -1    0    0    0    0 -0.00000000000E+00 -0.00000000000E+00 -0.66084283545E+03  0.66084283545E+03  0.00000000000E+00 0. -1.
         24    2    1    2    0    0 -0.37671103576E+02 -0.26240364352E+03 -0.32939983067E+03  0.43018587722E+03  0.79251853875E+02 0.  0.
         25    2    1    2    0    0  0.36393647535E+03  0.12418879138E+03  0.12063719058E+03  0.42198725302E+03  0.12508915207E+03 0.  0.
        -24    2    1    2    0    0 -0.32626537178E+03  0.13821485214E+03  0.12314949555E+03  0.38389939611E+03  0.81611947068E+02 0.  0.
        -13    1    3    3    0    0 -0.50941038207E+02 -0.21934101162E+03 -0.23437629864E+03  0.32501956574E+03  0.00000000000E+00 0.  1.
         14    1    3    3    0    0  0.13269934632E+02 -0.43062631897E+02 -0.95023532029E+02  0.10516631148E+03  0.00000000000E+00 0. -1.
         11    1    5    5    0    0 -0.20235455172E+03  0.96708118944E+02  0.11728010431E+03  0.25308980172E+03  0.00000000000E+00 0. -1.
        -12    1    5    5    0    0 -0.12391082006E+03  0.41506733197E+02  0.58693912372E+01  0.13080959438E+03  0.00000000000E+00 0.  1.
          5    1    4    4  501    0 -0.98584232676E+01  0.29324385288E+01  0.80736492639E+00  0.11131574155E+02  0.41800000000E+01 0. -1.
         -5    1    4    4    0  501  0.37379489862E+03  0.12125635285E+03  0.11982982565E+03  0.41085567887E+03  0.41800000000E+01 0. -1.
</event>
<event>
11    1  0.1638060E-008  0.1807713E+03  0.7561462E-02  0.1069021E+00
         22   -1    0    0    0    0  0.00000000000E+00  0.00000000000E+00  0.42023729360E+03  0.42023729360E+03  0.00000000000E+00 0. -1.
         22   -1    0    0    0    0 -0.00000000000E+00 -0.00000000000E+00 -0.10561610167E+04  0.10561610167E+04  0.00000000000E+00 0. -1.
        -24    2    1    2    0    0 -0.43709025025E+02  0.24084777113E+02 -0.74040958658E+03  0.74667093785E+03  0.82586791745E+02 0.  0.
         25    2    1    2    0    0  0.17074427734E+03 -0.41531128584E+02 -0.25825720842E+03  0.33648555970E+03  0.12508918139E+03 0.  0.
         24    2    1    2    0    0 -0.12703525231E+03  0.17446351472E+02  0.36274307194E+03  0.39324181272E+03  0.81328079515E+02 0.  0.
        -11    1    5    5    0    0 -0.58590079784E+02  0.49335363110E+01  0.65742879783E+02  0.88200133060E+02  0.00000000000E+00 0.  1.
         12    1    5    5    0    0 -0.68445172528E+02  0.12512815161E+02  0.29700019216E+03  0.30504167966E+03  0.00000000000E+00 0. -1.
         11    1    3    3    0    0 -0.11260063843E+02  0.19653044030E+02 -0.65195188045E+03  0.65234521965E+03  0.00000000000E+00 0. -1.
        -12    1    3    3    0    0 -0.32448961182E+02  0.44317330823E+01 -0.88457706127E+02  0.94325718195E+02  0.00000000000E+00 0.  1.
          5    1    4    4  501    0  0.17020565160E+03 -0.53607696412E+02 -0.16733343868E+03  0.24466650987E+03  0.41800000000E+01 0.  1.
         -5    1    4    4    0  501  0.53862573509E+00  0.12076567828E+02 -0.90923769737E+02  0.91819049829E+02  0.41800000000E+01 0.  1.
</event>
<event>
11    1  0.8299058E-009  0.1261052E+03  0.7561462E-02  0.1124149E+00
         22   -1    0    0    0    0  0.00000000000E+00  0.00000000000E+00  0.10172491654E+03  0.10172491654E+03  0.00000000000E+00 0. -1.
         22   -1    0    0    0    0 -0.00000000000E+00 -0.00000000000E+00 -0.15430140702E+04  0.15430140702E+04  0.00000000000E+00 0.  1.
        -24    2    1    2    0    0 -0.12795238822E+02 -0.11240268926E+02 -0.12297882348E+04  0.12324690427E+04  0.79440398696E+02 0.  0.
         25    2    1    2    0    0  0.13829278217E+02 -0.90017151219E+01 -0.28205386887E+03  0.30898958455E+03  0.12509156088E+03 0.  0.
         24    2    1    2    0    0 -0.10340393949E+01  0.20241984048E+02  0.70552950073E+02  0.10328035944E+03  0.72651956101E+02 0.  0.
        -13    1    5    5    0    0 -0.32745798811E+02  0.27634683913E+02  0.39032021784E+02  0.57960864549E+02  0.00000000000E+00 0.  1.
         14    1    5    5    0    0  0.31711759416E+02 -0.73926998648E+01  0.31520928290E+02  0.45319494887E+02  0.00000000000E+00 0. -1.
         13    1    3    3    0    0  0.32916339002E+02 -0.11114639847E+02 -0.61770871576E+03  0.61868495870E+03  0.00000000000E+00 0. -1.
        -14    1    3    3    0    0 -0.45711577824E+02 -0.12562907879E+00 -0.61207951907E+03  0.61378408402E+03  0.00000000000E+00 0.  1.
          5    1    4    4  501    0 -0.49248062974E+02  0.12710265124E+02 -0.69842366762E+02  0.86500584629E+02  0.41800000000E+01 0.  1.
         -5    1    4    4    0  501  0.63077341191E+02 -0.21711980246E+02 -0.21221150211E+03  0.22248899992E+03  0.41800000000E+01 0.  1.
</event>
<event>
11    1  0.8299058E-009  0.1501100E+03  0.7561462E-02  0.1096766E+00
         22   -1    0    0    0    0  0.00000000000E+00  0.00000000000E+00  0.19878501197E+03  0.19878501197E+03  0.00000000000E+00 0.  1.
         22   -1    0    0    0    0 -0.00000000000E+00 -0.00000000000E+00 -0.67272193360E+03  0.67272193360E+03  0.00000000000E+00 0. -1.
        -24    2    1    2    0    0  0.31080257391E+02  0.59580923754E+02 -0.39017598861E+03  0.40466377787E+03  0.83663625036E+02 0.  0.
         25    2    1    2    0    0 -0.10540643319E+03 -0.23340584013E+02 -0.22806042729E+03  0.28162877372E+03  0.12509160112E+03 0.  0.
         24    2    1    2    0    0  0.74326175803E+02 -0.36240339742E+02  0.14429949427E+03  0.18521439398E+03  0.81512484048E+02 0.  0.
        -11    1    5    5    0    0  0.81080105857E+02 -0.53794925641E+02  0.12101358050E+03  0.15528092045E+03  0.00000000000E+00 0.  1.
         12    1    5    5    0    0 -0.67539300533E+01  0.17554585900E+02  0.23285913777E+02  0.29933473532E+02  0.00000000000E+00 0. -1.
         13    1    3    3    0    0  0.37916615967E+02  0.68350899526E+02 -0.38413979991E+03  0.39201135329E+03  0.00000000000E+00 0. -1.
        -14    1    3    3    0    0 -0.68363585758E+01 -0.87699757719E+01 -0.60361886965E+01  0.12652424574E+02  0.00000000000E+00 0.  1.
          5    1    4    4  501    0  0.19669213776E+02 -0.30916396563E+02 -0.31573231439E+02  0.48549386098E+02  0.41800000000E+01 0. -1.
         -5    1    4    4    0  501 -0.12507564697E+03  0.75758125505E+01 -0.19648719585E+03  0.23307938762E+03  0.41800000000E+01 0. -1.
</event>
<event>
11    1  0.8299058E-009  0.2489819E+03  0.7561462E-02  0.1024443E+00
         22   -1    0    0    0    0  0.00000000000E+00  0.00000000000E+00  0.11716683976E+04  0.11716683976E+04  0.00000000000E+00 0. -1.
         22   -1    0    0    0    0 -0.00000000000E+00 -0.00000000000E+00 -0.14763226097E+03  0.14763226097E+03  0.00000000000E+00 0. -1.
        -24    2    1    2    0    0 -0.70595725680E+02 -0.19023182884E+02 -0.58385300714E+02  0.12631137999E+03  0.84853305203E+02 0.  0.
         25    2    1    2    0    0 -0.14896981752E+03 -0.78727143956E+02  0.26912332609E+03  0.34126924510E+03  0.12508942112E+03 0.  0.
         24    2    1    2    0    0  0.21956554320E+03  0.97750326840E+02  0.81329811125E+03  0.85172003348E+03  0.78797484157E+02 0.  0.
        -13    1    5    5    0    0  0.19611548857E+03  0.62322076123E+02  0.60218338168E+03  0.63637265120E+03  0.00000000000E+00 0.  1.
         14    1    5    5    0    0  0.23450054626E+02  0.35428250717E+02  0.21111472957E+03  0.21534738227E+03  0.00000000000E+00 0. -1.
         13    1    3    3    0    0 -0.86584040150E+02 -0.70802025825E+01 -0.61047965929E+02  0.10617805527E+03  0.00000000000E+00 0. -1.
        -14    1    3    3    0    0  0.15988314470E+02 -0.11942980302E+02  0.26626652157E+01  0.20133324716E+02  0.00000000000E+00 0.  1.
          5    1    4    4  501    0 -0.14870326379E+03 -0.19471668561E+02  0.18286758869E+03  0.23653717241E+03  0.41800000000E+01 0. -1.
         -5    1    4    4    0  501 -0.26655372949E+00 -0.59255475395E+02  0.86255737401E+02  0.10473207269E+03  0.41800000000E+01 0. -1.
</event>
<event>
11    1  0.8299058E-009  0.1395159E+03  0.7561462E-02  0.1108100E+00
         22   -1    0    0    0    0  0.00000000000E+00  0.00000000000E+00  0.68138267548E+03  0.68138267548E+03  0.00000000000E+00 0.  1.
         22   -1    0    0    0    0 -0.00000000000E+00 -0.00000000000E+00 -0.77530297796E+03  0.77530297796E+03  0.00000000000E+00 0. -1.
         24    2    1    2    0    0 -0.61281214614E+02  0.10308029387E+02 -0.73137837279E+03  0.73795948567E+03  0.76211781034E+02 0.  0.
         25    2    1    2    0    0  0.40787040818E+02 -0.43336444396E+02  0.92601577934E+02  0.16662573422E+03  0.12508977958E+03 0.  0.
        -24    2    1    2    0    0  0.20494173796E+02  0.33028415009E+02  0.54485649237E+03  0.55210043356E+03  0.80220970452E+02 0.  0.
        -11    1    3    3    0    0 -0.47360744090E+02 -0.55320641458E+01 -0.18094294456E+03  0.18712026347E+03  0.00000000000E+00 0.  1.
         12    1    3    3    0    0 -0.13920470523E+02  0.15840093533E+02 -0.55043542823E+03  0.55083922220E+03  0.00000000000E+00 0. -1.
         13    1    5    5    0    0  0.29975334280E+02  0.13794508300E+01  0.70831201999E+02  0.76925176155E+02  0.00000000000E+00 0. -1.
        -14    1    5    5    0    0 -0.94811604841E+01  0.31648964179E+02  0.47402529037E+03  0.47517525740E+03  0.00000000000E+00 0.  1.
          5    1    4    4  501    0  0.81892802623E+02 -0.14595429528E+02  0.78270283829E+02  0.11429421427E+03  0.41800000000E+01 0.  1.
         -5    1    4    4    0  501 -0.41105761806E+02 -0.28741014869E+02  0.14331294105E+02  0.52331519948E+02  0.41800000000E+01 0.  1.
</event>
<event>
11    1  0.8299058E-009  0.2454981E+04  0.7561462E-02  0.7902433E-01
         22   -1    0    0    0    0  0.00000000000E+00  0.00000000000E+00  0.53756111329E+03  0.53756111329E+03  0.00000000000E+00 0.  1.
         22   -1    0    0    0    0 -0.00000000000E+00 -0.00000000000E+00 -0.28029055528E+04  0.28029055528E+04  0.00000000000E+00 0.  1.
         24    2    1    2    0    0  0.65740709303E+03  0.82883001907E+03 -0.99849125225E+03  0.14577126063E+04  0.93797523215E+02 0.  0.
         25    2    1    2    0    0 -0.66899349520E+03 -0.99331105272E+03 -0.11545400178E+04  0.16681815838E+04  0.12509196569E+03 0.  0.
        -24    2    1    2    0    0  0.11586402173E+02  0.16448103365E+03 -0.11231316949E+03  0.21457247594E+03  0.78986354801E+02 0.  0.
        -11    1    3    3    0    0  0.19150570762E+03  0.20396458668E+03 -0.31192223671E+03  0.41901249435E+03  0.00000000000E+00 0.  1.
         12    1    3    3    0    0  0.46590138541E+03  0.62486543239E+03 -0.68656901554E+03  0.10387001120E+04  0.00000000000E+00 0. -1.
         11    1    5    5    0    0 -0.71871301261E+01  0.32645896835E+01 -0.32987437217E+02  0.33918776502E+02  0.00000000000E+00 0. -1.
        -12    1    5    5    0    0  0.18773532299E+02  0.16121644397E+03 -0.79325732273E+02  0.18065369944E+03  0.00000000000E+00 0.  1.
          5    1    4    4  501    0 -0.36083522665E+03 -0.64023340573E+03 -0.68105268547E+03  0.10019736061E+04  0.41800000000E+01 0. -1.
         -5    1    4    4    0  501 -0.30815826855E+03 -0.35307764699E+03 -0.47348733232E+03  0.66620797770E+03  0.41800000000E+01 0. -1.
</event>
<event>
11    1  0.8299058E-009  0.1423328E+03  0.7561462E-02  0.1104981E+00
         22   -1    0    0    0    0  0.00000000000E+00  0.00000000000E+00  0.10381740542E+04  0.10381740542E+04  0.00000000000E+00 0. -1.
         22   -1    0    0    0    0 -0.00000000000E+00 -0.00000000000E+00 -0.14969432980E+04  0.14969432980E+04  0.00000000000E+00 0.  1.
         24    2    1    2    0    0  0.20238267189E+02  0.12890122006E+02 -0.12716412534E+04  0.12742775655E+04  0.78333222393E+02 0.  0.
         25    2    1    2    0    0 -0.48423238353E+02 -0.74454239133E+02 -0.19538066539E+03  0.24841597752E+03  0.12509456321E+03 0.  0.
        -24    2    1    2    0    0  0.28184971164E+02  0.61564117127E+02  0.10082526751E+04  0.10124238092E+04  0.61999835355E+02 0.  0.
        -11    1    3    3    0    0  0.16443750440E+02 -0.97507203259E+01 -0.11666163390E+04  0.11667729667E+04  0.00000000000E+00 0.  1.
         12    1    3    3    0    0  0.37945167488E+01  0.22640842332E+02 -0.10502491446E+03  0.10750459877E+03  0.00000000000E+00 0. -1.
         13    1    5    5    0    0  0.47133904332E+02  0.49655122404E+02  0.81776960969E+03  0.82063047144E+03  0.00000000000E+00 0. -1.
        -14    1    5    5    0    0 -0.18948933168E+02  0.11908994723E+02  0.19048306539E+03  0.19179333779E+03  0.00000000000E+00 0.  1.
          5    1    4    4  501    0 -0.15921709293E+02 -0.27375063667E+02  0.11330957447E+02  0.33893331708E+02  0.41800000000E+01 0.  1.
         -5    1    4    4    0  501 -0.32501529060E+02 -0.47079175467E+02 -0.20671162283E+03  0.21452264582E+03  0.41800000000E+01 0.  1.
</event>
<event>
11    1  0.8299058E-009  0.1301184E+03  0.7561462E-02  0.1119124E+00
         22   -1    0    0    0    0  0.00000000000E+00  0.00000000000E+00  0.48466012715E+03  0.48466012715E+03  0.00000000000E+00 0. -1.
         22   -1    0    0    0    0 -0.00000000000E+00 -0.00000000000E+00 -0.39228181953E+03  0.39228181953E+03  0.00000000000E+00 0.  1.
        -24    2    1    2    0    0  0.21919355769E+02 -0.26508561420E+02 -0.33198244452E+03  0.34339395061E+03  0.80770662098E+02 0.  0.
         25    2    1    2    0    0 -0.51316716594E+02  0.68677884216E+01  0.43029220050E+02  0.14205503330E+03  0.12509015464E+03 0.  0.
         24    2    1    2    0    0  0.29397360825E+02  0.19640772998E+02  0.38133153209E+03  0.39149296278E+03  0.81259077997E+02 0.  0.
        -11    1    5    5    0    0  0.36002698673E+02 -0.13099345274E+02  0.84394739112E+02  0.92683650921E+02  0.00000000000E+00 0.  1.
         12    1    5    5    0    0 -0.66053378481E+01  0.32740118272E+02  0.29693679298E+03  0.29880931186E+03  0.00000000000E+00 0. -1.
         11    1    3    3    0    0  0.46413888281E+02  0.44064238780E+01 -0.14554747422E+03  0.15283236846E+03  0.00000000000E+00 0. -1.
        -12    1    3    3    0    0 -0.24494532512E+02 -0.30914985298E+02 -0.18643497030E+03  0.19056158214E+03  0.00000000000E+00 0.  1.
          5    1    4    4  501    0 -0.13490122507E+02  0.64531729961E+02  0.25190302049E+02  0.70699019047E+02  0.41800000000E+01 0.  1.
         -5    1    4    4    0  501 -0.37826594087E+02 -0.57663941539E+02  0.17838918001E+02  0.71356014249E+02  0.41800000000E+01 0.  1.
</event>
<event>
11    1  0.8299058E-009  0.2290008E+03  0.7561462E-02  0.1035721E+00
         22   -1    0    0    0    0  0.00000000000E+00  0.00000000000E+00  0.26075368263E+03  0.26075368263E+03  0.00000000000E+00 0. -1.
         22   -1    0    0    0    0 -0.00000000000E+00 -0.00000000000E+00 -0.90456183882E+03  0.90456183882E+03  0.00000000000E+00 0.  1.
        -24    2    1    2    0    0 -0.46778874360E+02  0.21361086551E+03 -0.74340395667E+03  0.77649563948E+03  0.49781225225E+02 0.  0.
         25    2    1    2    0    0  0.48465576083E+02 -0.43584775837E+02 -0.48889260141E+02  0.14928628343E+03  0.12509072673E+03 0.  0.
         24    2    1    2    0    0 -0.16867017222E+01 -0.17002608968E+03  0.14848506062E+03  0.23953359855E+03  0.80105027750E+02 0.  0.
        -13    1    5    5    0    0 -0.79928474797E+01 -0.20395591894E+02  0.63864696395E+02  0.67517147637E+02  0.00000000000E+00 0.  1.
         14    1    5    5    0    0  0.63061457575E+01 -0.14963049778E+03  0.84620364229E+02  0.17201645091E+03  0.00000000000E+00 0. -1.
         13    1    3    3    0    0 -0.14628588985E+02  0.12546588422E+02 -0.43575728692E+02  0.47647210073E+02  0.00000000000E+00 0. -1.
        -14    1    3    3    0    0 -0.32150285376E+02  0.20106427709E+03 -0.69982822798E+03  0.72884842941E+03  0.00000000000E+00 0.  1.
          5    1    4    4  501    0 -0.24661967691E+02 -0.19383723979E+02  0.26610443170E+02  0.41346456817E+02  0.41800000000E+01 0.  1.
         -5    1    4    4    0  501  0.73127543773E+02 -0.24201051858E+02 -0.75499703311E+02  0.10793982661E+03  0.41800000000E+01 0.  1.
</event>
<event>
11    1  0.8299058E-009  0.1508240E+03  0.7561462E-02  0.1096040E+00
         22   -1    0    0    0    0  0.00000000000E+00  0.00000000000E+00  0.50501190946E+03  0.50501190946E+03  0.00000000000E+00 0. -1.
         22   -1    0    0    0    0 -0.00000000000E+00 -0.00000000000E+00 -0.17470539789E+03  0.17470539789E+03  0.00000000000E+00 0. -1.
        -24    2    1    2    0    0  0.31296843781E+02  0.92828263463E+01 -0.79198980322E+02  0.11615239220E+03  0.78442567736E+02 0.  0.
         25    2    1    2    0    0 -0.85163387890E+02 -0.70108516588E+02  0.32501019547E+02  0.16991810648E+03  0.12509132625E+03 0.  0.
         24    2    1    2    0    0  0.53866544110E+02  0.60825690241E+02  0.37700447235E+03  0.39364680866E+03  0.78892766684E+02 0.  0.
        -13    1    5    5    0    0  0.31781731832E+02  0.46838472760E+02  0.96117069826E+02  0.11154556074E+03  0.00000000000E+00 0.  1.
         14    1    5    5    0    0  0.22084812277E+02  0.13987217481E+02  0.28088740252E+03  0.28210124792E+03  0.00000000000E+00 0. -1.
         13    1    3    3    0    0  0.23948769412E+02  0.39553792699E+02 -0.69594994910E+02  0.83555427051E+02  0.00000000000E+00 0. -1.
        -14    1    3    3    0    0  0.73480743690E+01 -0.30270966352E+02 -0.96039854122E+01  0.32596965144E+02  0.00000000000E+00 0.  1.
          5    1    4    4  501    0 -0.22154380661E+02 -0.48159673567E+02  0.74080252508E+02  0.91189511197E+02  0.41800000000E+01 0.  1.
         -5    1    4    4    0  501 -0.63009007229E+02 -0.21948843021E+02 -0.41579232962E+02  0.78728595285E+02  0.41800000000E+01 0.  1.
</event>
<event>
11    1  0.8299058E-009  0.1561575E+03  0.7561462E-02  0.1090748E+00
         22   -1    0    0    0    0  0.00000000000E+00  0.00000000000E+00  0.48079385858E+03  0.48079385858E+03  0.00000000000E+00 0. -1.
         22   -1    0    0    0    0 -0.00000000000E+00 -0.00000000000E+00 -0.89543036080E+03  0.89543036080E+03  0.00000000000E+00 0. -1.
         24    2    1    2    0    0  0.63568228861E+02  0.33059984146E+02 -0.78264668358E+03  0.79006544761E+03  0.80831292981E+02 0.  0.
         25    2    1    2    0    0 -0.47531207641E+02  0.63646709124E+02 -0.40316056414E+02  0.15357581011E+03  0.12510006300E+03 0.  0.
        -24    2    1    2    0    0 -0.16037021220E+02 -0.96706693270E+02  0.40832623777E+03  0.43258296166E+03  0.10386689412E+03 0.  0.
        -13    1    3    3    0    0 -0.16609552402E+02 -0.74235818650E+01 -0.13465070127E+03  0.13587419973E+03  0.00000000000E+00 0.  1.
         14    1    3    3    0    0  0.80177781264E+02  0.40483566011E+02 -0.64799598230E+03  0.65419124788E+03  0.00000000000E+00 0. -1.
         13    1    5    5    0    0 -0.64269424300E+01 -0.73371744353E+02  0.10526888806E+03  0.12847667980E+03  0.00000000000E+00 0. -1.
        -14    1    5    5    0    0 -0.96100787904E+01 -0.23334948917E+02  0.30305734971E+03  0.30410628186E+03  0.00000000000E+00 0.  1.
          5    1    4    4  501    0 -0.61690553700E+02 -0.11290520308E+02  0.77529325052E+01  0.63330724195E+02  0.41800000000E+01 0.  1.
         -5    1    4    4    0  501  0.14159346059E+02  0.74937229432E+02 -0.48068988919E+02  0.90245085913E+02  0.41800000000E+01 0.  1.
</event>
<event>
11    1  0.8299058E-009  0.1913723E+03  0.7561462E-02  0.1060798E+00
         22   -1    0    0    0    0  0.00000000000E+00  0.00000000000E+00  0.26961946821E+03  0.26961946821E+03  0.00000000000E+00 0.  1.
         22   -1    0    0    0    0 -0.00000000000E+00 -0.00000000000E+00 -0.78852117672E+03  0.78852117672E+03  0.00000000000E+00 0.  1.
         24    2    1    2    0    0  0.11337443357E+03  0.95745385071E+02 -0.69906295242E+03  0.71893424147E+03  0.78463310985E+02 0.  0.
         25    2    1    2    0    0 -0.69610000270E+02 -0.83673664943E+02  0.39199358755E+02  0.17038189266E+03  0.12508623137E+03 0.  0.
        -24    2    1    2    0    0 -0.43764433295E+02 -0.12071720128E+02  0.14096188515E+03  0.16882451080E+03  0.81058067664E+02 0.  0.
        -11    1    3    3    0    0  0.11253842298E+03  0.95737814712E+02 -0.70122194036E+03  0.71661903091E+03  0.00000000000E+00 0.  1.
         12    1    3    3    0    0  0.83601058722E+00  0.75703585550E-02  0.21589879456E+01  0.23152105653E+01  0.00000000000E+00 0. -1.
         13    1    5    5    0    0  0.19548426344E+02  0.11293444383E+02  0.19313157508E+02  0.29709946339E+02  0.00000000000E+00 0. -1.
        -14    1    5    5    0    0 -0.63312859639E+02 -0.23365164511E+02  0.12164872764E+03  0.13911456446E+03  0.00000000000E+00 0.  1.
          5    1    4    4  501    0 -0.95861350357E+02 -0.59236720280E+02  0.60996908123E+02  0.12820484672E+03  0.41800000000E+01 0. -1.
         -5    1    4    4    0  501  0.26251350087E+02 -0.24436944663E+02 -0.21797549367E+02  0.42177045941E+02  0.41800000000E+01 0. -1.
</event>
<event>
11    1  0.8299058E-009  0.1298726E+03  0.7561462E-02  0.1119426E+00
         22   -1    0    0    0    0  0.00000000000E+00  0.00000000000E+00  0.14020519707E+04  0.14020519707E+04  0.00000000000E+00 0.  1.
         22   -1    0    0    0    0 -0.00000000000E+00 -0.00000000000E+00 -0.38962767375E+03  0.38962767375E+03  0.00000000000E+00 0.  1.
        -24    2    1    2    0    0  0.10240721828E+02 -0.22521521954E+02 -0.33743400136E+03  0.34759900621E+03  0.79694871278E+02 0.  0.
         25    2    1    2    0    0 -0.42556583586E+02  0.94381189255E+01  0.50969962489E+02  0.14193747599E+03  0.12509264215E+03 0.  0.
         24    2    1    2    0    0  0.32315861758E+02  0.13083403028E+02  0.12988883358E+04  0.13021431622E+04  0.85149372730E+02 0.  0.
        -13    1    5    5    0    0  0.49875280789E+02  0.10599548306E+02  0.12284129577E+04  0.12294707352E+04  0.00000000000E+00 0.  1.
         14    1    5    5    0    0 -0.17559419030E+02  0.24838547227E+01  0.70475378126E+02  0.72672427048E+02  0.00000000000E+00 0. -1.
         11    1    3    3    0    0 -0.53466250375E+01 -0.45253284198E+02 -0.11888565354E+03  0.12731945943E+03  0.00000000000E+00 0. -1.
        -12    1    3    3    0    0  0.15587346865E+02  0.22731762245E+02 -0.21854834782E+03  0.22027954678E+03  0.00000000000E+00 0.  1.
          5    1    4    4  501    0 -0.70418875819E+02 -0.23431436516E+02  0.62522410108E+02  0.97130708093E+02  0.41800000000E+01 0.  1.
         -5    1    4    4    0  501  0.27862292233E+02  0.32869555442E+02 -0.11552447619E+02  0.44806767898E+02  0.41800000000E+01 0.  1.
</event>
<event>
11    1  0.9760687E-009  0.1439499E+03  0.7561462E-02  0.1103226E+00
         22   -1    0    0    0    0  0.00000000000E+00  0.00000000000E+00  0.16520551041E+04  0.16520551041E+04  0.00000000000E+00 0.  1.
         22   -1    0    0    0    0 -0.00000000000E+00 -0.00000000000E+00 -0.42834165198E+03  0.42834165198E+03  0.00000000000E+00 0. -1.
        -24    2    1    2    0    0 -0.49710682136E+01  0.57429693269E+02 -0.31554900446E+03  0.33120846590E+03  0.82492378293E+02 0.  0.
         25    2    1    2    0    0  0.64770565641E+02 -0.95010256539E+02 -0.33153657332E+02  0.17311270455E+03  0.12508664381E+03 0.  0.
         24    2    1    2    0    0 -0.59799497427E+02  0.37580563270E+02  0.15724161139E+04  0.15760755856E+04  0.80830301849E+02 0.  0.
        -11    1    5    5    0    0 -0.78196716153E+02  0.40221467296E+02  0.13644511008E+04  0.13672817191E+04  0.00000000000E+00 0.  1.
         12    1    5    5    0    0  0.18397218726E+02 -0.26409040262E+01  0.20796501312E+03  0.20879386656E+03  0.00000000000E+00 0. -1.
         13    1    3    3    0    0  0.32196237573E+02  0.81953370552E-02 -0.10542307895E+03  0.11022986599E+03  0.00000000000E+00 0. -1.
        -14    1    3    3    0    0 -0.37167305786E+02  0.57421497932E+02 -0.21012592551E+03  0.22097859990E+03  0.00000000000E+00 0.  1.
          5    1    4    4  501    0  0.31108033273E+02  0.24169571191E+02 -0.29062085782E+02  0.49132017419E+02  0.41800000000E+01 0.  1.
         -5    1    4    4    0  501  0.33662532368E+02 -0.11917982773E+03 -0.40915715505E+01  0.12398068713E+03  0.41800000000E+01 0.  1.
</event>
<event>
11    1  0.8299058E-009  0.1423061E+03  0.7561462E-02  0.1105010E+00
         22   -1    0    0    0    0  0.00000000000E+00  0.00000000000E+00  0.27875477015E+03  0.27875477015E+03  0.00000000000E+00 0.  1.
         22   -1    0    0    0    0 -0.00000000000E+00 -0.00000000000E+00 -0.76464084714E+03  0.76464084714E+03  0.00000000000E+00 0. -1.
        -24    2    1    2    0    0  0.13604928455E+02 -0.73889856668E+02 -0.59715849371E+03  0.60785096485E+03  0.85086566891E+02 0.  0.
         25    2    1    2    0    0 -0.43669924409E+02  0.18085741329E+02 -0.12184525568E+03  0.18091662490E+03  0.12510156871E+03 0.  0.
         24    2    1    2    0    0  0.30064995953E+02  0.55804115339E+02  0.23311767240E+03  0.25462802754E+03  0.80458560495E+02 0.  0.
        -13    1    5    5    0    0  0.50792019341E+02  0.61378864984E+02  0.19856557027E+03  0.21395205069E+03  0.00000000000E+00 0.  1.
         14    1    5    5    0    0 -0.20727023387E+02 -0.55747496451E+01  0.34552102124E+02  0.40675976857E+02  0.00000000000E+00 0. -1.
         11    1    3    3    0    0 -0.10603293441E+02 -0.10767063634E+02 -0.38249345709E+03  0.38279185494E+03  0.00000000000E+00 0. -1.
        -12    1    3    3    0    0  0.24208221896E+02 -0.63122793034E+02 -0.21466503662E+03  0.22505910991E+03  0.00000000000E+00 0.  1.
          5    1    4    4  501    0  0.40244412942E+02 -0.12364909034E+02 -0.25014930868E+02  0.49150004220E+02  0.41800000000E+01 0.  1.
         -5    1    4    4    0  501 -0.83914337351E+02  0.30450650363E+02 -0.96830324816E+02  0.13176662068E+03  0.41800000000E+01 0.  1.
</event>
<event>
11    1  0.8299058E-009  0.1461515E+03  0.7561462E-02  0.1100877E+00
         22   -1    0    0    0    0  0.00000000000E+00  0.00000000000E+00  0.52399075280E+03  0.52399075280E+03  0.00000000000E+00 0. -1.
         22   -1    0    0    0    0 -0.00000000000E+00 -0.00000000000E+00 -0.30000127335E+03  0.30000127335E+03  0.00000000000E+00 0.  1.
        -24    2    1    2    0    0 -0.43507884997E+02 -0.60962668648E+02 -0.23964745372E+03  0.26388335784E+03  0.81204319115E+02 0.  0.
         25    2    1    2    0    0  0.17876525269E+02  0.88648658891E+02  0.93786303448E+02  0.18061721328E+03  0.12509417309E+03 0.  0.
         24    2    1    2    0    0  0.25631359727E+02 -0.27685990244E+02  0.36985062971E+03  0.37949145503E+03  0.76162953491E+02 0.  0.
        -11    1    5    5    0    0  0.37829610898E+02  0.11566973047E+02  0.24153050961E+03  0.24474856771E+03  0.00000000000E+00 0.  1.
         12    1    5    5    0    0 -0.12198251170E+02 -0.39252963291E+02  0.12832012010E+03  0.13474288732E+03  0.00000000000E+00 0. -1.
         13    1    3    3    0    0  0.23934398220E+02 -0.10016537250E+02 -0.55664510052E+02  0.61414364085E+02  0.00000000000E+00 0. -1.
        -14    1    3    3    0    0 -0.67442283217E+02 -0.50946131398E+02 -0.18398294367E+03  0.20246899375E+03  0.00000000000E+00 0.  1.
          5    1    4    4  501    0  0.37406432756E+02 -0.14918588705E+02  0.54871352593E+02  0.68191958733E+02  0.41800000000E+01 0. -1.
         -5    1    4    4    0  501 -0.19529907486E+02  0.10356724760E+03  0.38914950856E+02  0.11242525455E+03  0.41800000000E+01 0. -1.
</event>
<event>
11    1  0.8299058E-009  0.1830235E+03  0.7561462E-02  0.1067223E+00
         22   -1    0    0    0    0  0.00000000000E+00  0.00000000000E+00  0.40359262900E+03  0.40359262900E+03  0.00000000000E+00 0. -1.
         22   -1    0    0    0    0 -0.00000000000E+00 -0.00000000000E+00 -0.90830277031E+03  0.90830277031E+03  0.00000000000E+00 0. -1.
        -24    2    1    2    0    0 -0.88582103018E+02  0.12942132740E+02 -0.70008548744E+03  0.71047569404E+03  0.81496836265E+02 0.  0.
         25    2    1    2    0    0  0.19407343327E+03 -0.82740991554E+02 -0.10417541979E+03  0.26648327268E+03  0.12510094862E+03 0.  0.
         24    2    1    2    0    0 -0.10549133025E+03  0.69798858814E+02  0.29955076591E+03  0.33493643259E+03  0.80320925487E+02 0.  0.
        -11    1    5    5    0    0 -0.40865198920E+02 -0.77822948296E+01  0.46001917189E+02  0.62021810524E+02  0.00000000000E+00 0.  1.
         12    1    5    5    0    0 -0.64626131333E+02  0.77581153643E+02  0.25354884872E+03  0.27291462207E+03  0.00000000000E+00 0. -1.
         13    1    3    3    0    0 -0.12027623237E+01  0.17288106812E+02 -0.31926582541E+03  0.31973581681E+03  0.00000000000E+00 0. -1.
        -14    1    3    3    0    0 -0.87379340694E+02 -0.43459740721E+01 -0.38081966203E+03  0.39073987723E+03  0.00000000000E+00 0.  1.
          5    1    4    4  501    0  0.95445136145E+02  0.18555923185E+02 -0.72968528855E+02  0.12163870643E+03  0.41800000000E+01 0.  1.
         -5    1    4    4    0  501  0.98628297125E+02 -0.10129691474E+03 -0.31206890931E+02  0.14484456625E+03  0.41800000000E+01 0.  1.
</event>
<event>
11    1  0.8299058E-009  0.1554584E+03  0.7561462E-02  0.1091428E+00
         22   -1    0    0    0    0  0.00000000000E+00  0.00000000000E+00  0.14729015954E+04  0.14729015954E+04  0.00000000000E+00 0. -1.
         22   -1    0    0    0    0 -0.00000000000E+00 -0.00000000000E+00 -0.21167306419E+03  0.21167306419E+03  0.00000000000E+00 0.  1.
         24    2    1    2    0    0 -0.13474535500E+02 -0.24921040541E+02 -0.17191377501E+03  0.19136873073E+03  0.79151902667E+02 0.  0.
         25    2    1    2    0    0  0.15623401600E+02  0.11466367063E+03  0.24157557399E+03  0.29563221609E+03  0.12509117154E+03 0.  0.
        -24    2    1    2    0    0 -0.21488660999E+01 -0.89742630087E+02  0.11915667323E+04  0.11975737128E+04  0.79329457947E+02 0.  0.
        -13    1    3    3    0    0  0.23932656588E+01 -0.52195557979E+02 -0.11440017969E+03  0.12576766320E+03  0.00000000000E+00 0.  1.
         14    1    3    3    0    0 -0.15867801159E+02  0.27274517439E+02 -0.57513595317E+02  0.65601067532E+02  0.00000000000E+00 0. -1.
         13    1    5    5    0    0 -0.33772067918E+01 -0.10147074221E+03  0.11466115607E+04  0.11510976449E+04  0.00000000000E+00 0. -1.
        -14    1    5    5    0    0  0.12283406919E+01  0.11728112121E+02  0.44955171604E+02  0.46476067914E+02  0.00000000000E+00 0.  1.
          5    1    4    4  501    0 -0.52665171920E+02  0.34202233211E+02  0.11194063884E+03  0.12841959396E+03  0.41800000000E+01 0.  1.
         -5    1    4    4    0  501  0.68288573520E+02  0.80461437417E+02  0.12963493515E+03  0.16721262212E+03  0.41800000000E+01 0.  1.
</event>
<event>
11    1  0.8299058E-009  0.2172427E+03  0.7561462E-02  0.1042959E+00
         22   -1    0    0    0    0  0.00000000000E+00  0.00000000000E+00  0.16382233784E+04  0.16382233784E+04  0.00000000000E+00 0. -1.
         22   -1    0    0    0    0 -0.00000000000E+00 -0.00000000000E+00 -0.10254937879E+04  0.10254937879E+04  0.00000000000E+00 0.  1.
         24    2    1    2    0    0 -0.17416054980E+03 -0.34796474609E+02 -0.99889307260E+03  0.10176419462E+04  0.79152185413E+02 0.  0.
         25    2    1    2    0    0  0.17394272285E+03  0.40705008513E+02  0.75726888263E+03  0.78804618015E+03  0.12509057879E+03 0.  0.
        -24    2    1    2    0    0  0.21782694965E+00 -0.59085339035E+01  0.85435378045E+03  0.85802903988E+03  0.79110636920E+02 0.  0.
        -13    1    3    3    0    0 -0.11917599208E+03 -0.60433606433E+02 -0.66808589789E+03  0.68131777082E+03  0.00000000000E+00 0.  1.
         14    1    3    3    0    0 -0.54984557720E+02  0.25637131824E+02 -0.33080717470E+03  0.33632417539E+03  0.00000000000E+00 0. -1.
         11    1    5    5    0    0 -0.22044405619E+02 -0.35036998867E+02  0.52871506853E+03  0.53033307534E+03  0.00000000000E+00 0. -1.
        -12    1    5    5    0    0  0.22262232569E+02  0.29128464963E+02  0.32563871192E+03  0.32769596453E+03  0.00000000000E+00 0.  1.
          5    1    4    4  501    0  0.14727243959E+03  0.54992106865E+02  0.40507301471E+03  0.43452839139E+03  0.41800000000E+01 0.  1.
         -5    1    4    4    0  501  0.26670283257E+02 -0.14287098352E+02  0.35219586793E+03  0.35351778876E+03  0.41800000000E+01 0.  1.
</event>
<event>
11    1  0.8299058E-009  0.1455713E+03  0.7561462E-02  0.1101492E+00
         22   -1    0    0    0    0  0.00000000000E+00  0.00000000000E+00  0.14595695530E+04  0.14595695530E+04  0.00000000000E+00 0.  1.
         22   -1    0    0    0    0 -0.00000000000E+00 -0.00000000000E+00 -0.27244045635E+04  0.27244045635E+04  0.00000000000E+00 0. -1.
         24    2    1    2    0    0 -0.21902633327E+01  0.60170629140E+02 -0.26273879122E+04  0.26293170314E+04  0.80718699063E+02 0.  0.
         25    2    1    2    0    0 -0.33453601887E+01 -0.13311582145E+03 -0.51754897998E+01  0.18277336844E+03  0.12509318591E+03 0.  0.
        -24    2    1    2    0    0  0.55356235214E+01  0.72945192313E+02  0.13677283915E+04  0.13718837167E+04  0.77668106921E+02 0.  0.
        -11    1    3    3    0    0 -0.37289725466E+02  0.14236812490E+02 -0.77488876617E+03  0.77591611041E+03  0.00000000000E+00 0.  1.
         12    1    3    3    0    0  0.35099462133E+02  0.45933816650E+02 -0.18524991460E+04  0.18534009210E+04  0.00000000000E+00 0. -1.
         13    1    5    5    0    0 -0.86761961624E+01  0.26606304379E+01  0.74270017175E+03  0.74275561287E+03  0.00000000000E+00 0. -1.
        -14    1    5    5    0    0  0.14211819684E+02  0.70284561875E+02  0.62502821979E+03  0.62912810380E+03  0.00000000000E+00 0.  1.
          5    1    4    4  501    0  0.38133253543E+02 -0.83290341791E+02 -0.49423083599E+02  0.10417072359E+03  0.41800000000E+01 0. -1.
         -5    1    4    4    0  501 -0.41478613731E+02 -0.49825479663E+02  0.44247593799E+02  0.78602644852E+02  0.41800000000E+01 0. -1.
</event>
<event>
11    1  0.8299058E-009  0.1681390E+03  0.7561462E-02  0.1079663E+00
         22   -1    0    0    0    0  0.00000000000E+00  0.00000000000E+00  0.22531952443E+03  0.22531952443E+03  0.00000000000E+00 0. -1.
         22   -1    0    0    0    0 -0.00000000000E+00 -0.00000000000E+00 -0.32107064401E+03  0.32107064401E+03  0.00000000000E+00 0. -1.
         24    2    1    2    0    0  0.29497152441E+02 -0.98042969926E+02 -0.14170701058E+03  0.19175565751E+03  0.78783560380E+02 0.  0.
         25    2    1    2    0    0 -0.61885418199E+02  0.12391858366E+03 -0.77243032244E+02  0.20198895665E+03  0.12508969668E+03 0.  0.
        -24    2    1    2    0    0  0.32388265758E+02 -0.25875613737E+02  0.12319892324E+03  0.15264555428E+03  0.80025892107E+02 0.  0.
        -11    1    3    3    0    0 -0.57734364098E+01  0.11606200113E+02 -0.22674834623E+02  0.26118663331E+02  0.00000000000E+00 0.  1.
         12    1    3    3    0    0  0.35270588851E+02 -0.10964917004E+03 -0.11903217596E+03  0.16563699418E+03  0.00000000000E+00 0. -1.
         11    1    5    5    0    0  0.12999984319E+02 -0.34117526758E+02  0.12619117895E+03  0.13136673425E+03  0.00000000000E+00 0. -1.
        -12    1    5    5    0    0  0.19388281439E+02  0.82419130214E+01 -0.29922557050E+01  0.21278820024E+02  0.00000000000E+00 0.  1.
          5    1    4    4  501    0 -0.57353854382E+02  0.14183449917E+03 -0.91466109218E+02  0.17829753589E+03  0.41800000000E+01 0. -1.
         -5    1    4    4    0  501 -0.45315638166E+01 -0.17915915508E+02  0.14223076974E+02  0.23691420762E+02  0.41800000000E+01 0. -1.
</event>
<event>
11    1  0.8299058E-009  0.1460581E+03  0.7561462E-02  0.1100976E+00
         22   -1    0    0    0    0  0.00000000000E+00  0.00000000000E+00  0.24848743183E+04  0.24848743183E+04  0.00000000000E+00 0.  1.
         22   -1    0    0    0    0 -0.00000000000E+00 -0.00000000000E+00 -0.10807684977E+04  0.10807684977E+04  0.00000000000E+00 0.  1.
        -24    2    1    2    0    0  0.60752636575E+01 -0.30379345464E+02 -0.10349344943E+04  0.10393441698E+04  0.90482497478E+02 0.  0.
         25    2    1    2    0    0 -0.39028468675E+02 -0.38251938258E+02  0.67673590281E+02  0.15235896294E+03  0.12508839523E+03 0.  0.
         24    2    1    2    0    0  0.32953205018E+02  0.68631283722E+02  0.23713667246E+04  0.23739396832E+04  0.80083144470E+02 0.  0.
        -11    1    5    5    0    0  0.40528265604E+02  0.73409256466E+02  0.13871367007E+04  0.13896689122E+04  0.00000000000E+00 0.  1.
         12    1    5    5    0    0 -0.75750605868E+01 -0.47779727445E+01  0.98423002392E+03  0.98427077095E+03  0.00000000000E+00 0. -1.
         11    1    3    3    0    0  0.14798694066E+02  0.99890675585E+01 -0.43121962547E+02  0.46672116629E+02  0.00000000000E+00 0. -1.
        -12    1    3    3    0    0 -0.87234304082E+01 -0.40368413022E+02 -0.99181253175E+03  0.99267205317E+03  0.00000000000E+00 0.  1.
          5    1    4    4  501    0 -0.34769850923E+02  0.10441792540E+02  0.90980942028E+02  0.98045794285E+02  0.41800000000E+01 0.  1.
         -5    1    4    4    0  501 -0.42586177518E+01 -0.48693730798E+02 -0.23307351748E+02  0.54313168658E+02  0.41800000000E+01 0.  1.
</event>
<event>
11    1  0.8299058E-009  0.1324113E+03  0.7561462E-02  0.1116341E+00
         22   -1    0    0    0    0  0.00000000000E+00  0.00000000000E+00  0.13903703250E+03  0.13903703250E+03  0.00000000000E+00 0.  1.
         22   -1    0    0    0    0 -0.00000000000E+00 -0.00000000000E+00 -0.57359659385E+03  0.57359659385E+03  0.00000000000E+00 0. -1.
        -24    2    1    2    0    0  0.37969603995E+02  0.13492886093E+02 -0.39651403427E+03  0.40712032965E+03  0.83065243275E+02 0.  0.
         25    2    1    2    0    0 -0.54743257310E+02 -0.30870506456E+02 -0.12251050955E+03  0.18602779499E+03  0.12509077971E+03 0.  0.
         24    2    1    2    0    0  0.16773653314E+02  0.17377620363E+02  0.84464982467E+02  0.11948550172E+03  0.80988361647E+02 0.  0.
        -13    1    5    5    0    0  0.92493643217E+01  0.27175433144E+02  0.97433765986E+02  0.10157457192E+03  0.00000000000E+00 0.  1.
         14    1    5    5    0    0  0.75242889924E+01 -0.97978127809E+01 -0.12968783519E+02  0.17910929794E+02  0.00000000000E+00 0. -1.
         13    1    3    3    0    0  0.10671168286E+01 -0.32438149028E+02 -0.16989587708E+03  0.17296815112E+03  0.00000000000E+00 0. -1.
        -14    1    3    3    0    0  0.36902487167E+02  0.45931035121E+02 -0.22661815719E+03  0.23415217854E+03  0.00000000000E+00 0.  1.
          5    1    4    4  501    0 -0.19220180119E+02  0.42285075479E+02 -0.10942100922E+02  0.47902451970E+02  0.41800000000E+01 0. -1.
         -5    1    4    4    0  501 -0.35523077190E+02 -0.73155581935E+02 -0.11156840863E+03  0.13812534302E+03  0.41800000000E+01 0. -1.
</event>
<event>
11    1  0.8299058E-009  0.1686729E+03  0.7561462E-02  0.1079192E+00
         22   -1    0    0    0    0  0.00000000000E+00  0.00000000000E+00  0.10597924255E+03  0.10597924255E+03  0.00000000000E+00 0.  1.
         22   -1    0    0    0    0 -0.00000000000E+00 -0.00000000000E+00 -0.50271926183E+03  0.50271926183E+03  0.00000000000E+00 0.  1.
        -24    2    1    2    0    0  0.60937811650E+02 -0.49897012294E+02 -0.19374024867E+03  0.22446661923E+03  0.81528218860E+02 0.  0.
         25    2    1    2    0    0 -0.69395035396E+02  0.14237768750E+03 -0.14189309647E+03  0.24671260906E+03  0.12508550599E+03 0.  0.
         24    2    1    2    0    0  0.84572237459E+01 -0.92480675202E+02 -0.61106674140E+02  0.13751927608E+03  0.80952614232E+02 0.  0.
        -11    1    5    5    0    0  0.71538053133E+01  0.56277966880E+00 -0.41893786035E+02  0.42503916993E+02  0.00000000000E+00 0.  1.
         12    1    5    5    0    0  0.13034184326E+01 -0.93043454871E+02 -0.19212888106E+02  0.95015359092E+02  0.00000000000E+00 0. -1.
         13    1    3    3    0    0  0.56026889460E+02  0.41053085634E+00 -0.63079126588E+02  0.84369171439E+02  0.00000000000E+00 0. -1.
        -14    1    3    3    0    0  0.49109221898E+01 -0.50307543151E+02 -0.13066112208E+03  0.14009744779E+03  0.00000000000E+00 0.  1.
          5    1    4    4  501    0 -0.60335661197E+02  0.57572536968E+02 -0.28588698741E+01  0.83550191872E+02  0.41800000000E+01 0.  1.
         -5    1    4    4    0  501 -0.90593741994E+01  0.84805150529E+02 -0.13903422660E+03  0.16316241719E+03  0.41800000000E+01 0.  1.
</event>
<event>
11    1  0.8299058E-009  0.1496422E+03  0.7561462E-02  0.1097245E+00
         22   -1    0    0    0    0  0.00000000000E+00  0.00000000000E+00  0.86256414393E+02  0.86256414393E+02  0.00000000000E+00 0.  1.
         22   -1    0    0    0    0 -0.00000000000E+00 -0.00000000000E+00 -0.26584993837E+04  0.26584993837E+04  0.00000000000E+00 0.  1.
         24    2    1    2    0    0  0.38727850863E+02  0.81599120495E+02 -0.15322641774E+04  0.15371368081E+04  0.82448739421E+02 0.  0.
         25    2    1    2    0    0 -0.10797518321E+02 -0.67753438845E+02 -0.10972239620E+04  0.11064599811E+04  0.12508457937E+03 0.  0.
        -24    2    1    2    0    0 -0.27930332542E+02 -0.13845681650E+02  0.57245170151E+02  0.10115900887E+03  0.77358446168E+02 0.  0.
        -11    1    3    3    0    0  0.21607817661E+02  0.21874884067E+02 -0.11000872342E+04  0.11005168473E+04  0.00000000000E+00 0.  1.
         12    1    3    3    0    0  0.17120033201E+02  0.59724236428E+02 -0.43217694325E+03  0.43661996087E+03  0.00000000000E+00 0. -1.
         13    1    5    5    0    0  0.74193146382E+01  0.24673473204E+02  0.31970084598E+01  0.25962422320E+02  0.00000000000E+00 0. -1.
        -14    1    5    5    0    0 -0.35349647180E+02 -0.38519154854E+02  0.54048161691E+02  0.75196586549E+02  0.00000000000E+00 0.  1.
          5    1    4    4  501    0  0.12540933879E+02 -0.60189262730E+01 -0.86184864813E+03  0.86197103616E+03  0.41800000000E+01 0.  1.
         -5    1    4    4    0  501 -0.23338452200E+02 -0.61734512572E+02 -0.23537531391E+03  0.24448894493E+03  0.41800000000E+01 0.  1.
</event>
<event>
11    1  0.8299058E-009  0.1284129E+03  0.7561462E-02  0.1121235E+00
         22   -1    0    0    0    0  0.00000000000E+00  0.00000000000E+00  0.16366928649E+04  0.16366928649E+04  0.00000000000E+00 0.  1.
         22   -1    0    0    0    0 -0.00000000000E+00 -0.00000000000E+00 -0.33722035561E+02  0.33722035561E+02  0.00000000000E+00 0. -1.
         24    2    1    2    0    0  0.13343021443E+01  0.25963602387E+02  0.44583187895E+02  0.95731617169E+02  0.80628734777E+02 0.  0.
         25    2    1    2    0    0 -0.17239857598E+02  0.45689681093E+01  0.64644921614E+03  0.65868202882E+03  0.12508931965E+03 0.  0.
        -24    2    1    2    0    0  0.15905555454E+02 -0.30532570496E+02  0.91193842527E+03  0.91600125443E+03  0.79002418206E+02 0.  0.
        -11    1    3    3    0    0  0.35193967226E+02  0.29449433218E+02  0.40941561739E+02  0.61498747334E+02  0.00000000000E+00 0.  1.
         12    1    3    3    0    0 -0.33859665082E+02 -0.34858308314E+01  0.36416261554E+01  0.34232869835E+02  0.00000000000E+00 0. -1.
         11    1    5    5    0    0  0.22585726700E+02 -0.15654328061E+02  0.94865096757E+02  0.98765174127E+02  0.00000000000E+00 0. -1.
        -12    1    5    5    0    0 -0.66801712457E+01 -0.14878242435E+02  0.81707332851E+03  0.81723608031E+03  0.00000000000E+00 0.  1.
          5    1    4    4  501    0 -0.16744645962E+02  0.60874292063E+02  0.23469669875E+03  0.24307627487E+03  0.41800000000E+01 0.  1.
         -5    1    4    4    0  501 -0.49521163636E+00 -0.56305323954E+02  0.41175251739E+03  0.41560575395E+03  0.41800000000E+01 0.  1.
</event>
<event>
11    1  0.8299058E-009  0.1344836E+03  0.7561462E-02  0.1113880E+00
         22   -1    0    0    0    0  0.00000000000E+00  0.00000000000E+00  0.12266774892E+04  0.12266774892E+04  0.00000000000E+00 0.  1.
         22   -1    0    0    0    0 -0.00000000000E+00 -0.00000000000E+00 -0.11254951484E+03  0.11254951484E+03  0.00000000000E+00 0.  1.
        -24    2    1    2    0    0 -0.40911688901E+02 -0.25555097163E+01 -0.68494153416E+02  0.10703975506E+03  0.71314537041E+02 0.  0.
         25    2    1    2    0    0  0.10663631271E+01  0.36104862058E+02  0.16629757443E+03  0.21120514092E+03  0.12509208647E+03 0.  0.
         24    2    1    2    0    0  0.39845325774E+02 -0.33549352342E+02  0.10163245534E+04  0.10209821081E+04  0.82314386347E+02 0.  0.
        -13    1    5    5    0    0  0.34897149076E+02 -0.57658212361E+02  0.86959364661E+03  0.87220146222E+03  0.00000000000E+00 0.  1.
         14    1    5    5    0    0  0.49481766976E+01  0.24108860019E+02  0.14673090676E+03  0.14878064586E+03  0.00000000000E+00 0. -1.
         13    1    3    3    0    0 -0.53687739176E+02 -0.17420393256E+02 -0.30185563974E+02  0.64007903508E+02  0.00000000000E+00 0. -1.
        -14    1    3    3    0    0  0.12776050275E+02  0.14864883540E+02 -0.38308589442E+02  0.43031851556E+02  0.00000000000E+00 0.  1.
          5    1    4    4  501    0  0.36484800157E+02 -0.67968824110E+01  0.16735537320E+01  0.37384641701E+02  0.41800000000E+01 0. -1.
         -5    1    4    4    0  501 -0.35418437030E+02  0.42901744469E+02  0.16462402069E+03  0.17382049922E+03  0.41800000000E+01 0. -1.
</event>
<event>
11    1  0.1052481E-008  0.1605106E+03  0.7561462E-02  0.1086598E+00
         22   -1    0    0    0    0  0.00000000000E+00  0.00000000000E+00  0.44006297516E+03  0.44006297516E+03  0.00000000000E+00 0. -1.
         22   -1    0    0    0    0 -0.00000000000E+00 -0.00000000000E+00 -0.21528425726E+04  0.21528425726E+04  0.00000000000E+00 0. -1.
        -24    2    1    2    0    0 -0.13859883905E+02  0.14855978534E+02 -0.14355528972E+04  0.14381435146E+04  0.83856135357E+02 0.  0.
         25    2    1    2    0    0  0.11414148020E+03 -0.18979029442E+02 -0.69605648945E+03  0.71661296872E+03  0.12510407415E+03 0.  0.
         24    2    1    2    0    0 -0.10028159630E+03  0.41230509085E+01  0.41882978921E+03  0.43814906444E+03  0.80515912899E+02 0.  0.
        -13    1    5    5    0    0  0.96478380926E+01  0.48628755031E+01  0.97408503862E+01  0.14546907034E+02  0.00000000000E+00 0.  1.
         14    1    5    5    0    0 -0.10992943439E+03 -0.73982459456E+00  0.40908893883E+03  0.42360215740E+03  0.00000000000E+00 0. -1.
         11    1    3    3    0    0 -0.30025236179E+02  0.43813161078E+02 -0.87660429576E+03  0.87821193298E+03  0.00000000000E+00 0. -1.
        -12    1    3    3    0    0  0.16165352274E+02 -0.28957182545E+02 -0.55894860148E+03  0.55993158165E+03  0.00000000000E+00 0.  1.
          5    1    4    4  501    0  0.86441397634E+02 -0.31764947749E+02 -0.20714342113E+03  0.22673111045E+03  0.41800000000E+01 0. -1.
         -5    1    4    4    0  501  0.27700082567E+02  0.12785918307E+02 -0.48891306832E+03  0.48988185826E+03  0.41800000000E+01 0. -1.
</event>
<event>
11    1  0.8299058E-009  0.1474730E+03  0.7561462E-02  0.1099489E+00
         22   -1    0    0    0    0  0.00000000000E+00  0.00000000000E+00  0.21805241098E+04  0.21805241098E+04  0.00000000000E+00 0. -1.
         22   -1    0    0    0    0 -0.00000000000E+00 -0.00000000000E+00 -0.52457523725E+03  0.52457523725E+03  0.00000000000E+00 0. -1.
         24    2    1    2    0    0  0.25172148170E+01  0.38655560933E+02 -0.48258042056E+03  0.49090223268E+03  0.81243775024E+02 0.  0.
         25    2    1    2    0    0  0.43205043443E+02 -0.10048388863E+03  0.15390930429E+03  0.22649241272E+03  0.12508817459E+03 0.  0.
        -24    2    1    2    0    0 -0.45722258260E+02  0.61828327701E+02  0.19846199888E+04  0.19877047016E+04  0.79625460392E+02 0.  0.
        -11    1    3    3    0    0  0.19705014718E+02 -0.13671717560E+02 -0.57982015003E+02  0.62746454321E+02  0.00000000000E+00 0.  1.
         12    1    3    3    0    0 -0.17187799901E+02  0.52327278493E+02 -0.42459840555E+03  0.42815577835E+03  0.00000000000E+00 0. -1.
         11    1    5    5    0    0 -0.62643292336E+02  0.62879561452E+02  0.18314111876E+04  0.18335607324E+04  0.00000000000E+00 0. -1.
        -12    1    5    5    0    0  0.16921034076E+02 -0.10512337510E+01  0.15320880122E+03  0.15414396926E+03  0.00000000000E+00 0.  1.
          5    1    4    4  501    0  0.37088775443E+02  0.21693833735E+02  0.48789546940E+02  0.65146695822E+02  0.41800000000E+01 0.  1.
         -5    1    4    4    0  501  0.61162680006E+01 -0.12217772237E+03  0.10511975735E+03  0.16134571690E+03  0.41800000000E+01 0.  1.
</event>
<event>
11    1  0.8299058E-009  0.1634274E+03  0.7561462E-02  0.1083897E+00
         22   -1    0    0    0    0  0.00000000000E+00  0.00000000000E+00  0.11279661926E+03  0.11279661926E+03  0.00000000000E+00 0. -1.
         22   -1    0    0    0    0 -0.00000000000E+00 -0.00000000000E+00 -0.10689496344E+04  0.10689496344E+04  0.00000000000E+00 0.  1.
        -24    2    1    2    0    0  0.67923986029E+02 -0.78901618379E+02 -0.79239521451E+03  0.80316850562E+03  0.79689015368E+02 0.  0.
         25    2    1    2    0    0 -0.23316594533E+02  0.12393630452E+03 -0.20092153763E+03  0.26818206065E+03  0.12509309419E+03 0.  0.
         24    2    1    2    0    0 -0.44607391495E+02 -0.45034686140E+02  0.37163737030E+02  0.11039568737E+03  0.82390060729E+02 0.  0.
        -11    1    5    5    0    0 -0.56903832724E+01 -0.55204645274E+02 -0.19733387984E+00  0.55497497802E+02  0.00000000000E+00 0.  1.
         12    1    5    5    0    0 -0.38917008223E+02  0.10169959133E+02  0.37361070910E+02  0.54898189564E+02  0.00000000000E+00 0. -1.
         11    1    3    3    0    0 -0.85175174517E+01  0.54474501750E+01 -0.19797687195E+02  0.22229962555E+02  0.00000000000E+00 0. -1.
        -12    1    3    3    0    0  0.76441503481E+02 -0.84349068554E+02 -0.77259752732E+03  0.78093854306E+03  0.00000000000E+00 0.  1.
          5    1    4    4  501    0 -0.28666951623E+02 -0.14791369925E+02 -0.14263121201E+02  0.35517429046E+02  0.41800000000E+01 0.  1.
         -5    1    4    4    0  501  0.53503570897E+01  0.13872767444E+03 -0.18665841642E+03  0.23266463161E+03  0.41800000000E+01 0.  1.
</event>
<event>
11    1  0.8299058E-009  0.1401572E+03  0.7561462E-02  0.1107383E+00
         22   -1    0    0    0    0  0.00000000000E+00  0.00000000000E+00  0.14069833677E+03  0.14069833677E+03  0.00000000000E+00 0. -1.
         22   -1    0    0    0    0 -0.00000000000E+00 -0.00000000000E+00 -0.51875943416E+03  0.51875943416E+03  0.00000000000E+00 0.  1.
        -24    2    1    2    0    0 -0.44039597622E+01  0.61057016798E+02 -0.36611121906E+03  0.38013491336E+03  0.81962024589E+02 0.  0.
         25    2    1    2    0    0 -0.48180644625E+02 -0.79168799151E+02 -0.63045501911E+02  0.16796226021E+03  0.12509001666E+03 0.  0.
         24    2    1    2    0    0  0.52584604387E+02  0.18111782353E+02  0.51095623575E+02  0.11136059736E+03  0.81836682585E+02 0.  0.
        -13    1    5    5    0    0  0.33392347561E+02 -0.26963302479E+02  0.35086069517E+01  0.43062499683E+02  0.00000000000E+00 0.  1.
         14    1    5    5    0    0  0.19192256826E+02  0.45075084832E+02  0.47587016624E+02  0.68298097673E+02  0.00000000000E+00 0. -1.
         13    1    3    3    0    0  0.14074906545E+02  0.53971585758E+02 -0.11069673854E+03  0.12395484253E+03  0.00000000000E+00 0. -1.
        -14    1    3    3    0    0 -0.18478866307E+02  0.70854310402E+01 -0.25541448051E+03  0.25618007083E+03  0.00000000000E+00 0.  1.
          5    1    4    4  501    0  0.31116760783E+02 -0.61566585858E+01  0.14483671893E+02  0.35119886077E+02  0.41800000000E+01 0. -1.
         -5    1    4    4    0  501 -0.79297405408E+02 -0.73012140565E+02 -0.77529173804E+02  0.13284237413E+03  0.41800000000E+01 0. -1.
</event>
<event>
11    1  0.8299058E-009  0.1617235E+03  0.7561462E-02  0.1085467E+00
         22   -1    0    0    0    0  0.00000000000E+00  0.00000000000E+00  0.26241628312E+03  0.26241628312E+03  0.00000000000E+00 0.  1.
         22   -1    0    0    0    0 -0.00000000000E+00 -0.00000000000E+00 -0.90572978016E+03  0.90572978016E+03  0.00000000000E+00 0.  1.
        -24    2    1    2    0    0 -0.57501678592E+02  0.21721608428E+02 -0.80596951277E+03  0.81220928056E+03  0.79490808307E+02 0.  0.
         25    2    1    2    0    0  0.28044807391E+02  0.86095042688E+02  0.16861787798E+02  0.15533962283E+03  0.12508881219E+03 0.  0.
         24    2    1    2    0    0  0.29456871200E+02 -0.10781665112E+03  0.14579422792E+03  0.20059715990E+03  0.80567525376E+02 0.  0.
        -11    1    5    5    0    0  0.95624169169E+01 -0.10806655407E+03  0.14445335517E+03  0.18065600390E+03  0.00000000000E+00 0.  1.
         12    1    5    5    0    0  0.19894454283E+02  0.24990295531E+00  0.13408727519E+01  0.19941155996E+02  0.00000000000E+00 0. -1.
         11    1    3    3    0    0 -0.57562132133E+02  0.36113960952E+02 -0.38209288375E+03  0.38808837788E+03  0.00000000000E+00 0. -1.
        -12    1    3    3    0    0  0.60453541097E-01 -0.14392352524E+02 -0.42387662901E+03  0.42412090268E+03  0.00000000000E+00 0.  1.
          5    1    4    4  501    0  0.52338651100E+02  0.49167548866E+02 -0.40696589249E+02  0.82646639599E+02  0.41800000000E+01 0. -1.
         -5    1    4    4    0  501 -0.24293843708E+02  0.36927493822E+02  0.57558377047E+02  0.72692983227E+02  0.41800000000E+01 0. -1.
</event>
<event>
11    1  0.9393778E-009  0.1685324E+03  0.7561462E-02  0.1079316E+00
         22   -1    0    0    0    0  0.00000000000E+00  0.00000000000E+00  0.30938636459E+04  0.30938636459E+04  0.00000000000E+00 0.  1.
         22   -1    0    0    0    0 -0.00000000000E+00 -0.00000000000E+00 -0.61088983017E+03  0.61088983017E+03  0.00000000000E+00 0. -1.
        -24    2    1    2    0    0  0.54460348824E+02  0.59721087582E+02 -0.49975775541E+03  0.51257986598E+03  0.80297988902E+02 0.  0.
         25    2    1    2    0    0  0.46646147655E+02 -0.11076379774E+03 -0.30117776531E+02  0.17607271611E+03  0.12510011557E+03 0.  0.
         24    2    1    2    0    0 -0.10110649648E+03  0.51042710155E+02  0.30128493477E+04  0.30161008940E+04  0.82313601501E+02 0.  0.
        -11    1    5    5    0    0 -0.85548365428E+02  0.27109671159E+02  0.27883853506E+04  0.27898290845E+04  0.00000000000E+00 0.  1.
         12    1    5    5    0    0 -0.15558131051E+02  0.23933038996E+02  0.22446399706E+03  0.22627180950E+03  0.00000000000E+00 0. -1.
         13    1    3    3    0    0  0.45018113215E+02  0.46503887829E+02 -0.48861183962E+03  0.49288007863E+03  0.00000000000E+00 0. -1.
        -14    1    3    3    0    0  0.94422356090E+01  0.13217199753E+02 -0.11145915789E+02  0.19699787343E+02  0.00000000000E+00 0.  1.
          5    1    4    4  501    0  0.73259563623E+02 -0.17693493672E+02 -0.33666792339E+01  0.75556801876E+02  0.41800000000E+01 0.  1.
         -5    1    4    4    0  501 -0.26613415968E+02 -0.93070304065E+02 -0.26751097298E+02  0.10051591424E+03  0.41800000000E+01 0.  1.
</event>
<event>
11    1  0.8299058E-009  0.3985237E+03  0.7561462E-02  0.9654124E-01
         22   -1    0    0    0    0  0.00000000000E+00  0.00000000000E+00  0.17124500407E+04  0.17124500407E+04  0.00000000000E+00 0.  1.
         22   -1    0    0    0    0 -0.00000000000E+00 -0.00000000000E+00 -0.16013695937E+04  0.16013695937E+04  0.00000000000E+00 0.  1.
         24    2    1    2    0    0  0.30391487775E+03 -0.22650438340E+03 -0.15440725590E+04  0.15920858976E+04  0.83120090336E+02 0.  0.
         25    2    1    2    0    0 -0.30889524289E+03  0.15729197347E+03  0.13192113923E+04  0.13697166947E+04  0.12509232621E+03 0.  0.
        -24    2    1    2    0    0  0.49803651406E+01  0.69212409932E+02  0.33594161377E+03  0.35201704212E+03  0.79019417544E+02 0.  0.
        -13    1    3    3    0    0  0.27353120194E+03 -0.19359659429E+03 -0.12298876965E+04  0.12747245608E+04  0.00000000000E+00 0.  1.
         14    1    3    3    0    0  0.30383675802E+02 -0.32907789115E+02 -0.31418486244E+03  0.31736133685E+03  0.00000000000E+00 0. -1.
         13    1    5    5    0    0  0.24304723597E+01  0.86062441460E+02  0.30206520712E+03  0.31409559115E+03  0.00000000000E+00 0. -1.
        -14    1    5    5    0    0  0.25498927809E+01 -0.16850031528E+02  0.33876406652E+02  0.37921450966E+02  0.00000000000E+00 0.  1.
          5    1    4    4  501    0 -0.31418692505E+03  0.14978440877E+03  0.11834359140E+04  0.12335667100E+04  0.41800000000E+01 0.  1.
         -5    1    4    4    0  501  0.52916821578E+01  0.75075647002E+01  0.13577547828E+03  0.13614998468E+03  0.41800000000E+01 0.  1.
</event>
<event>
11    1  0.8299058E-009  0.3412650E+03  0.7561462E-02  0.9840966E-01
         22   -1    0    0    0    0  0.00000000000E+00  0.00000000000E+00  0.31628901492E+03  0.31628901492E+03  0.00000000000E+00 0.  1.
         22   -1    0    0    0    0 -0.00000000000E+00 -0.00000000000E+00 -0.63976614080E+03  0.63976614080E+03  0.00000000000E+00 0.  1.
         24    2    1    2    0    0  0.10306465166E+03  0.29853171012E+03 -0.33600969856E+03  0.46798808714E+03  0.79792404461E+02 0.  0.
         25    2    1    2    0    0 -0.97024320642E+02 -0.30596447677E+03 -0.90794914975E+02  0.35625788006E+03  0.12509188895E+03 0.  0.
        -24    2    1    2    0    0 -0.60403310174E+01  0.74327666483E+01  0.10332748765E+03  0.13180918852E+03  0.81273371121E+02 0.  0.
        -11    1    3    3    0    0  0.87535143091E+02  0.27646858647E+03 -0.33182150875E+03  0.44068446109E+03  0.00000000000E+00 0.  1.
         12    1    3    3    0    0  0.15529508568E+02  0.22063123647E+02 -0.41881898156E+01  0.27303626048E+02  0.00000000000E+00 0. -1.
         11    1    5    5    0    0 -0.13835525306E+02 -0.32212226662E+02  0.23106207526E+02  0.41987452093E+02  0.00000000000E+00 0. -1.
        -12    1    5    5    0    0  0.77951942885E+01  0.39644993310E+02  0.80221280129E+02  0.89821736423E+02  0.00000000000E+00 0.  1.
          5    1    4    4  501    0 -0.28072377635E+02 -0.25451707262E+03 -0.85395139466E+02  0.26995703526E+03  0.41800000000E+01 0.  1.
         -5    1    4    4    0  501 -0.68951943006E+02 -0.51447404143E+02 -0.53997755085E+01  0.86300844799E+02  0.41800000000E+01 0.  1.
</event>
<event>
11    1  0.8299058E-009  0.1955750E+03  0.7561462E-02  0.1057698E+00
         22   -1    0    0    0    0  0.00000000000E+00  0.00000000000E+00  0.40089186957E+03  0.40089186957E+03  0.00000000000E+00 0. -1.
         22   -1    0    0    0    0 -0.00000000000E+00 -0.00000000000E+00 -0.11659204401E+04  0.11659204401E+04  0.00000000000E+00 0.  1.
         24    2    1    2    0    0 -0.11181621214E+02  0.74725942613E+01 -0.84745960042E+03  0.85139990812E+03  0.80704156523E+02 0.  0.
         25    2    1    2    0    0  0.15578093292E+03 -0.45631855210E+02 -0.26160894308E+03  0.33232260959E+03  0.12509641272E+03 0.  0.
        -24    2    1    2    0    0 -0.14459931170E+03  0.38159260949E+02  0.34403997299E+03  0.38308979194E+03  0.77647894576E+02 0.  0.
        -13    1    3    3    0    0  0.16534845079E+01 -0.29804691332E+02 -0.60668139418E+03  0.60741531730E+03  0.00000000000E+00 0.  1.
         14    1    3    3    0    0 -0.12835105722E+02  0.37277285594E+02 -0.24077820624E+03  0.24398459082E+03  0.00000000000E+00 0. -1.
         11    1    5    5    0    0 -0.35095823598E+02  0.45894681331E+02  0.13859459584E+03  0.15015492201E+03  0.00000000000E+00 0. -1.
        -12    1    5    5    0    0 -0.10950348811E+03 -0.77354203823E+01  0.20544537715E+03  0.23293486993E+03  0.00000000000E+00 0.  1.
          5    1    4    4  501    0  0.91447279171E+01 -0.23385948517E+02 -0.13468158593E+03  0.13706615420E+03  0.41800000000E+01 0.  1.
         -5    1    4    4    0  501  0.14663620500E+03 -0.22245906693E+02 -0.12692735715E+03  0.19525645540E+03  0.41800000000E+01 0.  1.
</event>
<event>
11    1  0.8299058E-009  0.2235882E+03  0.7561462E-02  0.1038993E+00
         22   -1    0    0    0    0  0.00000000000E+00  0.00000000000E+00  0.62992094595E+03  0.62992094595E+03  0.00000000000E+00 0.  1.
         22   -1    0    0    0    0 -0.00000000000E+00 -0.00000000000E+00 -0.52253464398E+03  0.52253464398E+03  0.00000000000E+00 0. -1.
         24    2    1    2    0    0 -0.36823265523E+02  0.31570715191E+02 -0.35800181987E+03  0.36972068221E+03  0.78583820751E+02 0.  0.
         25    2    1    2    0    0  0.10902073755E+03 -0.19640223491E+03 -0.20535562106E+02  0.25793222551E+03  0.12509182449E+03 0.  0.
        -24    2    1    2    0    0 -0.72197472023E+02  0.16483151972E+03  0.48592368395E+03  0.52480268220E+03  0.83151210219E+02 0.  0.
        -13    1    3    3    0    0 -0.22517822277E+02 -0.19425177937E+02 -0.21829033175E+03  0.22030673796E+03  0.00000000000E+00 0.  1.
         14    1    3    3    0    0 -0.14305443246E+02  0.50995893128E+02 -0.13971148812E+03  0.14941394425E+03  0.00000000000E+00 0. -1.
         13    1    5    5    0    0 -0.97947195867E+01 -0.12372635998E+01  0.94952241033E+02  0.95464105454E+02  0.00000000000E+00 0. -1.
        -14    1    5    5    0    0 -0.62402752437E+02  0.16606878332E+03  0.39097144291E+03  0.42933857674E+03  0.00000000000E+00 0.  1.
          5    1    4    4  501    0  0.38933148376E+02 -0.11726268812E+02 -0.42711577106E+02  0.59118919489E+02  0.41800000000E+01 0. -1.
         -5    1    4    4    0  501  0.70087589171E+02 -0.18467596610E+03  0.22176014999E+02  0.19881330603E+03  0.41800000000E+01 0. -1.
</event>
<event>
11    1  0.8299058E-009  0.1375752E+03  0.7561462E-02  0.1110297E+00
         22   -1    0    0    0    0  0.00000000000E+00  0.00000000000E+00  0.31586460442E+02  0.31586460442E+02  0.00000000000E+00 0.  1.
         22   -1    0    0    0    0 -0.00000000000E+00 -0.00000000000E+00 -0.29661094516E+04  0.29661094516E+04  0.00000000000E+00 0. -1.
        -24    2    1    2    0    0 -0.10962536099E+02 -0.13136703031E+01 -0.25003829990E+04  0.25016823741E+04  0.79860231038E+02 0.  0.
         25    2    1    2    0    0 -0.32488681548E+02 -0.41899092872E+02 -0.22680329440E+03  0.26438302769E+03  0.12509037760E+03 0.  0.
         24    2    1    2    0    0  0.43451217646E+02  0.43212763175E+02 -0.20733669776E+03  0.23163051021E+03  0.83119406913E+02 0.  0.
        -11    1    5    5    0    0  0.19229950066E+02  0.47334513490E+02 -0.46997605779E+02  0.69419896974E+02  0.00000000000E+00 0.  1.
         12    1    5    5    0    0  0.24221267581E+02 -0.41217503156E+01 -0.16033909198E+03  0.16221061324E+03  0.00000000000E+00 0. -1.
         11    1    3    3    0    0 -0.29155531691E+02  0.15391588769E+02 -0.22114103563E+04  0.22116561012E+04  0.00000000000E+00 0. -1.
        -12    1    3    3    0    0  0.18192995592E+02 -0.16705259072E+02 -0.28897264270E+03  0.29002627294E+03  0.00000000000E+00 0.  1.
          5    1    4    4  501    0  0.43280148616E+02  0.85943221667E+01 -0.65013055847E+02  0.78684200881E+02  0.41800000000E+01 0.  1.
         -5    1    4    4    0  501 -0.75768830164E+02 -0.50493415038E+02 -0.16179023855E+03  0.18569882681E+03  0.41800000000E+01 0.  1.
</event>
<event>
11    1  0.8299058E-009  0.1488248E+03  0.7561462E-02  0.1098086E+00
         22   -1    0    0    0    0  0.00000000000E+00  0.00000000000E+00  0.79177678573E+03  0.79177678573E+03  0.00000000000E+00 0. -1.
         22   -1    0    0    0    0 -0.00000000000E+00 -0.00000000000E+00 -0.21348310206E+03  0.21348310206E+03  0.00000000000E+00 0. -1.
        -24    2    1    2    0    0  0.39769360952E+02 -0.61497030224E+02 -0.12449547230E+03  0.16580022909E+03  0.81407042364E+02 0.  0.
         25    2    1    2    0    0  0.40857686163E+02  0.35182675272E+02  0.10133293422E+02  0.13658955287E+03  0.12508737411E+03 0.  0.
         24    2    1    2    0    0 -0.80627047115E+02  0.26314354952E+02  0.69265586255E+03  0.70287010583E+03  0.84030207324E+02 0.  0.
        -11    1    5    5    0    0 -0.10723276541E+02  0.30526655466E+02  0.81074100486E+02  0.87291896092E+02  0.00000000000E+00 0.  1.
         12    1    5    5    0    0 -0.69903770574E+02 -0.42123005139E+01  0.61158176206E+03  0.61557820974E+03  0.00000000000E+00 0. -1.
         11    1    3    3    0    0  0.60384487430E+02 -0.33859012365E+02 -0.10618711598E+03  0.12676128210E+03  0.00000000000E+00 0. -1.
        -12    1    3    3    0    0 -0.20615126477E+02 -0.27638017859E+02 -0.18308356326E+02  0.39038946992E+02  0.00000000000E+00 0.  1.
          5    1    4    4  501    0  0.27223856424E+02 -0.16555381230E+02 -0.47813022113E+02  0.57608823020E+02  0.41800000000E+01 0. -1.
         -5    1    4    4    0  501  0.13633829739E+02  0.51738056502E+02  0.57946315535E+02  0.78980729852E+02  0.41800000000E+01 0. -1.
</event>
<event>
11    1  0.8299058E-009  0.2263925E+03  0.7561462E-02  0.1037285E+00
         22   -1    0    0    0    0  0.00000000000E+00  0.00000000000E+00  0.84713303905E+03  0.84713303905E+03  0.00000000000E+00 0.  1.
         22   -1    0    0    0    0 -0.00000000000E+00 -0.00000000000E+00 -0.15046757648E+03  0.15046757648E+03  0.00000000000E+00 0. -1.
        -24    2    1    2    0    0  0.44629039859E+02  0.24743964128E+01 -0.16784635389E+02  0.93828405087E+02  0.80772345390E+02 0.  0.
         25    2    1    2    0    0  0.52858579352E+02 -0.16802209307E+03  0.69569806443E+02  0.22696478460E+03  0.12509037655E+03 0.  0.
         24    2    1    2    0    0 -0.97487619211E+02  0.16554769666E+03  0.64388029152E+03  0.67680742585E+03  0.81096153446E+02 0.  0.
        -11    1    5    5    0    0 -0.10391585828E+03  0.10668453707E+03  0.44148619446E+03  0.46592934652E+03  0.00000000000E+00 0.  1.
         12    1    5    5    0    0  0.64282390709E+01  0.58863159588E+02  0.20239409706E+03  0.21087807932E+03  0.00000000000E+00 0. -1.
         11    1    3    3    0    0  0.63674186423E+00  0.30401711805E+02  0.13815564979E+02  0.33399690965E+02  0.00000000000E+00 0. -1.
        -12    1    3    3    0    0  0.43992297994E+02 -0.27927315392E+02 -0.30600200369E+02  0.60428714122E+02  0.00000000000E+00 0.  1.
          5    1    4    4  501    0 -0.39905417137E+01  0.15989941394E+02 -0.86199546900E+01  0.19062493746E+02  0.41800000000E+01 0. -1.
         -5    1    4    4    0  501  0.56849121066E+02 -0.18401203447E+03  0.78189761133E+02  0.20790229085E+03  0.41800000000E+01 0. -1.
</event>
<event>
11    1  0.8299058E-009  0.1560473E+03  0.7561462E-02  0.1090855E+00
         22   -1    0    0    0    0  0.00000000000E+00  0.00000000000E+00  0.96445364938E+02  0.96445364938E+02  0.00000000000E+00 0. -1.
         22   -1    0    0    0    0 -0.00000000000E+00 -0.00000000000E+00 -0.60168710303E+03  0.60168710303E+03  0.00000000000E+00 0.  1.
         24    2    1    2    0    0 -0.97957277101E+02  0.13262556786E+02 -0.26774298719E+03  0.29788334485E+03  0.85303319976E+02 0.  0.
         25    2    1    2    0    0  0.81767175968E+02 -0.30539337474E+02 -0.27014801403E+03  0.31022444796E+03  0.12506292988E+03 0.  0.
        -24    2    1    2    0    0  0.16190101133E+02  0.17276780688E+02  0.32649263123E+02  0.90024675164E+02  0.80485161553E+02 0.  0.
        -11    1    3    3    0    0 -0.96927983020E+02  0.37768563706E+02 -0.19344835494E+03  0.21964463191E+03  0.00000000000E+00 0.  1.
         12    1    3    3    0    0 -0.10292940815E+01 -0.24506006921E+02 -0.74294632250E+02  0.78238712941E+02  0.00000000000E+00 0. -1.
         11    1    5    5    0    0 -0.15712040848E+00 -0.21919638328E+02  0.41232717851E+02  0.46697240311E+02  0.00000000000E+00 0. -1.
        -12    1    5    5    0    0  0.16347221542E+02  0.39196419016E+02 -0.85834547280E+01  0.43327434853E+02  0.00000000000E+00 0.  1.
          5    1    4    4  501    0  0.76264859143E+01 -0.65858060839E+02 -0.15588137486E+03  0.16944592911E+03  0.41800000000E+01 0.  1.
         -5    1    4    4    0  501  0.74140690054E+02  0.35318723365E+02 -0.11426663917E+03  0.14077851885E+03  0.41800000000E+01 0.  1.
</event>
<event>
11    1  0.8299058E-009  0.2321703E+03  0.7561462E-02  0.1033851E+00
         22   -1    0    0    0    0  0.00000000000E+00  0.00000000000E+00  0.60605062633E+02  0.60605062633E+02  0.00000000000E+00 0. -1.
         22   -1    0    0    0    0 -0.00000000000E+00 -0.00000000000E+00 -0.12992499737E+04  0.12992499737E+04  0.00000000000E+00 0.  1.
         24    2    1    2    0    0 -0.45951214807E+02  0.26189515567E+02 -0.27985839660E+03  0.29558151593E+03  0.79058873909E+02 0.  0.
         25    2    1    2    0    0 -0.16195034563E+03 -0.55604679590E+02 -0.63856344285E+03  0.67285269441E+03  0.12509069905E+03 0.  0.
        -24    2    1    2    0    0  0.20790156044E+03  0.29415164023E+02 -0.32022307158E+03  0.39142082595E+03  0.81111877762E+02 0.  0.
        -13    1    3    3    0    0  0.15929305307E+02  0.77978865577E+01 -0.14486248661E+03  0.14594413256E+03  0.00000000000E+00 0.  1.
         14    1    3    3    0    0 -0.61880520114E+02  0.18391629009E+02 -0.13499590999E+03  0.14963738337E+03  0.00000000000E+00 0. -1.
         13    1    5    5    0    0  0.19069971172E+03  0.24132791072E+02 -0.32015346989E+03  0.37342605150E+03  0.00000000000E+00 0. -1.
        -14    1    5    5    0    0  0.17201848712E+02  0.52823729510E+01 -0.69601682169E-01  0.17994774449E+02  0.00000000000E+00 0.  1.
          5    1    4    4  501    0 -0.15729683852E+03 -0.85061217520E+02 -0.58066753924E+03  0.60759358922E+03  0.41800000000E+01 0.  1.
         -5    1    4    4    0  501 -0.46535071080E+01  0.29456537930E+02 -0.57895903607E+02  0.65259105186E+02  0.41800000000E+01 0.  1.
</event>
<event>
11    1  0.8741371E-009  0.1986789E+03  0.7561462E-02  0.1055462E+00
         22   -1    0    0    0    0  0.00000000000E+00  0.00000000000E+00  0.89685594397E+03  0.89685594397E+03  0.00000000000E+00 0. -1.
         22   -1    0    0    0    0 -0.00000000000E+00 -0.00000000000E+00 -0.24020925031E+04  0.24020925031E+04  0.00000000000E+00 0.  1.
         24    2    1    2    0    0  0.20953085682E+02  0.63102201360E+01 -0.19607477620E+04  0.19624165918E+04  0.77898925114E+02 0.  0.
         25    2    1    2    0    0  0.10295486795E+03  0.86417009573E+02 -0.41210981083E+03  0.45116718598E+03  0.12509887745E+03 0.  0.
        -24    2    1    2    0    0 -0.12390795363E+03 -0.92727229709E+02  0.86762101374E+03  0.88536466935E+03  0.84574547841E+02 0.  0.
        -13    1    3    3    0    0 -0.41595526253E+01 -0.21973634451E+02 -0.14847556820E+04  0.14849240983E+04  0.00000000000E+00 0.  1.
         14    1    3    3    0    0  0.25112638307E+02  0.28283854587E+02 -0.47599208006E+03  0.47749249346E+03  0.00000000000E+00 0. -1.
         13    1    5    5    0    0 -0.96433126744E+02 -0.28994859924E+02  0.62313412656E+03  0.63121802059E+03  0.00000000000E+00 0. -1.
        -14    1    5    5    0    0 -0.27474826886E+02 -0.63732369785E+02  0.24448688718E+03  0.25414664876E+03  0.00000000000E+00 0.  1.
          5    1    4    4  501    0  0.10761182299E+03  0.10435926934E+03 -0.27937308405E+03  0.31707720517E+03  0.41800000000E+01 0.  1.
         -5    1    4    4    0  501 -0.46569550430E+01 -0.17942259771E+02 -0.13273672678E+03  0.13408998081E+03  0.41800000000E+01 0.  1.
</event>
<event>
11    1  0.8299058E-009  0.1356288E+03  0.7561462E-02  0.1112540E+00
         22   -1    0    0    0    0  0.00000000000E+00  0.00000000000E+00  0.69468852131E+03  0.69468852131E+03  0.00000000000E+00 0. -1.
         22   -1    0    0    0    0 -0.00000000000E+00 -0.00000000000E+00 -0.20777844841E+03  0.20777844841E+03  0.00000000000E+00 0. -1.
         24    2    1    2    0    0  0.66289784380E+01 -0.10909376313E+02 -0.15827575652E+03  0.17783305333E+03  0.80065110445E+02 0.  0.
         25    2    1    2    0    0 -0.40201807205E+02  0.49437475328E+02  0.10302852154E+03  0.17413183131E+03  0.12508704631E+03 0.  0.
        -24    2    1    2    0    0  0.33572828767E+02 -0.38528099015E+02  0.54215730788E+03  0.55050208508E+03  0.80662568464E+02 0.  0.
        -11    1    3    3    0    0  0.29466798988E+01  0.34903956470E+02 -0.72562572981E+02  0.80574785742E+02  0.00000000000E+00 0.  1.
         12    1    3    3    0    0  0.36822985392E+01 -0.45813332784E+02 -0.85713183535E+02  0.97258267592E+02  0.00000000000E+00 0. -1.
         11    1    5    5    0    0  0.59759958974E+02 -0.25776178630E+02  0.33018246248E+03  0.33653547006E+03  0.00000000000E+00 0. -1.
        -12    1    5    5    0    0 -0.26187130207E+02 -0.12751920385E+02  0.21197484540E+03  0.21396661502E+03  0.00000000000E+00 0.  1.
          5    1    4    4  501    0 -0.78474563628E+02  0.17748858183E+02  0.93400282536E+02  0.12334652116E+03  0.41800000000E+01 0. -1.
         -5    1    4    4    0  501  0.38272756423E+02  0.31688617145E+02  0.96282390006E+01  0.50785310150E+02  0.41800000000E+01 0. -1.
</event>
<event>
11    1  0.8299058E-009  0.1549870E+03  0.7561462E-02  0.1091889E+00
         22   -1    0    0    0    0  0.00000000000E+00  0.00000000000E+00  0.42858462278E+03  0.42858462278E+03  0.00000000000E+00 0. -1.
         22   -1    0    0    0    0 -0.00000000000E+00 -0.00000000000E+00 -0.45548992832E+03  0.45548992832E+03  0.00000000000E+00 0.  1.
         24    2    1    2    0    0 -0.35392228857E+02 -0.10110794880E+03 -0.35739103978E+03  0.38171372942E+03  0.80632429813E+02 0.  0.
         25    2    1    2    0    0  0.33411990220E+02  0.84782969890E+01 -0.19610466162E+02  0.13122542620E+03  0.12508916615E+03 0.  0.
        -24    2    1    2    0    0  0.19802386372E+01  0.92629651816E+02  0.35009620041E+03  0.37113539548E+03  0.81178559317E+02 0.  0.
        -11    1    3    3    0    0 -0.12526410496E+02 -0.10901666000E+03 -0.29951126575E+03  0.31898047186E+03  0.00000000000E+00 0.  1.
         12    1    3    3    0    0 -0.22865818361E+02  0.79087111972E+01 -0.57879774029E+02  0.62733257558E+02  0.00000000000E+00 0. -1.
         11    1    5    5    0    0  0.22540778704E+02  0.57394157819E+02  0.30124096942E+03  0.30748706918E+03  0.00000000000E+00 0. -1.
        -12    1    5    5    0    0 -0.20560540066E+02  0.35235493997E+02  0.48855230990E+02  0.63648326295E+02  0.00000000000E+00 0.  1.
          5    1    4    4  501    0 -0.34686786260E+02 -0.33719147439E+02  0.35401490515E+00  0.48556686168E+02  0.41800000000E+01 0. -1.
         -5    1    4    4    0  501  0.68098776480E+02  0.42197444428E+02 -0.19964481068E+02  0.82668740033E+02  0.41800000000E+01 0. -1.
</event>
<event>
11    1  0.8299058E-009  0.1566783E+03  0.7561462E-02  0.1090244E+00
         22   -1    0    0    0    0  0.00000000000E+00  0.00000000000E+00  0.11187019934E+03  0.11187019934E+03  0.00000000000E+00 0.  1.
         22   -1    0    0    0    0 -0.00000000000E+00 -0.00000000000E+00 -0.11818368967E+04  0.11818368967E+04  0.00000000000E+00 0.  1.
        -24    2    1    2    0    0 -0.35513739554E+02  0.23882582179E+02 -0.93774554875E+03  0.94222606978E+03  0.81188970579E+02 0.  0.
         25    2    1    2    0    0 -0.56757031963E+02 -0.60173073767E+02 -0.16226369815E+03  0.22093297595E+03  0.12505883670E+03 0.  0.
         24    2    1    2    0    0  0.92270771517E+02  0.36290491587E+02  0.30042549578E+02  0.13054805028E+03  0.79431376606E+02 0.  0.
        -13    1    5    5    0    0  0.15057849667E+02  0.42504025579E+02  0.27960172354E+02  0.53057537307E+02  0.00000000000E+00 0.  1.
         14    1    5    5    0    0  0.77212921850E+02 -0.62135339913E+01  0.20823772243E+01  0.77490512969E+02  0.00000000000E+00 0. -1.
         13    1    3    3    0    0  0.25020354234E+02  0.51472963267E+01 -0.38812942610E+03  0.38896910442E+03  0.00000000000E+00 0. -1.
        -14    1    3    3    0    0 -0.60534093789E+02  0.18735285853E+02 -0.54961612264E+03  0.55325696536E+03  0.00000000000E+00 0.  1.
          5    1    4    4  501    0 -0.11033725963E+02 -0.13163318741E+02  0.20291331758E+02  0.26911458775E+02  0.41800000000E+01 0. -1.
         -5    1    4    4    0  501 -0.45723306000E+02 -0.47009755025E+02 -0.18255502991E+03  0.19402151717E+03  0.41800000000E+01 0. -1.
</event>
<event>
11    1  0.8299058E-009  0.1389936E+03  0.7561462E-02  0.1108687E+00
         22   -1    0    0    0    0  0.00000000000E+00  0.00000000000E+00  0.15540590481E+03  0.15540590481E+03  0.00000000000E+00 0. -1.
         22   -1    0    0    0    0 -0.00000000000E+00 -0.00000000000E+00 -0.62033261952E+03  0.62033261952E+03  0.00000000000E+00 0. -1.
         24    2    1    2    0    0 -0.33439114302E+02 -0.54610683940E+02 -0.49958688012E+03  0.50995723392E+03  0.79804940215E+02 0.  0.
         25    2    1    2    0    0  0.22683633272E+02  0.24264937498E+02 -0.57328314729E+02  0.14155682349E+03  0.12509382157E+03 0.  0.
        -24    2    1    2    0    0  0.10755481030E+02  0.30345746442E+02  0.91988480138E+02  0.12422446693E+03  0.77027871615E+02 0.  0.
        -13    1    3    3    0    0  0.13251307889E+02 -0.22536065273E+02 -0.46518553043E+02  0.53361476516E+02  0.00000000000E+00 0.  1.
         14    1    3    3    0    0 -0.46690422191E+02 -0.32074618666E+02 -0.45306832707E+03  0.45659575741E+03  0.00000000000E+00 0. -1.
         13    1    5    5    0    0  0.16623568162E+02  0.45628163235E+02  0.95809774858E+02  0.10741408314E+03  0.00000000000E+00 0. -1.
        -14    1    5    5    0    0 -0.58680871317E+01 -0.15282416794E+02 -0.38212947202E+01  0.16810383784E+02  0.00000000000E+00 0.  1.
          5    1    4    4  501    0 -0.21267312104E+02  0.44606838187E+02  0.17273080337E+02  0.52515714615E+02  0.41800000000E+01 0. -1.
         -5    1    4    4    0  501  0.43950945376E+02 -0.20341900689E+02 -0.74601395066E+02  0.89041108870E+02  0.41800000000E+01 0. -1.
</event>
<event>
11    1  0.8299058E-009  0.1922895E+03  0.7561462E-02  0.1060114E+00
         22   -1    0    0    0    0  0.00000000000E+00  0.00000000000E+00  0.81855812225E+02  0.81855812225E+02  0.00000000000E+00 0. -1.
         22   -1    0    0    0    0 -0.00000000000E+00 -0.00000000000E+00 -0.99601884819E+03  0.99601884819E+03  0.00000000000E+00 0. -1.
         24    2    1    2    0    0 -0.15928305134E+03  0.17633160179E+02 -0.40350193714E+03  0.44193449600E+03  0.82524340046E+02 0.  0.
         25    2    1    2    0    0  0.13490965310E+03  0.89558628616E+01 -0.51149406960E+03  0.54364758356E+03  0.12508273221E+03 0.  0.
        -24    2    1    2    0    0  0.24373398238E+02 -0.26589023041E+02  0.83297077738E+00  0.92292580851E+02  0.84948148607E+02 0.  0.
        -13    1    3    3    0    0 -0.13713015691E+02 -0.69396691931E+01 -0.13199554938E+03  0.13288728632E+03  0.00000000000E+00 0.  1.
         14    1    3    3    0    0 -0.14557003565E+03  0.24572829373E+02 -0.27150638776E+03  0.30904720968E+03  0.00000000000E+00 0. -1.
         13    1    5    5    0    0  0.18209321298E+02 -0.57574008960E+02  0.41461453039E+01  0.60527154325E+02  0.00000000000E+00 0. -1.
        -14    1    5    5    0    0  0.61640769396E+01  0.30984985919E+02 -0.33131745265E+01  0.31765426525E+02  0.00000000000E+00 0.  1.
          5    1    4    4  501    0 -0.12134156422E+02  0.31820977706E+02 -0.75294222617E+02  0.82743608416E+02  0.41800000000E+01 0. -1.
         -5    1    4    4    0  501  0.14704380952E+03 -0.22865114845E+02 -0.43619984699E+03  0.46090397515E+03  0.41800000000E+01 0. -1.
</event>
<event>
11    1  0.8299058E-009  0.1320023E+03  0.7561462E-02  0.1116833E+00
         22   -1    0    0    0    0  0.00000000000E+00  0.00000000000E+00  0.16881949854E+04  0.16881949854E+04  0.00000000000E+00 0.  1.
         22   -1    0    0    0    0 -0.00000000000E+00 -0.00000000000E+00 -0.22144961449E+03  0.22144961449E+03  0.00000000000E+00 0. -1.
         24    2    1    2    0    0 -0.14763545200E+02 -0.41186428689E+02 -0.16571900537E+03  0.18951850600E+03  0.80871448607E+02 0.  0.
         25    2    1    2    0    0 -0.87312730090E+01  0.33035207567E+02  0.55780650864E+02  0.14117136439E+03  0.12510121121E+03 0.  0.
        -24    2    1    2    0    0  0.23494818209E+02  0.81512211225E+01  0.15766837255E+04  0.15789547295E+04  0.80919830287E+02 0.  0.
        -11    1    3    3    0    0 -0.24983090247E+02  0.11407882019E+02 -0.19198538372E+02  0.33509378479E+02  0.00000000000E+00 0.  1.
         12    1    3    3    0    0  0.10219545047E+02 -0.52594310708E+02 -0.14652046700E+03  0.15600912752E+03  0.00000000000E+00 0. -1.
         11    1    5    5    0    0  0.35233815471E+02 -0.23663868169E+02  0.52080644969E+03  0.52253302140E+03  0.00000000000E+00 0. -1.
        -12    1    5    5    0    0 -0.11738997262E+02  0.31815089292E+02  0.10558772758E+04  0.10564217082E+04  0.00000000000E+00 0.  1.
          5    1    4    4  501    0 -0.46872090117E+02  0.64074730613E+02  0.42099978659E+02  0.89958015419E+02  0.41800000000E+01 0. -1.
         -5    1    4    4    0  501  0.38140817108E+02 -0.31039523047E+02  0.13680672205E+02  0.51213348969E+02  0.41800000000E+01 0. -1.
</event>
<event>
11    1  0.8299058E-009  0.2173119E+03  0.7561462E-02  0.1042914E+00
         22   -1    0    0    0    0  0.00000000000E+00  0.00000000000E+00  0.62607446917E+03  0.62607446917E+03  0.00000000000E+00 0.  1.
         22   -1    0    0    0    0 -0.00000000000E+00 -0.00000000000E+00 -0.48370403764E+03  0.48370403764E+03  0.00000000000E+00 0. -1.
        -24    2    1    2    0    0 -0.12371367644E+03  0.11575256927E+03 -0.32015321900E+03  0.37091668491E+03  0.79858452774E+02 0.  0.
         25    2    1    2    0    0  0.18335989851E+03 -0.11997111237E+03 -0.14463212659E+02  0.25272507617E+03  0.12508740713E+03 0.  0.
         24    2    1    2    0    0 -0.59646222076E+02  0.42185430907E+01  0.47698686319E+03  0.48613674573E+03  0.72367119423E+02 0.  0.
        -13    1    5    5    0    0 -0.46308293716E+02  0.19484102420E+02  0.44774884658E+03  0.45055867313E+03  0.00000000000E+00 0.  1.
         14    1    5    5    0    0 -0.13337928360E+02 -0.15265559329E+02  0.29238016607E+02  0.35578072597E+02  0.00000000000E+00 0. -1.
         13    1    3    3    0    0 -0.39617137110E+02  0.70003776596E+02 -0.21054089967E+03  0.22538304445E+03  0.00000000000E+00 0. -1.
        -14    1    3    3    0    0 -0.84096539326E+02  0.45748792679E+02 -0.10961231933E+03  0.14553364047E+03  0.00000000000E+00 0.  1.
          5    1    4    4  501    0  0.11616369278E+03 -0.13998235141E+03 -0.13951385864E+02  0.18248609754E+03  0.41800000000E+01 0. -1.
         -5    1    4    4    0  501  0.67196205728E+02  0.20011239049E+02 -0.51182679510E+00  0.70238978632E+02  0.41800000000E+01 0. -1.
</event>
<event>
11    1  0.8299058E-009  0.5266211E+03  0.7561462E-02  0.9335927E-01
         22   -1    0    0    0    0  0.00000000000E+00  0.00000000000E+00  0.10832206114E+04  0.10832206114E+04  0.00000000000E+00 0. -1.
         22   -1    0    0    0    0 -0.00000000000E+00 -0.00000000000E+00 -0.63382279940E+03  0.63382279940E+03  0.00000000000E+00 0.  1.
         24    2    1    2    0    0 -0.30788166134E+02 -0.93268723948E+00 -0.36009030380E+03  0.36984570555E+03  0.78562318836E+02 0.  0.
         25    2    1    2    0    0  0.40862146913E+03  0.33230994549E+03  0.26888565518E+03  0.60444059590E+03  0.12509010156E+03 0.  0.
        -24    2    1    2    0    0 -0.37783330300E+03 -0.33137725825E+03  0.54060246060E+03  0.74275710932E+03  0.82874669824E+02 0.  0.
        -13    1    3    3    0    0 -0.26548917255E+02 -0.21954220324E+02 -0.33530823997E+03  0.33707335788E+03  0.00000000000E+00 0.  1.
         14    1    3    3    0    0 -0.42392488788E+01  0.21021533084E+02 -0.24782063834E+02  0.32772347675E+02  0.00000000000E+00 0. -1.
         11    1    5    5    0    0 -0.21318199681E+03 -0.14948291776E+03  0.32247559338E+03  0.41446618052E+03  0.00000000000E+00 0. -1.
        -12    1    5    5    0    0 -0.16465130618E+03 -0.18189434049E+03  0.21812686722E+03  0.32829092880E+03  0.00000000000E+00 0.  1.
          5    1    4    4  501    0  0.41398303510E+02 -0.58702022558E+01  0.23752959385E+02  0.48269600035E+02  0.41800000000E+01 0.  1.
         -5    1    4    4    0  501  0.36722316562E+03  0.33818014774E+03  0.24513269580E+03  0.55617099587E+03  0.41800000000E+01 0.  1.
</event>
<event>
11    1  0.8299058E-009  0.2243100E+03  0.7561462E-02  0.1038551E+00
         22   -1    0    0    0    0  0.00000000000E+00  0.00000000000E+00  0.24912670171E+03  0.24912670171E+03  0.00000000000E+00 0. -1.
         22   -1    0    0    0    0 -0.00000000000E+00 -0.00000000000E+00 -0.75736579875E+03  0.75736579875E+03  0.00000000000E+00 0.  1.
        -24    2    1    2    0    0 -0.33504237906E+02 -0.40705202188E+01 -0.54415915326E+03  0.55109146887E+03  0.80333802881E+02 0.  0.
         25    2    1    2    0    0  0.18135362257E+03  0.10102793979E+03 -0.43802955536E+02  0.24629609302E+03  0.12508911019E+03 0.  0.
         24    2    1    2    0    0 -0.14784938466E+03 -0.96957419570E+02  0.79723011756E+02  0.20910493857E+03  0.78159676143E+02 0.  0.
        -11    1    5    5    0    0 -0.31325030147E+02  0.11520451909E+02  0.71116633619E+01  0.34125563463E+02  0.00000000000E+00 0.  1.
         12    1    5    5    0    0 -0.11652435451E+03 -0.10847787148E+03  0.72611348394E+02  0.17497937510E+03  0.00000000000E+00 0. -1.
         13    1    3    3    0    0  0.14235292892E+02 -0.24004810232E+02 -0.96552837552E+02  0.10050534770E+03  0.00000000000E+00 0. -1.
        -14    1    3    3    0    0 -0.47739530798E+02  0.19934290013E+02 -0.44760631571E+03  0.45058612116E+03  0.00000000000E+00 0.  1.
          5    1    4    4  501    0  0.11411444251E+03 -0.76021737503E+01 -0.24251490733E+02  0.11698506844E+03  0.41800000000E+01 0.  1.
         -5    1    4    4    0  501  0.67239180060E+02  0.10863011354E+03 -0.19551464803E+02  0.12931102458E+03  0.41800000000E+01 0.  1.
</event>
<event>
11    1  0.8299058E-009  0.2784460E+03  0.7561462E-02  0.1009750E+00
         22   -1    0    0    0    0  0.00000000000E+00  0.00000000000E+00  0.91834102661E+03  0.91834102661E+03  0.00000000000E+00 0. -1.
         22   -1    0    0    0    0 -0.00000000000E+00 -0.00000000000E+00 -0.24075953261E+03  0.24075953261E+03  0.00000000000E+00 0.  1.
         24    2    1    2    0    0  0.61548632679E+02  0.21339689292E+03 -0.76347407367E+02  0.24845123391E+03  0.81071702382E+02 0.  0.
         25    2    1    2    0    0  0.10361764231E+03  0.78834521589E+01  0.87899607461E+02  0.18489089417E+03  0.12513807230E+03 0.  0.
        -24    2    1    2    0    0 -0.16516627499E+03 -0.22128034508E+03  0.66602929391E+03  0.72575843115E+03  0.82978253356E+02 0.  0.
        -13    1    3    3    0    0  0.67021377188E+02  0.20409098498E+03 -0.88380934166E+02  0.23228470607E+03  0.00000000000E+00 0.  1.
         14    1    3    3    0    0 -0.54727445097E+01  0.93059079329E+01  0.12033526800E+02  0.16166527833E+02  0.00000000000E+00 0. -1.
         11    1    5    5    0    0 -0.13974557373E+03 -0.20765951650E+03  0.52249045596E+03  0.57935099615E+03  0.00000000000E+00 0. -1.
        -12    1    5    5    0    0 -0.25420701262E+02 -0.13620828573E+02  0.14353883795E+03  0.14640743500E+03  0.00000000000E+00 0.  1.
          5    1    4    4  501    0  0.44088288701E+02 -0.57387550071E+02  0.26295081707E+02  0.77110387276E+02  0.41800000000E+01 0. -1.
         -5    1    4    4    0  501  0.59529353608E+02  0.65271002230E+02  0.61604525754E+02  0.10778050689E+03  0.41800000000E+01 0. -1.
</event>
<event>
11    1  0.8299058E-009  0.1406657E+03  0.7561462E-02  0.1106817E+00
         22   -1    0    0    0    0  0.00000000000E+00  0.00000000000E+00  0.10995106940E+04  0.10995106940E+04  0.00000000000E+00 0. -1.
         22   -1    0    0    0    0 -0.00000000000E+00 -0.00000000000E+00 -0.72469756468E+03  0.72469756468E+03  0.00000000000E+00 0.  1.
         24    2    1    2    0    0 -0.42016540317E+02  0.45697143537E+02 -0.63544390649E+03  0.64349363101E+03  0.80258808055E+02 0.  0.
         25    2    1    2    0    0  0.88216904887E+02 -0.69301312606E+02  0.22813607082E+01  0.16806340880E+03  0.12512078378E+03 0.  0.
        -24    2    1    2    0    0 -0.46200364570E+02  0.23604169068E+02  0.10079756751E+04  0.10126512188E+04  0.82194276083E+02 0.  0.
        -13    1    3    3    0    0  0.43160231902E+01  0.30013405927E+02 -0.46981976969E+03  0.47079724785E+03  0.00000000000E+00 0.  1.
         14    1    3    3    0    0 -0.46332563508E+02  0.15683737611E+02 -0.16562413680E+03  0.17269638316E+03  0.00000000000E+00 0. -1.
         11    1    5    5    0    0  0.25790108493E+01 -0.15286231395E+02  0.57452695730E+03  0.57473606537E+03  0.00000000000E+00 0. -1.
        -12    1    5    5    0    0 -0.48779375419E+02  0.38890400464E+02  0.43344871775E+03  0.43791515346E+03  0.00000000000E+00 0.  1.
          5    1    4    4  501    0  0.30395631524E+02 -0.74216148540E+02  0.48449271062E+02  0.93790913133E+02  0.41800000000E+01 0. -1.
         -5    1    4    4    0  501  0.57821273363E+02  0.49148359348E+01 -0.46167910354E+02  0.74272495663E+02  0.41800000000E+01 0. -1.
</event>
<event>
11    1  0.8299058E-009  0.2407122E+03  0.7561462E-02  0.1028967E+00
         22   -1    0    0    0    0  0.00000000000E+00  0.00000000000E+00  0.12053829083E+04  0.12053829083E+04  0.00000000000E+00 0.  1.
         22   -1    0    0    0    0 -0.00000000000E+00 -0.00000000000E+00 -0.90209085692E+03  0.90209085692E+03  0.00000000000E+00 0.  1.
        -24    2    1    2    0    0 -0.17679052454E+03  0.84785014657E+02 -0.71124577071E+03  0.74219697110E+03  0.80885161066E+02 0.  0.
         25    2    1    2    0    0  0.27105413866E+03 -0.13542954222E+03 -0.13902718352E+02  0.32810481419E+03  0.12509187235E+03 0.  0.
         24    2    1    2    0    0 -0.94263614113E+02  0.50644527558E+02  0.10284405405E+04  0.10371719799E+04  0.81149698819E+02 0.  0.
        -13    1    5    5    0    0 -0.76332274374E+02 -0.28666252285E+00  0.47382106010E+03  0.47993030253E+03  0.00000000000E+00 0.  1.
         14    1    5    5    0    0 -0.17931339740E+02  0.50931190081E+02  0.55461948035E+03  0.55724167742E+03  0.00000000000E+00 0. -1.
         13    1    3    3    0    0 -0.20112920353E+02  0.34588851301E+02 -0.23382402283E+03  0.23722266302E+03  0.00000000000E+00 0. -1.
        -14    1    3    3    0    0 -0.15667760419E+03  0.50196163356E+02 -0.47742174788E+03  0.50497430808E+03  0.00000000000E+00 0.  1.
          5    1    4    4  501    0  0.37386724173E+02  0.19015204782E+02  0.18647987176E+02  0.46093003623E+02  0.41800000000E+01 0.  1.
         -5    1    4    4    0  501  0.23366741448E+03 -0.15444474700E+03 -0.32550705528E+02  0.28201181056E+03  0.41800000000E+01 0.  1.
</event>
<event>
11    1  0.8299058E-009  0.1749751E+03  0.7561462E-02  0.1073781E+00
         22   -1    0    0    0    0  0.00000000000E+00  0.00000000000E+00  0.13373735958E+03  0.13373735958E+03  0.00000000000E+00 0. -1.
         22   -1    0    0    0    0 -0.00000000000E+00 -0.00000000000E+00 -0.56249659885E+03  0.56249659885E+03  0.00000000000E+00 0.  1.
         24    2    1    2    0    0  0.10870876541E+01  0.12399364611E+03 -0.33877218610E+03  0.36975647088E+03  0.81102698148E+02 0.  0.
         25    2    1    2    0    0  0.28814703638E+01 -0.11812529285E+03 -0.14775527958E+03  0.22680918385E+03  0.12509554569E+03 0.  0.
        -24    2    1    2    0    0 -0.39685580179E+01 -0.58683532650E+01  0.57768226418E+02  0.99668303704E+02  0.80909923723E+02 0.  0.
        -13    1    3    3    0    0 -0.22156617673E+02  0.11323196497E+03 -0.31224948844E+03  0.33288456953E+03  0.00000000000E+00 0.  1.
         14    1    3    3    0    0  0.23243705327E+02  0.10761681143E+02 -0.26522697665E+02  0.36871901358E+02  0.00000000000E+00 0. -1.
         11    1    5    5    0    0  0.27848422239E+02  0.24592619973E+02  0.27508313312E+02  0.46228117846E+02  0.00000000000E+00 0. -1.
        -12    1    5    5    0    0 -0.31816980257E+02 -0.30460973238E+02  0.30259913106E+02  0.53440185857E+02  0.00000000000E+00 0.  1.
          5    1    4    4  501    0 -0.15110489758E+01 -0.11718627841E+03 -0.16843509226E+03  0.20523830008E+03  0.41800000000E+01 0.  1.
         -5    1    4    4    0  501  0.43925193396E+01 -0.93901443417E+00  0.20679812674E+02  0.21570883767E+02  0.41800000000E+01 0.  1.
</event>
<event>
11    1  0.8299058E-009  0.4114979E+03  0.7561462E-02  0.9616429E-01
         22   -1    0    0    0    0  0.00000000000E+00  0.00000000000E+00  0.19882580443E+04  0.19882580443E+04  0.00000000000E+00 0.  1.
         22   -1    0    0    0    0 -0.00000000000E+00 -0.00000000000E+00 -0.15226995882E+04  0.15226995882E+04  0.00000000000E+00 0.  1.
        -24    2    1    2    0    0  0.30280312929E+03 -0.23067612459E+03 -0.12565113497E+04  0.13155864840E+04  0.83939355107E+02 0.  0.
         25    2    1    2    0    0 -0.37193145619E+03  0.34350764665E+03  0.58761174826E+02  0.52481542909E+03  0.12509135675E+03 0.  0.
         24    2    1    2    0    0  0.69128326896E+02 -0.11283152206E+03  0.16633086310E+04  0.16705557195E+04  0.81554471996E+02 0.  0.
        -13    1    5    5    0    0 -0.12451479126E+02 -0.52299972756E+02  0.60321722353E+03  0.60560824403E+03  0.00000000000E+00 0.  1.
         14    1    5    5    0    0  0.81579806022E+02 -0.60531549305E+02  0.10600914075E+04  0.10649474754E+04  0.00000000000E+00 0. -1.
         11    1    3    3    0    0  0.21011675818E+03 -0.13045971649E+03 -0.69413784171E+03  0.73688271319E+03  0.00000000000E+00 0. -1.
        -12    1    3    3    0    0  0.92686371110E+02 -0.10021640810E+03 -0.56237350800E+03  0.57870377081E+03  0.00000000000E+00 0.  1.
          5    1    4    4  501    0  0.63261074056E+01 -0.83078772697E+00  0.75396008885E+01  0.10725102550E+02  0.41800000000E+01 0. -1.
         -5    1    4    4    0  501 -0.37825756360E+03  0.34433843438E+03  0.51221573938E+02  0.51409032654E+03  0.41800000000E+01 0. -1.
</event>
<event>
11    1  0.8299058E-009  0.2004993E+03  0.7561462E-02  0.1054171E+00
         22   -1    0    0    0    0  0.00000000000E+00  0.00000000000E+00  0.44426120971E+03  0.44426120971E+03  0.00000000000E+00 0.  1.
         22   -1    0    0    0    0 -0.00000000000E+00 -0.00000000000E+00 -0.33993969873E+03  0.33993969873E+03  0.00000000000E+00 0. -1.
        -24    2    1    2    0    0 -0.21242399348E+02 -0.10248653443E+03 -0.19693724203E+03  0.23602295277E+03  0.77251716260E+02 0.  0.
         25    2    1    2    0    0  0.12586757105E+03 -0.31491554203E+02 -0.14367253916E+02  0.18079644258E+03  0.12508625918E+03 0.  0.
         24    2    1    2    0    0 -0.10462517171E+03  0.13397808864E+03  0.31562600693E+03  0.36738151309E+03  0.80329603046E+02 0.  0.
        -13    1    5    5    0    0 -0.38671964216E+02  0.66961641701E+02  0.69736990722E+02  0.10412795086E+03  0.00000000000E+00 0.  1.
         14    1    5    5    0    0 -0.65953207490E+02  0.67016446935E+02  0.24588901620E+03  0.26325356223E+03  0.00000000000E+00 0. -1.
         11    1    3    3    0    0 -0.30946472481E+02 -0.59307527202E+02 -0.17348762206E+03  0.18593822079E+03  0.00000000000E+00 0. -1.
        -12    1    3    3    0    0  0.97040731333E+01 -0.43179007231E+02 -0.23449619970E+02  0.50084731981E+02  0.00000000000E+00 0.  1.
          5    1    4    4  501    0  0.12093230065E+03 -0.25978454257E+02 -0.57761874615E+02  0.13657747978E+03  0.41800000000E+01 0.  1.
         -5    1    4    4    0  501  0.49352704081E+01 -0.55130999455E+01  0.43394620699E+02  0.44218962794E+02  0.41800000000E+01 0.  1.
</event>
<event>
11    1  0.8299058E-009  0.1439681E+03  0.7561462E-02  0.1103207E+00
         22   -1    0    0    0    0  0.00000000000E+00  0.00000000000E+00  0.11879577955E+04  0.11879577955E+04  0.00000000000E+00 0. -1.
         22   -1    0    0    0    0 -0.00000000000E+00 -0.00000000000E+00 -0.37695166537E+03  0.37695166537E+03  0.00000000000E+00 0. -1.
         24    2    1    2    0    0  0.69757640524E+02 -0.29714179787E+02 -0.30283210571E+03  0.32208977237E+03  0.79280995998E+02 0.  0.
         25    2    1    2    0    0 -0.10882829976E+02 -0.15815092642E+02  0.31739699944E+01  0.12659517877E+03  0.12509081524E+03 0.  0.
        -24    2    1    2    0    0 -0.58874810549E+02  0.45529272429E+02  0.11106642658E+04  0.11162245097E+04  0.82721742813E+02 0.  0.
        -11    1    3    3    0    0  0.22898666069E+02 -0.36366711779E+01 -0.11533022585E+02  0.25895653978E+02  0.00000000000E+00 0.  1.
         12    1    3    3    0    0  0.46858974455E+02 -0.26077508609E+02 -0.29129908312E+03  0.29619411839E+03  0.00000000000E+00 0. -1.
         11    1    5    5    0    0 -0.47964186301E+02  0.54747496508E+02  0.10794076881E+04  0.10818589597E+04  0.00000000000E+00 0. -1.
        -12    1    5    5    0    0 -0.10910624247E+02 -0.92182240791E+01  0.31256577686E+02  0.34365549977E+02  0.00000000000E+00 0.  1.
          5    1    4    4  501    0  0.55655432997E+02 -0.20742119772E+02  0.46944141185E+01  0.59726649652E+02  0.41800000000E+01 0.  1.
         -5    1    4    4    0  501 -0.66538262972E+02  0.49270271299E+01 -0.15204441241E+01  0.66868529115E+02  0.41800000000E+01 0.  1.
</event>
<event>
11    1  0.8299058E-009  0.2538533E+03  0.7561462E-02  0.1021866E+00
         22   -1    0    0    0    0  0.00000000000E+00  0.00000000000E+00  0.48377918879E+03  0.48377918879E+03  0.00000000000E+00 0. -1.
         22   -1    0    0    0    0 -0.00000000000E+00 -0.00000000000E+00 -0.15423624498E+04  0.15423624498E+04  0.00000000000E+00 0. -1.
        -24    2    1    2    0    0  0.22203433686E+03  0.42942896478E+02 -0.12785701989E+04  0.13009258127E+04  0.80764333538E+02 0.  0.
         25    2    1    2    0    0 -0.20092446102E+03  0.26431421395E+02 -0.18798516589E+03  0.30340609403E+03  0.12509027231E+03 0.  0.
         24    2    1    2    0    0 -0.21109875841E+02 -0.69374317873E+02  0.40797210373E+03  0.42180973188E+03  0.78890998539E+02 0.  0.
        -13    1    5    5    0    0  0.14089056282E+02 -0.64746686733E+01  0.12766580355E+02  0.20085029632E+02  0.00000000000E+00 0.  1.
         14    1    5    5    0    0 -0.35198932123E+02 -0.62899649200E+02  0.39520552338E+03  0.40172470225E+03  0.00000000000E+00 0. -1.
         11    1    3    3    0    0  0.16811404298E+03  0.64830470858E+02 -0.89388041607E+03  0.91185937492E+03  0.00000000000E+00 0. -1.
        -12    1    3    3    0    0  0.53920293888E+02 -0.21887574380E+02 -0.38468978282E+03  0.38906643778E+03  0.00000000000E+00 0.  1.
          5    1    4    4  501    0 -0.11216172828E+03  0.55271774188E+02 -0.45709934685E+02  0.13319944761E+03  0.41800000000E+01 0.  1.
         -5    1    4    4    0  501 -0.88762732739E+02 -0.28840352793E+02 -0.14227523121E+03  0.17020664643E+03  0.41800000000E+01 0.  1.
</event>
<event>
11    1  0.8299058E-009  0.1640709E+03  0.7561462E-02  0.1083310E+00
         22   -1    0    0    0    0  0.00000000000E+00  0.00000000000E+00  0.84730667295E+03  0.84730667295E+03  0.00000000000E+00 0. -1.
         22   -1    0    0    0    0 -0.00000000000E+00 -0.00000000000E+00 -0.27261029948E+03  0.27261029948E+03  0.00000000000E+00 0.  1.
         24    2    1    2    0    0  0.68338923691E+02 -0.82413683183E+02 -0.22820592181E+03  0.26494834141E+03  0.81593242341E+02 0.  0.
         25    2    1    2    0    0 -0.59352916443E+02  0.72194140195E+02  0.23811218779E+03  0.28474488958E+03  0.12508987007E+03 0.  0.
        -24    2    1    2    0    0 -0.89860072478E+01  0.10219542988E+02  0.56479010749E+03  0.57022374144E+03  0.77343793536E+02 0.  0.
        -11    1    3    3    0    0  0.41484958942E+02 -0.84315709408E+02 -0.21566818706E+03  0.23525073343E+03  0.00000000000E+00 0.  1.
         12    1    3    3    0    0  0.26853964749E+02  0.19020262254E+01 -0.12537734754E+02  0.29697607972E+02  0.00000000000E+00 0. -1.
         13    1    5    5    0    0  0.25348896734E+02 -0.20246335397E+02  0.21472300008E+03  0.21715995816E+03  0.00000000000E+00 0. -1.
        -14    1    5    5    0    0 -0.34334903982E+02  0.30465878385E+02  0.35006710741E+03  0.35306378328E+03  0.00000000000E+00 0.  1.
          5    1    4    4  501    0 -0.22799216094E+01 -0.30068656159E+02  0.95095580181E+02  0.99849706538E+02  0.41800000000E+01 0.  1.
         -5    1    4    4    0  501 -0.57072994834E+02  0.10226279635E+03  0.14301660761E+03  0.18489518304E+03  0.41800000000E+01 0.  1.
</event>
<event>
11    1  0.8299058E-009  0.2448006E+03  0.7561462E-02  0.1026706E+00
         22   -1    0    0    0    0  0.00000000000E+00  0.00000000000E+00  0.11141028512E+03  0.11141028512E+03  0.00000000000E+00 0.  1.
         22   -1    0    0    0    0 -0.00000000000E+00 -0.00000000000E+00 -0.22248604746E+04  0.22248604746E+04  0.00000000000E+00 0.  1.
        -24    2    1    2    0    0  0.52717047958E+02 -0.59148688256E+02 -0.43862248328E+03  0.45303737694E+03  0.81089626932E+02 0.  0.
         25    2    1    2    0    0 -0.20689228458E+03  0.19349634903E+03 -0.16303262783E+04  0.16594750909E+04  0.12509416213E+03 0.  0.
         24    2    1    2    0    0  0.15417523662E+03 -0.13434766077E+03 -0.44501427959E+02  0.22375829184E+03  0.79171323938E+02 0.  0.
        -13    1    5    5    0    0  0.96218650564E+02 -0.34439762804E+02 -0.74846392907E+01  0.10247021911E+03  0.00000000000E+00 0.  1.
         14    1    5    5    0    0  0.57956586057E+02 -0.99907897970E+02 -0.37016788669E+02  0.12128807273E+03  0.00000000000E+00 0. -1.
         13    1    3    3    0    0  0.14130435127E+02 -0.42413933180E+02 -0.77468710616E+02  0.89442786457E+02  0.00000000000E+00 0. -1.
        -14    1    3    3    0    0  0.38586612830E+02 -0.16734755076E+02 -0.36115377267E+03  0.36359459048E+03  0.00000000000E+00 0.  1.
          5    1    4    4  501    0 -0.91590617365E+02  0.79706658048E+02 -0.10481149085E+04  0.10551323738E+04  0.41800000000E+01 0.  1.
         -5    1    4    4    0  501 -0.11530166721E+03  0.11378969098E+03 -0.58221136976E+03  0.60434271710E+03  0.41800000000E+01 0.  1.
</event>
<event>
11    1  0.8299058E-009  0.2136815E+03  0.7561462E-02  0.1045249E+00
         22   -1    0    0    0    0  0.00000000000E+00  0.00000000000E+00  0.84315783201E+03  0.84315783201E+03  0.00000000000E+00 0.  1.
         22   -1    0    0    0    0 -0.00000000000E+00 -0.00000000000E+00 -0.45612561471E+03  0.45612561471E+03  0.00000000000E+00 0.  1.
         24    2    1    2    0    0  0.16290213690E+03 -0.41290879002E+02 -0.36157558184E+03  0.41003064598E+03  0.95635696072E+02 0.  0.
         25    2    1    2    0    0 -0.24371030773E+03 -0.10832983110E+01  0.23349370456E+03  0.35994754540E+03  0.12508811993E+03 0.  0.
        -24    2    1    2    0    0  0.80808170829E+02  0.42374177313E+02  0.51511409458E+03  0.52930525534E+03  0.80597714092E+02 0.  0.
        -13    1    3    3    0    0  0.12010325358E+03 -0.70262332107E+02 -0.29098521894E+03  0.32254299632E+03  0.00000000000E+00 0.  1.
         14    1    3    3    0    0  0.42798883316E+02  0.28971453105E+02 -0.70590362902E+02  0.87487649658E+02  0.00000000000E+00 0. -1.
         11    1    5    5    0    0  0.28037103142E+02  0.59636965777E+02  0.29861685988E+03  0.30580169366E+03  0.00000000000E+00 0. -1.
        -12    1    5    5    0    0  0.52771067687E+02 -0.17262788464E+02  0.21649723470E+03  0.22350356168E+03  0.00000000000E+00 0.  1.
          5    1    4    4  501    0 -0.50046940591E+02 -0.25259669718E+01 -0.74019864807E+01  0.50826553843E+02  0.41800000000E+01 0. -1.
         -5    1    4    4    0  501 -0.19366336714E+03  0.14426686609E+01  0.24089569104E+03  0.30912099156E+03  0.41800000000E+01 0. -1.
</event>
<event>
11    1  0.8299058E-009  0.1418562E+03  0.7561462E-02  0.1105503E+00
         22   -1    0    0    0    0  0.00000000000E+00  0.00000000000E+00  0.21977640773E+03  0.21977640773E+03  0.00000000000E+00 0. -1.
         22   -1    0    0    0    0 -0.00000000000E+00 -0.00000000000E+00 -0.24388499890E+04  0.24388499890E+04  0.00000000000E+00 0.  1.
        -24    2    1    2    0    0  0.46462493625E+02  0.56821364024E+02 -0.20116296770E+04  0.20145711484E+04  0.80346275688E+02 0.  0.
         25    2    1    2    0    0  0.10060813851E+02 -0.34869231021E+02 -0.40342303750E+03  0.42393035436E+03  0.12509882062E+03 0.  0.
         24    2    1    2    0    0 -0.56523307477E+02 -0.21952133003E+02  0.19597913319E+03  0.22012489397E+03  0.79814584304E+02 0.  0.
        -11    1    5    5    0    0 -0.55668638440E+02 -0.35267345099E+00  0.57740999745E+02  0.80206887085E+02  0.00000000000E+00 0.  1.
         12    1    5    5    0    0 -0.85466903690E+00 -0.21599459552E+02  0.13823813344E+03  0.13991800688E+03  0.00000000000E+00 0. -1.
         11    1    3    3    0    0  0.41546403834E+02  0.33866817356E+02 -0.51970949621E+03  0.52246629120E+03  0.00000000000E+00 0. -1.
        -12    1    3    3    0    0  0.49160897916E+01  0.22954546667E+02 -0.14919201808E+04  0.14921048572E+04  0.00000000000E+00 0.  1.
          5    1    4    4  501    0  0.44220357214E+02  0.22092815267E+01 -0.50046090392E+02  0.66950761612E+02  0.41800000000E+01 0.  1.
         -5    1    4    4    0  501 -0.34159543363E+02 -0.37078512548E+02 -0.35337694711E+03  0.35697959275E+03  0.41800000000E+01 0.  1.
</event>
<event>
11    1  0.8299058E-009  0.1394293E+03  0.7561462E-02  0.1108197E+00
         22   -1    0    0    0    0  0.00000000000E+00  0.00000000000E+00  0.87185797322E+03  0.87185797322E+03  0.00000000000E+00 0. -1.
         22   -1    0    0    0    0 -0.00000000000E+00 -0.00000000000E+00 -0.61637020568E+03  0.61637020568E+03  0.00000000000E+00 0.  1.
         24    2    1    2    0    0  0.30838509380E+01 -0.32346119083E+02 -0.54169844607E+03  0.54842127763E+03  0.79201702792E+02 0.  0.
         25    2    1    2    0    0  0.22839009904E+02  0.86774482848E+02  0.19130526142E+02  0.15512949234E+03  0.12509097137E+03 0.  0.
        -24    2    1    2    0    0 -0.25922860842E+02 -0.54428363765E+02  0.77805568746E+03  0.78467740892E+03  0.81936205590E+02 0.  0.
        -11    1    3    3    0    0  0.86468798212E+01  0.24637022704E+02 -0.23298772011E+03  0.23444621801E+03  0.00000000000E+00 0.  1.
         12    1    3    3    0    0 -0.55630288833E+01 -0.56983141787E+02 -0.30871072595E+03  0.31397505961E+03  0.00000000000E+00 0. -1.
         11    1    5    5    0    0 -0.27123590518E+01 -0.71879782735E+02  0.59510010575E+03  0.59943156067E+03  0.00000000000E+00 0. -1.
        -12    1    5    5    0    0 -0.23210501791E+02  0.17451418970E+02  0.18295558171E+03  0.18524584826E+03  0.00000000000E+00 0.  1.
          5    1    4    4  501    0  0.27469116711E+02  0.59019745528E+02 -0.48810887861E+02  0.81473050200E+02  0.41800000000E+01 0. -1.
         -5    1    4    4    0  501 -0.46301068062E+01  0.27754737319E+02  0.67941414002E+02  0.73656442144E+02  0.41800000000E+01 0. -1.
</event>
<event>
11    1  0.8299058E-009  0.2530328E+03  0.7561462E-02  0.1022296E+00
         22   -1    0    0    0    0  0.00000000000E+00  0.00000000000E+00  0.18469178989E+03  0.18469178989E+03  0.00000000000E+00 0.  1.
         22   -1    0    0    0    0 -0.00000000000E+00 -0.00000000000E+00 -0.80703239720E+03  0.80703239720E+03  0.00000000000E+00 0.  1.
        -24    2    1    2    0    0  0.15530212530E+03 -0.19444717078E+03 -0.37531240898E+03  0.45751649328E+03  0.80829975515E+02 0.  0.
         25    2    1    2    0    0 -0.12882408436E+02  0.20923150685E+03 -0.27443632616E+03  0.36729772022E+03  0.12509411760E+03 0.  0.
         24    2    1    2    0    0 -0.14241971686E+03 -0.14784336075E+02  0.27408127819E+02  0.16690997359E+03  0.81275958733E+02 0.  0.
        -11    1    5    5    0    0 -0.60324410272E+02  0.15813473764E+02  0.45817919352E+02  0.77384637757E+02  0.00000000000E+00 0.  1.
         12    1    5    5    0    0 -0.82095306591E+02 -0.30597809839E+02 -0.18409791533E+02  0.89525335830E+02  0.00000000000E+00 0. -1.
         11    1    3    3    0    0 -0.58525093076E+01 -0.10806175975E+02 -0.45090002597E+02  0.46734715561E+02  0.00000000000E+00 0. -1.
        -12    1    3    3    0    0  0.16115463461E+03 -0.18364099480E+03 -0.33022240638E+03  0.41078177772E+03  0.00000000000E+00 0.  1.
          5    1    4    4  501    0 -0.21159073155E+02  0.18004451665E+03 -0.28244516257E+03  0.33564337713E+03  0.41800000000E+01 0.  1.
         -5    1    4    4    0  501  0.82766647188E+01  0.29186990207E+02  0.80088364099E+01  0.31654343096E+02  0.41800000000E+01 0.  1.
</event>
<event>
11    1  0.8299058E-009  0.1420424E+03  0.7561462E-02  0.1105299E+00
         22   -1    0    0    0    0  0.00000000000E+00  0.00000000000E+00  0.12897675431E+04  0.12897675431E+04  0.00000000000E+00 0.  1.
         22   -1    0    0    0    0 -0.00000000000E+00 -0.00000000000E+00 -0.48839355385E+03  0.48839355385E+03  0.00000000000E+00 0. -1.
        -24    2    1    2    0    0 -0.57371919075E+02  0.34722535894E+02 -0.47019359516E+03  0.48165480106E+03  0.80075831932E+02 0.  0.
         25    2    1    2    0    0  0.81027013575E+02 -0.64726652588E+02  0.86193680870E+03  0.87711878709E+03  0.12508951992E+03 0.  0.
         24    2    1    2    0    0 -0.23655094500E+02  0.30004116694E+02  0.40963077571E+03  0.41938750881E+03  0.81416826379E+02 0.  0.
        -11    1    5    5    0    0  0.52642049043E+01  0.15129004569E+02  0.35806665747E+03  0.35842478963E+03  0.00000000000E+00 0.  1.
         12    1    5    5    0    0 -0.28919299404E+02  0.14875112125E+02  0.51564118243E+02  0.60962719173E+02  0.00000000000E+00 0. -1.
         13    1    3    3    0    0 -0.36772512191E+02  0.46610203350E+02 -0.43587999347E+03  0.43990464582E+03  0.00000000000E+00 0. -1.
        -14    1    3    3    0    0 -0.20599406884E+02 -0.11887667456E+02 -0.34313601686E+02  0.41750155236E+02  0.00000000000E+00 0.  1.
          5    1    4    4  501    0 -0.20570039922E+02 -0.11599677229E+02  0.36029275415E+02  0.43281175367E+02  0.41800000000E+01 0. -1.
         -5    1    4    4    0  501  0.10159705350E+03 -0.53126975359E+02  0.82590753328E+03  0.83383761172E+03  0.41800000000E+01 0. -1.
</event>
<event>
11    1  0.8299058E-009  0.1459204E+03  0.7561462E-02  0.1101122E+00
         22   -1    0    0    0    0  0.00000000000E+00  0.00000000000E+00  0.44284663186E+03  0.44284663186E+03  0.00000000000E+00 0.  1.
         22   -1    0    0    0    0 -0.00000000000E+00 -0.00000000000E+00 -0.24014305381E+03  0.24014305381E+03  0.00000000000E+00 0. -1.
         24    2    1    2    0    0  0.18891007641E+02  0.10171688707E+01 -0.17744974354E+03  0.19602047573E+03  0.81103086390E+02 0.  0.
         25    2    1    2    0    0 -0.67191388466E+02  0.53630167077E+02  0.88483374479E+02  0.17569018394E+03  0.12508739213E+03 0.  0.
        -24    2    1    2    0    0  0.48300380825E+02 -0.54647335947E+02  0.29166994711E+03  0.31127902599E+03  0.80647478927E+02 0.  0.
        -13    1    3    3    0    0 -0.26991404400E+02 -0.18181757460E+02 -0.55817467164E+02  0.64611932771E+02  0.00000000000E+00 0.  1.
         14    1    3    3    0    0  0.45882412041E+02  0.19198926331E+02 -0.12163227638E+03  0.13140854296E+03  0.00000000000E+00 0. -1.
         13    1    5    5    0    0  0.55299489116E+02 -0.26947353651E+02  0.99382330541E+02  0.11688045598E+03  0.00000000000E+00 0. -1.
        -14    1    5    5    0    0 -0.69991082910E+01 -0.27699982296E+02  0.19228761657E+03  0.19439857001E+03  0.00000000000E+00 0.  1.
          5    1    4    4  501    0 -0.82598736314E+02  0.60562589199E+02  0.10843237098E+03  0.14921605118E+03  0.41800000000E+01 0.  1.
         -5    1    4    4    0  501  0.15407347848E+02 -0.69324221219E+01 -0.19948996505E+02  0.26474132767E+02  0.41800000000E+01 0.  1.
</event>
<event>
11    1  0.8299058E-009  0.1375540E+03  0.7561462E-02  0.1110321E+00
         22   -1    0    0    0    0  0.00000000000E+00  0.00000000000E+00  0.14168029426E+03  0.14168029426E+03  0.00000000000E+00 0.  1.
         22   -1    0    0    0    0 -0.00000000000E+00 -0.00000000000E+00 -0.79712823380E+03  0.79712823380E+03  0.00000000000E+00 0. -1.
         24    2    1    2    0    0  0.38246882458E+02  0.39441445382E+02 -0.63703272402E+03  0.64433342226E+03  0.79601607655E+02 0.  0.
         25    2    1    2    0    0 -0.26837973670E+02 -0.93691485184E+02 -0.82520415367E+02  0.17876004695E+03  0.12508862540E+03 0.  0.
        -24    2    1    2    0    0 -0.11408908788E+02  0.54250039803E+02  0.64105199839E+02  0.11571505886E+03  0.78786218224E+02 0.  0.
        -13    1    3    3    0    0  0.43368297250E+02  0.33248502916E+02 -0.20301194103E+03  0.21023824665E+03  0.00000000000E+00 0.  1.
         14    1    3    3    0    0 -0.51214147921E+01  0.61929424660E+01 -0.43402078298E+03  0.43409517561E+03  0.00000000000E+00 0. -1.
         13    1    5    5    0    0  0.24894323727E+02  0.10673947128E+01  0.90329438547E-01  0.24917360308E+02  0.00000000000E+00 0. -1.
        -14    1    5    5    0    0 -0.36303232515E+02  0.53182645090E+02  0.64014870401E+02  0.90797698551E+02  0.00000000000E+00 0.  1.
          5    1    4    4  501    0 -0.16671731619E+02  0.17818556265E+02  0.16065968209E+02  0.29513307457E+02  0.41800000000E+01 0. -1.
         -5    1    4    4    0  501 -0.10166242051E+02 -0.11151004145E+03 -0.98586383576E+02  0.14924673949E+03  0.41800000000E+01 0. -1.
</event>
<event>
11    1  0.8299058E-009  0.1925329E+03  0.7561462E-02  0.1059933E+00
         22   -1    0    0    0    0  0.00000000000E+00  0.00000000000E+00  0.12073383043E+04  0.12073383043E+04  0.00000000000E+00 0. -1.
         22   -1    0    0    0    0 -0.00000000000E+00 -0.00000000000E+00 -0.24499521254E+04  0.24499521254E+04  0.00000000000E+00 0.  1.
         24    2    1    2    0    0 -0.82266569856E+02  0.12104739839E+03 -0.23880045357E+04  0.23938805501E+04  0.81720037596E+02 0.  0.
         25    2    1    2    0    0  0.85144407065E+02 -0.11933601157E+03  0.10405273193E+03  0.21900966964E+03  0.12509040995E+03 0.  0.
        -24    2    1    2    0    0 -0.28778372087E+01 -0.17113868201E+01  0.10413379827E+04  0.10444002099E+04  0.79848566037E+02 0.  0.
        -13    1    3    3    0    0 -0.77189723849E+02  0.13176792878E+03 -0.23022824375E+04  0.23073416441E+04  0.00000000000E+00 0.  1.
         14    1    3    3    0    0 -0.50768460074E+01 -0.10720530390E+02 -0.85722098120E+02  0.86538905952E+02  0.00000000000E+00 0. -1.
         11    1    5    5    0    0  0.41408807859E+01  0.30499428208E+02  0.82414495115E+03  0.82471950536E+03  0.00000000000E+00 0. -1.
        -12    1    5    5    0    0 -0.70187179945E+01 -0.32210815028E+02  0.21719303155E+03  0.21968070457E+03  0.00000000000E+00 0.  1.
          5    1    4    4  501    0 -0.10643974418E+02 -0.22150303552E+02 -0.21960443867E+02  0.33221433348E+02  0.41800000000E+01 0. -1.
         -5    1    4    4    0  501  0.95788381483E+02 -0.97185708019E+02  0.12601317580E+03  0.18578823630E+03  0.41800000000E+01 0. -1.
</event>
<event>
11    1  0.8299058E-009  0.1597594E+03  0.7561462E-02  0.1087304E+00
         22   -1    0    0    0    0  0.00000000000E+00  0.00000000000E+00  0.69116243654E+02  0.69116243654E+02  0.00000000000E+00 0. -1.
         22   -1    0    0    0    0 -0.00000000000E+00 -0.00000000000E+00 -0.20455684551E+04  0.20455684551E+04  0.00000000000E+00 0. -1.
        -24    2    1    2    0    0  0.42975481343E+01 -0.39931674139E+02 -0.15858090744E+04  0.15883132251E+04  0.79595684997E+02 0.  0.
         25    2    1    2    0    0  0.95757174609E+02  0.36893221454E+02 -0.35987748747E+03  0.39457575369E+03  0.12509065966E+03 0.  0.
         24    2    1    2    0    0 -0.10005472274E+03  0.30384526850E+01 -0.30765649578E+02  0.13179571996E+03  0.80021290093E+02 0.  0.
        -11    1    5    5    0    0 -0.18283981518E+02  0.15925796690E+02 -0.41759699749E+02  0.48288792732E+02  0.00000000000E+00 0.  1.
         12    1    5    5    0    0 -0.81770741226E+02 -0.12887344005E+02  0.10994050171E+02  0.83506927229E+02  0.00000000000E+00 0. -1.
         11    1    3    3    0    0  0.22690885318E+02 -0.37615494209E+01 -0.12272203424E+04  0.12274358616E+04  0.00000000000E+00 0. -1.
        -12    1    3    3    0    0 -0.18393337184E+02 -0.36170124718E+02 -0.35858873195E+03  0.36087736345E+03  0.00000000000E+00 0.  1.
          5    1    4    4  501    0  0.95502062536E+02  0.32862644186E+01 -0.12565768520E+03  0.15792013720E+03  0.41800000000E+01 0. -1.
         -5    1    4    4    0  501  0.25511207321E+00  0.33606957035E+02 -0.23421980226E+03  0.23665561649E+03  0.41800000000E+01 0. -1.
</event>
<event>
11    1  0.8299058E-009  0.1336954E+03  0.7561462E-02  0.1114810E+00
         22   -1    0    0    0    0  0.00000000000E+00  0.00000000000E+00  0.13690025075E+03  0.13690025075E+03  0.00000000000E+00 0.  1.
         22   -1    0    0    0    0 -0.00000000000E+00 -0.00000000000E+00 -0.49444975656E+03  0.49444975656E+03  0.00000000000E+00 0.  1.
        -24    2    1    2    0    0  0.34174488992E+01 -0.39043625142E+01 -0.22575320837E+03  0.23957071944E+03  0.80016845224E+02 0.  0.
         25    2    1    2    0    0  0.36283276427E+02 -0.22269332841E+02 -0.22447206470E+03  0.26047710239E+03  0.12509282037E+03 0.  0.
         24    2    1    2    0    0 -0.39700725326E+02  0.26173695355E+02  0.92675767258E+02  0.13130218549E+03  0.79939077781E+02 0.  0.
        -11    1    5    5    0    0 -0.18519254787E+01  0.12800551735E+02  0.90158427943E+02  0.91081424461E+02  0.00000000000E+00 0.  1.
         12    1    5    5    0    0 -0.37848799847E+02  0.13373143620E+02  0.25173393152E+01  0.40220761024E+02  0.00000000000E+00 0. -1.
         11    1    3    3    0    0 -0.11555019777E+02  0.10792174117E+02 -0.33270749206E+01  0.16157318211E+02  0.00000000000E+00 0. -1.
        -12    1    3    3    0    0  0.14972468676E+02 -0.14696536632E+02 -0.22242613345E+03  0.22341340123E+03  0.00000000000E+00 0.  1.
          5    1    4    4  501    0 -0.43326375069E+02  0.59127093508E+01 -0.49728296841E+02  0.66351419089E+02  0.41800000000E+01 0. -1.
         -5    1    4    4    0  501  0.79609651496E+02 -0.28182042191E+02 -0.17474376786E+03  0.19412568330E+03  0.41800000000E+01 0. -1.
</event>
<event>
11    1  0.8299058E-009  0.1497122E+03  0.7561462E-02  0.1097173E+00
         22   -1    0    0    0    0  0.00000000000E+00  0.00000000000E+00  0.46455963327E+03  0.46455963327E+03  0.00000000000E+00 0.  1.
         22   -1    0    0    0    0 -0.00000000000E+00 -0.00000000000E+00 -0.45493641786E+03  0.45493641786E+03  0.00000000000E+00 0.  1.
        -24    2    1    2    0    0  0.76050878990E+02 -0.27831269684E+02 -0.28437082968E+03  0.30637691589E+03  0.80260389057E+02 0.  0.
         25    2    1    2    0    0 -0.10269009115E+03 -0.46705081895E+02 -0.10489884721E+03  0.19843643551E+03  0.12508649526E+03 0.  0.
         24    2    1    2    0    0  0.26639212160E+02  0.74536351580E+02  0.39889289231E+03  0.41468269973E+03  0.81122663860E+02 0.  0.
        -11    1    5    5    0    0  0.51308214193E+02  0.35980932578E+02  0.28753475483E+03  0.29428454867E+03  0.00000000000E+00 0.  1.
         12    1    5    5    0    0 -0.24669002033E+02  0.38555419002E+02  0.11135813748E+03  0.12039815106E+03  0.00000000000E+00 0. -1.
         11    1    3    3    0    0 -0.48014806621E+01 -0.29922949059E+02 -0.11109757808E+03  0.11515688843E+03  0.00000000000E+00 0. -1.
        -12    1    3    3    0    0  0.80852359652E+02  0.20916793748E+01 -0.17327325160E+03  0.19122002747E+03  0.00000000000E+00 0.  1.
          5    1    4    4  501    0 -0.76805270074E+02 -0.89144167297E+02 -0.64548672331E+02  0.13427485086E+03  0.41800000000E+01 0.  1.
         -5    1    4    4    0  501 -0.25884821076E+02  0.42439085402E+02 -0.40350174875E+02  0.64161584646E+02  0.41800000000E+01 0.  1.
</event>
<event>
11    1  0.8299058E-009  0.1406144E+03  0.7561462E-02  0.1106874E+00
         22   -1    0    0    0    0  0.00000000000E+00  0.00000000000E+00  0.16300443052E+03  0.16300443052E+03  0.00000000000E+00 0.  1.
         22   -1    0    0    0    0 -0.00000000000E+00 -0.00000000000E+00 -0.34543838645E+03  0.34543838645E+03  0.00000000000E+00 0.  1.
         24    2    1    2    0    0  0.34450486849E+02 -0.44601896492E+01 -0.22149288464E+03  0.23813270026E+03  0.80258056586E+02 0.  0.
         25    2    1    2    0    0 -0.90234304820E+02  0.10532918702E+02 -0.21220555690E+02  0.15604993584E+03  0.12509235927E+03 0.  0.
        -24    2    1    2    0    0  0.55783817972E+02 -0.60727290531E+01  0.60279484401E+02  0.11426018087E+03  0.79202653415E+02 0.  0.
        -13    1    3    3    0    0  0.80121844620E+01  0.25621718574E+02 -0.17377265488E+03  0.17583402158E+03  0.00000000000E+00 0.  1.
         14    1    3    3    0    0  0.26438302387E+02 -0.30081908223E+02 -0.47720229766E+02  0.62298678672E+02  0.00000000000E+00 0. -1.
         11    1    5    5    0    0  0.49907745811E+02 -0.99093726077E+01 -0.26400939985E+01  0.50950454893E+02  0.00000000000E+00 0. -1.
        -12    1    5    5    0    0  0.58760721602E+01  0.38366435546E+01  0.62919578399E+02  0.63309725981E+02  0.00000000000E+00 0.  1.
          5    1    4    4  501    0  0.97780700966E+00 -0.67104608394E+01  0.42589594639E+02  0.43328193624E+02  0.41800000000E+01 0. -1.
         -5    1    4    4    0  501 -0.91212111830E+02  0.17243379542E+02 -0.63810150329E+02  0.11272174221E+03  0.41800000000E+01 0. -1.
</event>
<event>
11    1  0.8299058E-009  0.1399007E+03  0.7561462E-02  0.1107669E+00
         22   -1    0    0    0    0  0.00000000000E+00  0.00000000000E+00  0.34653577743E+03  0.34653577743E+03  0.00000000000E+00 0. -1.
         22   -1    0    0    0    0 -0.00000000000E+00 -0.00000000000E+00 -0.34365684632E+03  0.34365684632E+03  0.00000000000E+00 0. -1.
        -24    2    1    2    0    0  0.53070779357E+02  0.28891133170E+02 -0.25397730625E+03  0.28156155356E+03  0.10545724800E+03 0.  0.
         25    2    1    2    0    0 -0.31319105231E+02 -0.98601655594E+02  0.41071973344E+02  0.16744378222E+03  0.12508932957E+03 0.  0.
         24    2    1    2    0    0 -0.21751674126E+02  0.69710522424E+02  0.21578426402E+03  0.24118728798E+03  0.79219738836E+02 0.  0.
        -11    1    5    5    0    0 -0.11137215239E+01 -0.17795217309E+02  0.36667250909E+02  0.40772508188E+02  0.00000000000E+00 0.  1.
         12    1    5    5    0    0 -0.20637952602E+02  0.87505739733E+02  0.17911701311E+03  0.20041477979E+03  0.00000000000E+00 0. -1.
         11    1    3    3    0    0  0.40505353253E+02 -0.23378808472E+02 -0.19994311204E+03  0.20533996294E+03  0.00000000000E+00 0. -1.
        -12    1    3    3    0    0  0.12565426105E+02  0.52269941642E+02 -0.54034194206E+02  0.76221590615E+02  0.00000000000E+00 0.  1.
          5    1    4    4  501    0 -0.19044948328E+02 -0.14194515064E+02  0.72531476193E+02  0.76436128588E+02  0.41800000000E+01 0. -1.
         -5    1    4    4    0  501 -0.12274156904E+02 -0.84407140530E+02 -0.31459502849E+02  0.91007653632E+02  0.41800000000E+01 0. -1.
</event>
<event>
11    1  0.8299058E-009  0.1538242E+03  0.7561462E-02  0.1093034E+00
         22   -1    0    0    0    0  0.00000000000E+00  0.00000000000E+00  0.15095378736E+04  0.15095378736E+04  0.00000000000E+00 0. -1.
         22   -1    0    0    0    0 -0.00000000000E+00 -0.00000000000E+00 -0.11738200966E+03  0.11738200966E+03  0.00000000000E+00 0.  1.
        -24    2    1    2    0    0 -0.81355456267E+01 -0.86634228713E+02 -0.67230396464E+02  0.13614062973E+03  0.80266233040E+02 0.  0.
         25    2    1    2    0    0  0.20640401327E+02  0.13926277206E+03  0.68744818581E+03  0.71277741833E+03  0.12508594667E+03 0.  0.
         24    2    1    2    0    0 -0.12504855700E+02 -0.52628543344E+02  0.77193807462E+03  0.77800183523E+03  0.80450789873E+02 0.  0.
        -11    1    5    5    0    0 -0.12004842592E+02 -0.49832904291E+02  0.21388082061E+03  0.21993735476E+03  0.00000000000E+00 0.  1.
         12    1    5    5    0    0 -0.50001310886E+00 -0.27956390532E+01  0.55805725401E+03  0.55806448047E+03  0.00000000000E+00 0. -1.
         13    1    3    3    0    0  0.35469802956E+02 -0.27517378523E+02 -0.23995570579E+02  0.50902853063E+02  0.00000000000E+00 0. -1.
        -14    1    3    3    0    0 -0.43605348582E+02 -0.59116850190E+02 -0.43234825885E+02  0.85237776664E+02  0.00000000000E+00 0.  1.
          5    1    4    4  501    0 -0.37030954406E+02  0.61509779309E+02  0.45943119775E+03  0.46502606637E+03  0.41800000000E+01 0. -1.
         -5    1    4    4    0  501  0.57671355733E+02  0.77752992748E+02  0.22801698806E+03  0.24775135196E+03  0.41800000000E+01 0. -1.
</event>
<event>
11    1  0.8299058E-009  0.1365519E+03  0.7561462E-02  0.1111471E+00
         22   -1    0    0    0    0  0.00000000000E+00  0.00000000000E+00  0.28945477935E+03  0.28945477935E+03  0.00000000000E+00 0. -1.
         22   -1    0    0    0    0 -0.00000000000E+00 -0.00000000000E+00 -0.42008730182E+03  0.42008730182E+03  0.00000000000E+00 0. -1.
        -24    2    1    2    0    0 -0.17029601803E+02  0.65873083409E+01 -0.23646115645E+03  0.24358178832E+03  0.55541058018E+02 0.  0.
         25    2    1    2    0    0  0.60864027915E+02 -0.37864257125E+02 -0.14046088940E+03  0.20128586884E+03  0.12509439508E+03 0.  0.
         24    2    1    2    0    0 -0.43834426111E+02  0.31276948784E+02  0.24628952338E+03  0.26467442401E+03  0.80587325073E+02 0.  0.
        -11    1    5    5    0    0  0.14209050152E+02 -0.15545304595E+02  0.38131710403E+02  0.43561232070E+02  0.00000000000E+00 0.  1.
         12    1    5    5    0    0 -0.58043476263E+02  0.46822253378E+02  0.20815781298E+03  0.22111319194E+03  0.00000000000E+00 0. -1.
         13    1    3    3    0    0 -0.46496634067E+00 -0.68403918497E+01 -0.20752129801E+03  0.20763452574E+03  0.00000000000E+00 0. -1.
        -14    1    3    3    0    0 -0.16564635463E+02  0.13427700191E+02 -0.28939858439E+02  0.35947262579E+02  0.00000000000E+00 0.  1.
          5    1    4    4  501    0 -0.42235987379E+01  0.34637148388E+02 -0.67430370858E+01  0.35784239323E+02  0.41800000000E+01 0. -1.
         -5    1    4    4    0  501  0.65087626652E+02 -0.72501405513E+02 -0.13371785231E+03  0.16550162952E+03  0.41800000000E+01 0. -1.
</event>
<event>
11    1  0.8299058E-009  0.3254934E+03  0.7561462E-02  0.9899441E-01
         22   -1    0    0    0    0  0.00000000000E+00  0.00000000000E+00  0.30270127468E+04  0.30270127468E+04  0.00000000000E+00 0.  1.
         22   -1    0    0    0    0 -0.00000000000E+00 -0.00000000000E+00 -0.75595502583E+02  0.75595502583E+02  0.00000000000E+00 0. -1.
         24    2    1    2    0    0  0.82223236914E+02  0.28649217721E+03  0.35058006205E+03  0.46704987760E+03  0.79942354048E+02 0.  0.
         25    2    1    2    0    0 -0.85812480840E+02 -0.29979477467E+03  0.18858415982E+04  0.19155383334E+04  0.12509150555E+03 0.  0.
        -24    2    1    2    0    0  0.35892439268E+01  0.13302597463E+02  0.71499558398E+03  0.72002003831E+03  0.83787401698E+02 0.  0.
        -13    1    3    3    0    0  0.53674067270E+02  0.13777906108E+03  0.23021790326E+03  0.27361333694E+03  0.00000000000E+00 0.  1.
         14    1    3    3    0    0  0.28549169644E+02  0.14871311612E+03  0.12036215880E+03  0.19343654067E+03  0.00000000000E+00 0. -1.
         11    1    5    5    0    0 -0.34927461147E+02 -0.12505743281E+02  0.38500917747E+03  0.38679243515E+03  0.00000000000E+00 0. -1.
        -12    1    5    5    0    0  0.38516705074E+02  0.25808340744E+02  0.32998640652E+03  0.33322760316E+03  0.00000000000E+00 0.  1.
          5    1    4    4  501    0  0.16547699381E+02 -0.66878495825E+02  0.65788953657E+03  0.66150032070E+03  0.41800000000E+01 0. -1.
         -5    1    4    4    0  501 -0.10236018022E+03 -0.23291627885E+03  0.12279520616E+04  0.12540380127E+04  0.41800000000E+01 0. -1.
</event>
<event>
11    1  0.8299058E-009  0.1377138E+03  0.7561462E-02  0.1110138E+00
         22   -1    0    0    0    0  0.00000000000E+00  0.00000000000E+00  0.20393622122E+04  0.20393622122E+04  0.00000000000E+00 0.  1.
         22   -1    0    0    0    0 -0.00000000000E+00 -0.00000000000E+00 -0.61935915434E+03  0.61935915434E+03  0.00000000000E+00 0. -1.
        -24    2    1    2    0    0 -0.53295616189E+02 -0.20354128900E+02 -0.53970204062E+03  0.54859216203E+03  0.80127113513E+02 0.  0.
         25    2    1    2    0    0  0.69339839660E+02  0.28669807343E+01 -0.54578852144E+01  0.14315650048E+03  0.12509101557E+03 0.  0.
         24    2    1    2    0    0 -0.16044223471E+02  0.17487148166E+02  0.19651629837E+04  0.19669727040E+04  0.80949665964E+02 0.  0.
        -13    1    5    5    0    0  0.39926830738E+01  0.29513417972E+01  0.17961210887E+04  0.17961279513E+04  0.00000000000E+00 0.  1.
         14    1    5    5    0    0 -0.20036906545E+02  0.14535806369E+02  0.16904189498E+03  0.17084475277E+03  0.00000000000E+00 0. -1.
         11    1    3    3    0    0 -0.10820538873E+02 -0.41699123229E+02 -0.36516454099E+03  0.36769694442E+03  0.00000000000E+00 0. -1.
        -12    1    3    3    0    0 -0.42475077316E+02  0.21344994329E+02 -0.17453749963E+03  0.18089521761E+03  0.00000000000E+00 0.  1.
          5    1    4    4  501    0  0.86423841772E+02  0.41082644104E+02 -0.21442231740E+02  0.98153480708E+02  0.41800000000E+01 0. -1.
         -5    1    4    4    0  501 -0.17084002112E+02 -0.38215663370E+02  0.15984346526E+02  0.45003019775E+02  0.41800000000E+01 0. -1.
</event>
<event>
11    1  0.8299058E-009  0.1403047E+03  0.7561462E-02  0.1107219E+00
         22   -1    0    0    0    0  0.00000000000E+00  0.00000000000E+00  0.13688034947E+03  0.13688034947E+03  0.00000000000E+00 0.  1.
         22   -1    0    0    0    0 -0.00000000000E+00 -0.00000000000E+00 -0.39632413505E+03  0.39632413505E+03  0.00000000000E+00 0.  1.
         24    2    1    2    0    0 -0.44496786072E+02 -0.35877296678E+02 -0.18668156782E+03  0.21127694395E+03  0.80751438950E+02 0.  0.
         25    2    1    2    0    0  0.61099484407E+02  0.50961806015E+02 -0.14694745201E+03  0.20874018718E+03  0.12509460190E+03 0.  0.
        -24    2    1    2    0    0 -0.16602698335E+02 -0.15084509337E+02  0.74185234247E+02  0.11318735339E+03  0.82490823564E+02 0.  0.
        -11    1    3    3    0    0 -0.41167015347E+02 -0.49278497333E+01 -0.17187826160E+03  0.17680821153E+03  0.00000000000E+00 0.  1.
         12    1    3    3    0    0 -0.33297707251E+01 -0.30949446945E+02 -0.14803306225E+02  0.34468732418E+02  0.00000000000E+00 0. -1.
         13    1    5    5    0    0 -0.44190338212E+02  0.89473597827E+01  0.23986855590E+02  0.51070642050E+02  0.00000000000E+00 0. -1.
        -14    1    5    5    0    0  0.27587639877E+02 -0.24031869119E+02  0.50198378658E+02  0.62116711336E+02  0.00000000000E+00 0.  1.
          5    1    4    4  501    0  0.78038237151E+00  0.49565226511E+02 -0.13913095142E+03  0.14775728313E+03  0.41800000000E+01 0. -1.
         -5    1    4    4    0  501  0.60319102035E+02  0.13965795035E+01 -0.78165005894E+01  0.60982904048E+02  0.41800000000E+01 0. -1.
</event>
<event>
11    1  0.8299058E-009  0.1754077E+03  0.7561462E-02  0.1073419E+00
         22   -1    0    0    0    0  0.00000000000E+00  0.00000000000E+00  0.69887591176E+03  0.69887591176E+03  0.00000000000E+00 0. -1.
         22   -1    0    0    0    0 -0.00000000000E+00 -0.00000000000E+00 -0.24017634610E+04  0.24017634610E+04  0.00000000000E+00 0.  1.
         24    2    1    2    0    0 -0.10679473753E+03 -0.59033478402E+02 -0.19521879455E+04  0.19572291289E+04  0.69411967129E+02 0.  0.
         25    2    1    2    0    0  0.91902684623E+02  0.10092179476E+03 -0.42460567789E+03  0.46321583838E+03  0.12509044382E+03 0.  0.
        -24    2    1    2    0    0  0.14892052910E+02 -0.41888316359E+02  0.67390607411E+03  0.68019440544E+03  0.80861784428E+02 0.  0.
        -13    1    3    3    0    0 -0.81472163204E+02 -0.67148773759E+01 -0.10573976767E+04  0.10605529924E+04  0.00000000000E+00 0.  1.
         14    1    3    3    0    0 -0.25322574329E+02 -0.52318601026E+02 -0.89479026875E+03  0.89667613654E+03  0.00000000000E+00 0. -1.
         11    1    5    5    0    0 -0.10023321990E+01  0.37102875213E+01  0.49118633175E+03  0.49120136746E+03  0.00000000000E+00 0. -1.
        -12    1    5    5    0    0  0.15894385109E+02 -0.45598603881E+02  0.18271974237E+03  0.18899303798E+03  0.00000000000E+00 0.  1.
          5    1    4    4  501    0 -0.11272784647E+02  0.50024596704E+02 -0.51672701969E+02  0.72918286307E+02  0.41800000000E+01 0. -1.
         -5    1    4    4    0  501  0.10317546927E+03  0.50897198058E+02 -0.37293297592E+03  0.39029755207E+03  0.41800000000E+01 0. -1.
</event>
<event>
11    1  0.8299058E-009  0.2501618E+03  0.7561462E-02  0.1023813E+00
         22   -1    0    0    0    0  0.00000000000E+00  0.00000000000E+00  0.15427328721E+03  0.15427328721E+03  0.00000000000E+00 0. -1.
         22   -1    0    0    0    0 -0.00000000000E+00 -0.00000000000E+00 -0.78242193702E+03  0.78242193702E+03  0.00000000000E+00 0. -1.
         24    2    1    2    0    0 -0.20302858362E+03  0.76061816161E+02 -0.42681459301E+03  0.48556149400E+03  0.81198903928E+02 0.  0.
         25    2    1    2    0    0  0.16109958152E+03 -0.16664541514E+03 -0.18601096417E+03  0.32244852506E+03  0.12509677443E+03 0.  0.
        -24    2    1    2    0    0  0.41929002102E+02  0.90583598976E+02 -0.15323092626E+02  0.12868520517E+03  0.79759985215E+02 0.  0.
        -13    1    3    3    0    0 -0.93458405484E+02  0.34305777594E+02 -0.28301629029E+03  0.30001596708E+03  0.00000000000E+00 0.  1.
         14    1    3    3    0    0 -0.10957017814E+03  0.41756038567E+02 -0.14379830272E+03  0.18554552692E+03  0.00000000000E+00 0. -1.
         13    1    5    5    0    0  0.35982008981E+02  0.87286174536E+01 -0.26949757430E+02  0.45795012376E+02  0.00000000000E+00 0. -1.
        -14    1    5    5    0    0  0.59469931212E+01  0.81854981522E+02  0.11626664804E+02  0.82890192795E+02  0.00000000000E+00 0.  1.
          5    1    4    4  501    0  0.17371682026E+03 -0.14028545316E+03 -0.18927699538E+03  0.29274698186E+03  0.41800000000E+01 0.  1.
         -5    1    4    4    0  501 -0.12617238741E+02 -0.26359961973E+02  0.32660312052E+01  0.29701543201E+02  0.41800000000E+01 0.  1.
</event>
<event>
11    1  0.8299058E-009  0.2146044E+03  0.7561462E-02  0.1044651E+00
         22   -1    0    0    0    0  0.00000000000E+00  0.00000000000E+00  0.71033163335E+03  0.71033163335E+03  0.00000000000E+00 0. -1.
         22   -1    0    0    0    0 -0.00000000000E+00 -0.00000000000E+00 -0.32028482572E+04  0.32028482572E+04  0.00000000000E+00 0.  1.
        -24    2    1    2    0    0  0.77463288437E+02  0.15628718994E+03 -0.31121992095E+04  0.31180846874E+04  0.79006022518E+02 0.  0.
         25    2    1    2    0    0 -0.59314731896E+02 -0.16248568953E+03  0.49816720475E+02  0.21920055636E+03  0.12508933427E+03 0.  0.
         24    2    1    2    0    0 -0.18148556541E+02  0.61984995902E+01  0.56986586515E+03  0.57589464679E+03  0.80868711142E+02 0.  0.
        -13    1    5    5    0    0 -0.12002108471E+02  0.32800455465E+02  0.11444451167E+03  0.11965561724E+03  0.00000000000E+00 0.  1.
         14    1    5    5    0    0 -0.61464480698E+01 -0.26601955875E+02  0.45542135348E+03  0.45623902955E+03  0.00000000000E+00 0. -1.
         13    1    3    3    0    0  0.97885386384E+01  0.78879258999E+02 -0.18490812248E+04  0.18507887856E+04  0.00000000000E+00 0. -1.
        -14    1    3    3    0    0  0.67674749799E+02  0.77407930939E+02 -0.12631179847E+04  0.12672959018E+04  0.00000000000E+00 0.  1.
          5    1    4    4  501    0 -0.37796631025E+02 -0.67643488768E+02 -0.39514414753E+02  0.87080929387E+02  0.41800000000E+01 0. -1.
         -5    1    4    4    0  501 -0.21518100871E+02 -0.94842200760E+02  0.89331135228E+02  0.13211962697E+03  0.41800000000E+01 0. -1.
</event>
<event>
11    1  0.8299058E-009  0.1482955E+03  0.7561462E-02  0.1098633E+00
         22   -1    0    0    0    0  0.00000000000E+00  0.00000000000E+00  0.21816164193E+03  0.21816164193E+03  0.00000000000E+00 0.  1.
         22   -1    0    0    0    0 -0.00000000000E+00 -0.00000000000E+00 -0.11213251156E+04  0.11213251156E+04  0.00000000000E+00 0. -1.
         24    2    1    2    0    0 -0.75991089303E+02 -0.48084258313E+01 -0.10148976942E+04  0.10210659510E+04  0.82222745565E+02 0.  0.
         25    2    1    2    0    0  0.29732351051E+02  0.77711093765E+02 -0.10050419336E+02  0.15060846831E+03  0.12513541867E+03 0.  0.
        -24    2    1    2    0    0  0.46258738252E+02 -0.72902667934E+02  0.12178463992E+03  0.16781233822E+03  0.76647325336E+02 0.  0.
        -11    1    3    3    0    0  0.17933979632E+02  0.91639618072E+00 -0.16695355657E+03  0.16791651931E+03  0.00000000000E+00 0.  1.
         12    1    3    3    0    0 -0.93925068935E+02 -0.57248220120E+01 -0.84794413765E+03  0.85314943166E+03  0.00000000000E+00 0. -1.
         13    1    5    5    0    0  0.39090547962E+02 -0.67095159709E+01  0.79764153731E+02  0.89080911339E+02  0.00000000000E+00 0. -1.
        -14    1    5    5    0    0  0.71681902899E+01 -0.66193151963E+02  0.42020486189E+02  0.78731426879E+02  0.00000000000E+00 0.  1.
          5    1    4    4  501    0 -0.15227908698E+02  0.90419747713E+02 -0.34070661213E+02  0.97907621436E+02  0.41800000000E+01 0. -1.
         -5    1    4    4    0  501  0.44960259749E+02 -0.12708653948E+02  0.24020241877E+02  0.52700846878E+02  0.41800000000E+01 0. -1.
</event>
<event>
11    1  0.8299058E-009  0.1629813E+03  0.7561462E-02  0.1084306E+00
         22   -1    0    0    0    0  0.00000000000E+00  0.00000000000E+00  0.55945824655E+03  0.55945824655E+03  0.00000000000E+00 0.  1.
         22   -1    0    0    0    0 -0.00000000000E+00 -0.00000000000E+00 -0.21173576911E+04  0.21173576911E+04  0.00000000000E+00 0.  1.
        -24    2    1    2    0    0 -0.41074577123E+01 -0.11315199557E+02 -0.20292205326E+04  0.20307629681E+04  0.78213540249E+02 0.  0.
         25    2    1    2    0    0 -0.98574271281E+02  0.31557950331E+02  0.61179387616E+01  0.16247690784E+03  0.12509406548E+03 0.  0.
         24    2    1    2    0    0  0.10268172899E+03 -0.20242750774E+02  0.46520314923E+03  0.48357606172E+03  0.80489322179E+02 0.  0.
        -13    1    5    5    0    0  0.61054677331E+02  0.16484174600E+02  0.35033467706E+03  0.35599689267E+03  0.00000000000E+00 0.  1.
         14    1    5    5    0    0  0.41627051662E+02 -0.36726925374E+02  0.11486847217E+03  0.12757916905E+03  0.00000000000E+00 0. -1.
         11    1    3    3    0    0 -0.35811825414E+01 -0.10263216007E+01 -0.38184207934E+01  0.53346547947E+01  0.00000000000E+00 0. -1.
        -12    1    3    3    0    0 -0.52627517085E+00 -0.10288877956E+02 -0.20254021118E+04  0.20254283133E+04  0.00000000000E+00 0.  1.
          5    1    4    4  501    0 -0.10241665908E+03  0.69247597064E+02 -0.99101343468E+00  0.12370471399E+03  0.41800000000E+01 0. -1.
         -5    1    4    4    0  501  0.38423877945E+01 -0.37689646733E+02  0.71089521962E+01  0.38772193853E+02  0.41800000000E+01 0. -1.
</event>
<event>
11    1  0.8299058E-009  0.1325181E+03  0.7561462E-02  0.1116213E+00
         22   -1    0    0    0    0  0.00000000000E+00  0.00000000000E+00  0.13066008845E+04  0.13066008845E+04  0.00000000000E+00 0.  1.
         22   -1    0    0    0    0 -0.00000000000E+00 -0.00000000000E+00 -0.66675308731E+03  0.66675308731E+03  0.00000000000E+00 0.  1.
         24    2    1    2    0    0 -0.15198816054E+02 -0.42164261117E+02 -0.61320835538E+03  0.62120697247E+03  0.88683632151E+02 0.  0.
         25    2    1    2    0    0  0.16322398262E+02  0.16209424417E+02  0.36012922493E+02  0.13219198141E+03  0.12509445726E+03 0.  0.
        -24    2    1    2    0    0 -0.11235822073E+01  0.25954836700E+02  0.12170432301E+04  0.12199550180E+04  0.80131803475E+02 0.  0.
        -13    1    3    3    0    0 -0.91921059504E+01 -0.32459616245E+02 -0.60751786207E+03  0.60845383903E+03  0.00000000000E+00 0.  1.
         14    1    3    3    0    0 -0.60067101040E+01 -0.97046448727E+01 -0.56904933115E+01  0.12753133439E+02  0.00000000000E+00 0. -1.
         13    1    5    5    0    0  0.17646716751E+02  0.37304184013E+00  0.61670272346E+02  0.64146459478E+02  0.00000000000E+00 0. -1.
        -14    1    5    5    0    0 -0.18770298958E+02  0.25581794860E+02  0.11553729578E+04  0.11558085585E+04  0.00000000000E+00 0.  1.
          5    1    4    4  501    0 -0.44136310787E+02  0.41857477920E+02  0.12003140512E+02  0.62141855217E+02  0.41800000000E+01 0.  1.
         -5    1    4    4    0  501  0.60458709048E+02 -0.25648053503E+02  0.24009781981E+02  0.70050126189E+02  0.41800000000E+01 0.  1.
</event>
<event>
11    1  0.8299058E-009  0.1577093E+03  0.7561462E-02  0.1089252E+00
         22   -1    0    0    0    0  0.00000000000E+00  0.00000000000E+00  0.14138584180E+04  0.14138584180E+04  0.00000000000E+00 0.  1.
         22   -1    0    0    0    0 -0.00000000000E+00 -0.00000000000E+00 -0.25521462966E+03  0.25521462966E+03  0.00000000000E+00 0.  1.
         24    2    1    2    0    0 -0.33910362182E+02  0.88997114212E+02 -0.20725810286E+03  0.24122406912E+03  0.78503065677E+02 0.  0.
         25    2    1    2    0    0  0.16366326830E+02 -0.10836335241E+03  0.20715679012E+03  0.26565370705E+03  0.12508990199E+03 0.  0.
        -24    2    1    2    0    0  0.17544035352E+02  0.19366238198E+02  0.11587451011E+04  0.11621952715E+04  0.85585018756E+02 0.  0.
        -13    1    3    3    0    0 -0.39856616885E+02  0.60903983666E+02 -0.19815514451E+03  0.21110022840E+03  0.00000000000E+00 0.  1.
         14    1    3    3    0    0  0.59462547029E+01  0.28093130546E+02 -0.91029583489E+01  0.30123840717E+02  0.00000000000E+00 0. -1.
         13    1    5    5    0    0 -0.34403623438E+01 -0.28836801119E+02  0.21049385831E+03  0.21248779160E+03  0.00000000000E+00 0. -1.
        -14    1    5    5    0    0  0.20984397695E+02  0.48203039317E+02  0.94825124278E+03  0.94970747990E+03  0.00000000000E+00 0.  1.
          5    1    4    4  501    0  0.57672765083E+02 -0.10850993071E+02  0.57459989853E+02  0.82237550528E+02  0.41800000000E+01 0. -1.
         -5    1    4    4    0  501 -0.41306438252E+02 -0.97512359339E+02  0.14969680027E+03  0.18341615653E+03  0.41800000000E+01 0. -1.
</event>
<event>
11    1  0.8299058E-009  0.2338144E+03  0.7561462E-02  0.1032893E+00
         22   -1    0    0    0    0  0.00000000000E+00  0.00000000000E+00  0.60688755686E+02  0.60688755686E+02  0.00000000000E+00 0. -1.
         22   -1    0    0    0    0 -0.00000000000E+00 -0.00000000000E+00 -0.13942593961E+04  0.13942593961E+04  0.00000000000E+00 0.  1.
         24    2    1    2    0    0 -0.52818577931E+02 -0.11315109881E+02 -0.29091276115E+03  0.30629394180E+03  0.79170135159E+02 0.  0.
         25    2    1    2    0    0 -0.84165777824E+02 -0.14825096183E+03 -0.74946754193E+03  0.77872428711E+03  0.12509073946E+03 0.  0.
        -24    2    1    2    0    0  0.13698435575E+03  0.15956607171E+03 -0.29319033736E+03  0.36992992289E+03  0.81618190151E+02 0.  0.
        -13    1    3    3    0    0 -0.19138270810E+02 -0.44040205646E+02 -0.12654576692E+03  0.13535008034E+03  0.00000000000E+00 0.  1.
         14    1    3    3    0    0 -0.33680307122E+02  0.32725095764E+02 -0.16436699423E+03  0.17094386146E+03  0.00000000000E+00 0. -1.
         13    1    5    5    0    0  0.13634989895E+03  0.16601306384E+03 -0.26568792557E+03  0.34167485436E+03  0.00000000000E+00 0. -1.
        -14    1    5    5    0    0  0.63445680167E+00 -0.64469921306E+01 -0.27502411796E+02  0.28255068528E+02  0.00000000000E+00 0.  1.
          5    1    4    4  501    0 -0.27966579956E+02 -0.12061121469E+03 -0.29518972433E+03  0.32013066153E+03  0.41800000000E+01 0. -1.
         -5    1    4    4    0  501 -0.56199197868E+02 -0.27639747144E+02 -0.45427781760E+03  0.45859362558E+03  0.41800000000E+01 0. -1.
</event>
<event>
11    1  0.8299058E-009  0.1572474E+03  0.7561462E-02  0.1089695E+00
         22   -1    0    0    0    0  0.00000000000E+00  0.00000000000E+00  0.54056985440E+03  0.54056985440E+03  0.00000000000E+00 0.  1.
         22   -1    0    0    0    0 -0.00000000000E+00 -0.00000000000E+00 -0.30278349276E+03  0.30278349276E+03  0.00000000000E+00 0.  1.
         24    2    1    2    0    0  0.14813433363E+02  0.54121144186E+02 -0.23508345999E+03  0.25468977560E+03  0.80337491742E+02 0.  0.
         25    2    1    2    0    0  0.16749626431E+02 -0.13537873357E+03  0.13180986572E+03  0.22721820480E+03  0.12508525253E+03 0.  0.
        -24    2    1    2    0    0 -0.31563059794E+02  0.81257589383E+02  0.34105995591E+03  0.36144536677E+03  0.81986810260E+02 0.  0.
        -11    1    3    3    0    0  0.76587969195E+00  0.71169567446E+02 -0.20740197494E+03  0.21927442421E+03  0.00000000000E+00 0.  1.
         12    1    3    3    0    0  0.14047553671E+02 -0.17048423260E+02 -0.27681485042E+02  0.35415351388E+02  0.00000000000E+00 0. -1.
         11    1    5    5    0    0  0.13268947392E+02  0.16238844643E+02  0.14560521520E+02  0.25529861480E+02  0.00000000000E+00 0. -1.
        -12    1    5    5    0    0 -0.44832007186E+02  0.65018744739E+02  0.32649943439E+03  0.33591550529E+03  0.00000000000E+00 0.  1.
          5    1    4    4  501    0  0.37835404018E+01  0.24098300191E+02  0.21995944605E+02  0.33110983512E+02  0.41800000000E+01 0. -1.
         -5    1    4    4    0  501  0.12966086030E+02 -0.15947703376E+03  0.10981392112E+03  0.19410722128E+03  0.41800000000E+01 0. -1.
</event>
<event>
11    1  0.8299058E-009  0.1359218E+03  0.7561462E-02  0.1112200E+00
         22   -1    0    0    0    0  0.00000000000E+00  0.00000000000E+00  0.13292879278E+04  0.13292879278E+04  0.00000000000E+00 0.  1.
         22   -1    0    0    0    0 -0.00000000000E+00 -0.00000000000E+00 -0.19674574785E+03  0.19674574785E+03  0.00000000000E+00 0.  1.
         24    2    1    2    0    0 -0.71974914623E+01 -0.60583002313E+02 -0.11947004102E+03  0.15766314835E+03  0.82840048240E+02 0.  0.
         25    2    1    2    0    0  0.13285181311E+02  0.21992487597E+02  0.15580798983E+02  0.12864404212E+03  0.12508542171E+03 0.  0.
        -24    2    1    2    0    0 -0.60876898483E+01  0.38590514717E+02  0.12364314220E+04  0.12397264852E+04  0.81442059048E+02 0.  0.
        -13    1    3    3    0    0  0.63709846873E+01  0.10019604373E+02 -0.68530414591E+02  0.69551417251E+02  0.00000000000E+00 0.  1.
         14    1    3    3    0    0 -0.13568476150E+02 -0.70602606686E+02 -0.50939626432E+02  0.88111731097E+02  0.00000000000E+00 0. -1.
         11    1    5    5    0    0 -0.18149711269E+02  0.35987150967E+02  0.25081148737E+03  0.25402930786E+03  0.00000000000E+00 0. -1.
        -12    1    5    5    0    0  0.12062021420E+02  0.26033637493E+01  0.98561993461E+03  0.98569717731E+03  0.00000000000E+00 0.  1.
          5    1    4    4  501    0  0.57312551642E+02  0.47488211973E+02  0.20622875497E+02  0.77347490236E+02  0.41800000000E+01 0.  1.
         -5    1    4    4    0  501 -0.44027370331E+02 -0.25495724377E+02 -0.50420765148E+01  0.51296551885E+02  0.41800000000E+01 0.  1.
</event>
<event>
11    1  0.8299058E-009  0.2314137E+03  0.7561462E-02  0.1034294E+00
         22   -1    0    0    0    0  0.00000000000E+00  0.00000000000E+00  0.36003842681E+04  0.36003842681E+04  0.00000000000E+00 0.  1.
         22   -1    0    0    0    0 -0.00000000000E+00 -0.00000000000E+00 -0.56718194178E+02  0.56718194178E+02  0.00000000000E+00 0.  1.
         24    2    1    2    0    0  0.16743887802E+03 -0.10279516732E+03  0.20597674671E+03  0.29577775660E+03  0.80345733024E+02 0.  0.
         25    2    1    2    0    0 -0.17179929273E+03  0.75998751700E+02  0.11436051198E+04  0.11656639165E+04  0.12509551912E+03 0.  0.
        -24    2    1    2    0    0  0.43604147034E+01  0.26796415622E+02  0.21940842075E+04  0.21956607893E+04  0.78636702055E+02 0.  0.
        -11    1    3    3    0    0  0.11450681842E+03 -0.11005701345E+03  0.15239247159E+03  0.22010866196E+03  0.00000000000E+00 0.  1.
         12    1    3    3    0    0  0.52932059600E+02  0.72618461264E+01  0.53584275116E+02  0.75669094632E+02  0.00000000000E+00 0. -1.
         11    1    5    5    0    0 -0.17562349311E+02 -0.22549244084E+02  0.89108242513E+03  0.89154068493E+03  0.00000000000E+00 0. -1.
        -12    1    5    5    0    0  0.21922764015E+02  0.49345659706E+02  0.13030017823E+04  0.13041201043E+04  0.00000000000E+00 0.  1.
          5    1    4    4  501    0 -0.39522588958E+02  0.19738138754E+01  0.63300378295E+02  0.74768584789E+02  0.41800000000E+01 0.  1.
         -5    1    4    4    0  501 -0.13227670377E+03  0.74024937825E+02  0.10803047415E+04  0.10908953317E+04  0.41800000000E+01 0.  1.
</event>
<event>
11    1  0.8299058E-009  0.1432167E+03  0.7561462E-02  0.1104019E+00
         22   -1    0    0    0    0  0.00000000000E+00  0.00000000000E+00  0.67203892043E+03  0.67203892043E+03  0.00000000000E+00 0. -1.
         22   -1    0    0    0    0 -0.00000000000E+00 -0.00000000000E+00 -0.13145218135E+04  0.13145218135E+04  0.00000000000E+00 0. -1.
         24    2    1    2    0    0 -0.67670412434E+02 -0.10664213064E+02 -0.12032930505E+04  0.12078716525E+04  0.79666513227E+02 0.  0.
         25    2    1    2    0    0  0.10085940248E+03  0.24970494199E+02 -0.43151035185E+02  0.16824136881E+03  0.12508797581E+03 0.  0.
        -24    2    1    2    0    0 -0.33188990049E+02 -0.14306281135E+02  0.60396119260E+03  0.61044771265E+03  0.81062377058E+02 0.  0.
        -13    1    3    3    0    0 -0.69218917109E+02 -0.64131219590E+01 -0.52718297376E+03  0.53174643811E+03  0.00000000000E+00 0.  1.
         14    1    3    3    0    0  0.15485046750E+01 -0.42510911048E+01 -0.67611007674E+03  0.67612521437E+03  0.00000000000E+00 0. -1.
         11    1    5    5    0    0 -0.36274157858E+02  0.14815601861E+02  0.52096620032E+03  0.52243765031E+03  0.00000000000E+00 0. -1.
        -12    1    5    5    0    0  0.30851678094E+01 -0.29121882996E+02  0.82994992283E+02  0.88010062344E+02  0.00000000000E+00 0.  1.
          5    1    4    4  501    0  0.76904532323E+02  0.27834824122E+01  0.34095484454E+02  0.84273538707E+02  0.41800000000E+01 0.  1.
         -5    1    4    4    0  501  0.23954870161E+02  0.22187011787E+02 -0.77246519639E+02  0.83967830106E+02  0.41800000000E+01 0.  1.
</event>
<event>
11    1  0.8299058E-009  0.1733511E+03  0.7561462E-02  0.1075152E+00
         22   -1    0    0    0    0  0.00000000000E+00  0.00000000000E+00  0.13308215201E+04  0.13308215201E+04  0.00000000000E+00 0. -1.
         22   -1    0    0    0    0 -0.00000000000E+00 -0.00000000000E+00 -0.59877184853E+03  0.59877184853E+03  0.00000000000E+00 0. -1.
         24    2    1    2    0    0 -0.20973073034E+02 -0.24315000565E+01 -0.55784328605E+03  0.56414051191E+03  0.81360945147E+02 0.  0.
         25    2    1    2    0    0  0.11581082608E+03 -0.67903300661E+02  0.22160925134E+03  0.28771737562E+03  0.12509045636E+03 0.  0.
        -24    2    1    2    0    0 -0.94837753043E+02  0.70334800718E+02  0.10682837063E+04  0.10777354811E+04  0.79639855288E+02 0.  0.
        -11    1    3    3    0    0 -0.68203345482E+01 -0.32966851402E+02 -0.11004472468E+03  0.11507898021E+03  0.00000000000E+00 0.  1.
         12    1    3    3    0    0 -0.14152738486E+02  0.30535351346E+02 -0.44779856137E+03  0.44906153170E+03  0.00000000000E+00 0. -1.
         13    1    5    5    0    0 -0.88618951677E+02  0.84736343977E+02  0.10085735442E+04  0.10159990948E+04  0.00000000000E+00 0. -1.
        -14    1    5    5    0    0 -0.62188013654E+01 -0.14401543259E+02  0.59710162136E+02  0.61736386362E+02  0.00000000000E+00 0.  1.
          5    1    4    4  501    0 -0.10308767645E+02 -0.35429527225E+01 -0.10562639055E+02  0.15743727264E+02  0.41800000000E+01 0. -1.
         -5    1    4    4    0  501  0.12611959372E+03 -0.64360347939E+02  0.23217189040E+03  0.27197364835E+03  0.41800000000E+01 0. -1.
</event>
<event>
11    1  0.8299058E-009  0.2107740E+03  0.7561462E-02  0.1047156E+00
         22   -1    0    0    0    0  0.00000000000E+00  0.00000000000E+00  0.18489093632E+04  0.18489093632E+04  0.00000000000E+00 0.  1.
         22   -1    0    0    0    0 -0.00000000000E+00 -0.00000000000E+00 -0.16680380095E+03  0.16680380095E+03  0.00000000000E+00 0.  1.
         24    2    1    2    0    0  0.13190914575E+02  0.25339073985E+02 -0.92512028183E+02  0.12608510976E+03  0.80764538304E+02 0.  0.
         25    2    1    2    0    0  0.51802426260E+02 -0.18014698061E+03  0.19185760742E+03  0.29596132684E+03  0.12508932597E+03 0.  0.
        -24    2    1    2    0    0 -0.64993340835E+02  0.15480790662E+03  0.15827599830E+04  0.15936667275E+04  0.80342096018E+02 0.  0.
        -13    1    3    3    0    0  0.45081826986E+02  0.19520788539E+02 -0.73796843616E+02  0.88653293438E+02  0.00000000000E+00 0.  1.
         14    1    3    3    0    0 -0.31890912412E+02  0.58182854463E+01 -0.18715184566E+02  0.37431816324E+02  0.00000000000E+00 0. -1.
         13    1    5    5    0    0  0.47747115971E+01  0.27462211304E+02  0.99948925890E+02  0.10376299296E+03  0.00000000000E+00 0. -1.
        -14    1    5    5    0    0 -0.69768052432E+02  0.12734569532E+03  0.14828110571E+04  0.14899037346E+04  0.00000000000E+00 0.  1.
          5    1    4    4  501    0  0.58073262898E+01 -0.10561694297E+02  0.93865634799E+02  0.94728581861E+02  0.41800000000E+01 0. -1.
         -5    1    4    4    0  501  0.45995099970E+02 -0.16958528631E+03  0.97991972625E+02  0.20123274498E+03  0.41800000000E+01 0. -1.
</event>
<event>
11    1  0.8299058E-009  0.1666465E+03  0.7561462E-02  0.1080987E+00
         22   -1    0    0    0    0  0.00000000000E+00  0.00000000000E+00  0.10644621519E+04  0.10644621519E+04  0.00000000000E+00 0.  1.
         22   -1    0    0    0    0 -0.00000000000E+00 -0.00000000000E+00 -0.27236232979E+03  0.27236232979E+03  0.00000000000E+00 0. -1.
         24    2    1    2    0    0 -0.11039003695E+03  0.34880802102E+02 -0.20140213590E+03  0.24580807924E+03  0.80350238726E+02 0.  0.
         25    2    1    2    0    0  0.80686810035E+02 -0.76435838909E+01  0.73105462119E+02  0.16603131931E+03  0.12511276798E+03 0.  0.
        -24    2    1    2    0    0  0.29703226911E+02 -0.27237218212E+02  0.92039649587E+03  0.92498508313E+03  0.82725731469E+02 0.  0.
        -13    1    3    3    0    0 -0.99135975858E+02  0.46487648634E+02 -0.11849151115E+03  0.16133592718E+03  0.00000000000E+00 0.  1.
         14    1    3    3    0    0 -0.11254061088E+02 -0.11606846531E+02 -0.82910624749E+02  0.84472152060E+02  0.00000000000E+00 0. -1.
         13    1    5    5    0    0  0.37555734877E+02  0.21023659572E+02  0.41114207055E+03  0.41338871496E+03  0.00000000000E+00 0. -1.
        -14    1    5    5    0    0 -0.78525079656E+01 -0.48260877783E+02  0.50925442532E+03  0.51159636816E+03  0.00000000000E+00 0.  1.
          5    1    4    4  501    0  0.10822267011E+03 -0.21926378967E+02  0.33331103791E+02  0.11541814113E+03  0.41800000000E+01 0. -1.
         -5    1    4    4    0  501 -0.27535860080E+02  0.14282795076E+02  0.39774358328E+02  0.50613178184E+02  0.41800000000E+01 0. -1.
</event>
<event>
11    1  0.8299058E-009  0.1265033E+03  0.7561462E-02  0.1123641E+00
         22   -1    0    0    0    0  0.00000000000E+00  0.00000000000E+00  0.28806296970E+03  0.28806296970E+03  0.00000000000E+00 0.  1.
         22   -1    0    0    0    0 -0.00000000000E+00 -0.00000000000E+00 -0.62993285398E+03  0.62993285398E+03  0.00000000000E+00 0.  1.
        -24    2    1    2    0    0  0.24494451198E+02  0.15278188638E+01 -0.39086012800E+03  0.39987251633E+03  0.80771760434E+02 0.  0.
         25    2    1    2    0    0  0.25345173800E+01  0.46580234561E+01 -0.21074961367E+03  0.24513273221E+03  0.12508611345E+03 0.  0.
         24    2    1    2    0    0 -0.27028968578E+02 -0.61858423199E+01  0.25973985740E+03  0.27299057514E+03  0.79310975332E+02 0.  0.
        -13    1    5    5    0    0 -0.10551096272E+01  0.35125949250E+02  0.11457426756E+03  0.11984243136E+03  0.00000000000E+00 0.  1.
         14    1    5    5    0    0 -0.25973858951E+02 -0.41311791570E+02  0.14516558984E+03  0.15314814379E+03  0.00000000000E+00 0. -1.
         13    1    3    3    0    0  0.33541063757E+02  0.20994458623E+02 -0.90824516081E+02  0.99069990271E+02  0.00000000000E+00 0. -1.
        -14    1    3    3    0    0 -0.90466125594E+01 -0.19466639759E+02 -0.30003561192E+03  0.30080252606E+03  0.00000000000E+00 0.  1.
          5    1    4    4  501    0  0.55958629458E+02 -0.20623961971E+02 -0.67822765583E+02  0.90410817658E+02  0.41800000000E+01 0.  1.
         -5    1    4    4    0  501 -0.53424112078E+02  0.25281985427E+02 -0.14292684809E+03  0.15472191455E+03  0.41800000000E+01 0.  1.
</event>
<event>
11    1  0.8299058E-009  0.1377428E+03  0.7561462E-02  0.1110105E+00
         22   -1    0    0    0    0  0.00000000000E+00  0.00000000000E+00  0.20320750466E+04  0.20320750466E+04  0.00000000000E+00 0. -1.
         22   -1    0    0    0    0 -0.00000000000E+00 -0.00000000000E+00 -0.62523923799E+02  0.62523923799E+02  0.00000000000E+00 0.  1.
        -24    2    1    2    0    0  0.59988906653E+02  0.12467726091E+02  0.20973399455E+01  0.10180551731E+03  0.81276388972E+02 0.  0.
         25    2    1    2    0    0 -0.26743884857E+02 -0.25688910205E+02  0.35998758559E+03  0.38290321181E+03  0.12509457363E+03 0.  0.
         24    2    1    2    0    0 -0.33245021796E+02  0.13221184114E+02  0.16074661972E+04  0.16098902412E+04  0.80740215710E+02 0.  0.
        -13    1    5    5    0    0 -0.89849792390E+01  0.33086814203E+02  0.28535617564E+03  0.28740844473E+03  0.00000000000E+00 0.  1.
         14    1    5    5    0    0 -0.24260042557E+02 -0.19865630089E+02  0.13221100216E+04  0.13224817965E+04  0.00000000000E+00 0. -1.
         11    1    3    3    0    0  0.21533484878E+02  0.14676009661E+02  0.40016873672E+02  0.47753810414E+02  0.00000000000E+00 0. -1.
        -12    1    3    3    0    0  0.38455421774E+02 -0.22082835703E+01 -0.37919533726E+02  0.54051706894E+02  0.00000000000E+00 0.  1.
          5    1    4    4  501    0 -0.62733694802E+02  0.46539539545E+01  0.29991307692E+03  0.30646778274E+03  0.41800000000E+01 0.  1.
         -5    1    4    4    0  501  0.35989809945E+02 -0.30342864160E+02  0.60074508672E+02  0.76435429072E+02  0.41800000000E+01 0.  1.
</event>
<event>
11    1  0.8299058E-009  0.1485526E+03  0.7561462E-02  0.1098367E+00
         22   -1    0    0    0    0  0.00000000000E+00  0.00000000000E+00  0.51183058161E+03  0.51183058161E+03  0.00000000000E+00 0.  1.
         22   -1    0    0    0    0 -0.00000000000E+00 -0.00000000000E+00 -0.58436716390E+03  0.58436716390E+03  0.00000000000E+00 0. -1.
         24    2    1    2    0    0  0.55841253961E+02 -0.44051863046E+02 -0.49910501099E+03  0.51039739409E+03  0.79629615191E+02 0.  0.
         25    2    1    2    0    0 -0.12070423753E+03  0.78340754170E+02  0.54419464251E+02  0.19828056549E+03  0.12508764063E+03 0.  0.
        -24    2    1    2    0    0  0.64862983568E+02 -0.34288891123E+02  0.37214896444E+03  0.38751978593E+03  0.79333461164E+02 0.  0.
        -11    1    3    3    0    0 -0.13429881830E+02  0.35482421508E+00 -0.18867573514E+02  0.23161885858E+02  0.00000000000E+00 0.  1.
         12    1    3    3    0    0  0.69271135791E+02 -0.44406687261E+02 -0.48023743748E+03  0.48723550823E+03  0.00000000000E+00 0. -1.
         11    1    5    5    0    0 -0.28352466659E+01  0.12318409270E+01 -0.32087534725E+01  0.44555756725E+01  0.00000000000E+00 0. -1.
        -12    1    5    5    0    0  0.67698230234E+02 -0.35520732051E+02  0.37535771792E+03  0.38306421026E+03  0.00000000000E+00 0.  1.
          5    1    4    4  501    0 -0.43496790804E+02  0.97596716942E+02  0.51136889219E+02  0.11853077156E+03  0.41800000000E+01 0.  1.
         -5    1    4    4    0  501 -0.77207446725E+02 -0.19255962772E+02  0.32825750322E+01  0.79749793924E+02  0.41800000000E+01 0.  1.
</event>
<event>
11    1  0.8299058E-009  0.1906758E+03  0.7561462E-02  0.1061320E+00
         22   -1    0    0    0    0  0.00000000000E+00  0.00000000000E+00  0.62403311466E+03  0.62403311466E+03  0.00000000000E+00 0. -1.
         22   -1    0    0    0    0 -0.00000000000E+00 -0.00000000000E+00 -0.25905531932E+04  0.25905531932E+04  0.00000000000E+00 0.  1.
        -24    2    1    2    0    0 -0.47843399923E+02  0.13429083359E+03 -0.23737766242E+04  0.23793950723E+04  0.79890110060E+02 0.  0.
         25    2    1    2    0    0 -0.46737981530E+02 -0.20498100184E+03 -0.13161021453E+03  0.27779543075E+03  0.12508957888E+03 0.  0.
         24    2    1    2    0    0  0.94581381453E+02  0.70690168241E+02  0.53886676021E+03  0.55739580477E+03  0.79812031120E+02 0.  0.
        -13    1    5    5    0    0  0.45737448823E+02 -0.10467744307E+02  0.15048836266E+03  0.15763322997E+03  0.00000000000E+00 0.  1.
         14    1    5    5    0    0  0.48843932630E+02  0.81157912549E+02  0.38837839755E+03  0.39976257479E+03  0.00000000000E+00 0. -1.
         11    1    3    3    0    0  0.71050930068E+01  0.36592571184E+02 -0.11193279357E+04  0.11199484480E+04  0.00000000000E+00 0. -1.
        -12    1    3    3    0    0 -0.54948492930E+02  0.97698262410E+02 -0.12544486886E+04  0.12594466243E+04  0.00000000000E+00 0.  1.
          5    1    4    4  501    0  0.20431708889E+02 -0.15977055222E+03 -0.68634301958E+02  0.17513487343E+03  0.41800000000E+01 0.  1.
         -5    1    4    4    0  501 -0.67169690419E+02 -0.45210449615E+02 -0.62975912571E+02  0.10266055732E+03  0.41800000000E+01 0.  1.
</event>
<event>
11    1  0.8299058E-009  0.1745073E+03  0.7561462E-02  0.1074174E+00
         22   -1    0    0    0    0  0.00000000000E+00  0.00000000000E+00  0.97244376129E+02  0.97244376129E+02  0.00000000000E+00 0.  1.
         22   -1    0    0    0    0 -0.00000000000E+00 -0.00000000000E+00 -0.34105456527E+04  0.34105456527E+04  0.00000000000E+00 0.  1.
         24    2    1    2    0    0 -0.63305622771E+02  0.15031052783E+01 -0.25120064278E+04  0.25140681115E+04  0.79701411007E+02 0.  0.
         25    2    1    2    0    0 -0.49315457387E+02 -0.57010800163E+02 -0.82882965583E+03  0.84159837582E+03  0.12508789759E+03 0.  0.
        -24    2    1    2    0    0  0.11262108016E+03  0.55507694885E+02  0.27534807049E+02  0.15212354149E+03  0.81355973282E+02 0.  0.
        -13    1    3    3    0    0 -0.41467677940E+02  0.25174514662E+02 -0.65950589837E+03  0.66128764883E+03  0.00000000000E+00 0.  1.
         14    1    3    3    0    0 -0.21837944830E+02 -0.23671409383E+02 -0.18525005294E+04  0.18527804627E+04  0.00000000000E+00 0. -1.
         11    1    5    5    0    0  0.49066071677E+02  0.31721086021E+02 -0.27666740624E+02  0.64646386016E+02  0.00000000000E+00 0. -1.
        -12    1    5    5    0    0  0.63555008481E+02  0.23786608864E+02  0.55201547673E+02  0.87477155473E+02  0.00000000000E+00 0.  1.
          5    1    4    4  501    0  0.29185875591E+02  0.20260982726E+02 -0.19471051698E+03  0.19796964560E+03  0.41800000000E+01 0.  1.
         -5    1    4    4    0  501 -0.78501332978E+02 -0.77271782889E+02 -0.63411913885E+03  0.64362873022E+03  0.41800000000E+01 0.  1.
</event>
<event>
11    1  0.8299058E-009  0.1291878E+03  0.7561462E-02  0.1120271E+00
         22   -1    0    0    0    0  0.00000000000E+00  0.00000000000E+00  0.84943284039E+03  0.84943284039E+03  0.00000000000E+00 0. -1.
         22   -1    0    0    0    0 -0.00000000000E+00 -0.00000000000E+00 -0.84421811600E+03  0.84421811600E+03  0.00000000000E+00 0.  1.
        -24    2    1    2    0    0  0.56348048687E+00  0.32230105847E+00 -0.82608296148E+03  0.83008214050E+03  0.81381074891E+02 0.  0.
         25    2    1    2    0    0 -0.19327436369E+02  0.25951509651E+02  0.32280325868E+03  0.34769970785E+03  0.12508442102E+03 0.  0.
         24    2    1    2    0    0  0.18763955882E+02 -0.26273810709E+02  0.50849442720E+03  0.51586910803E+03  0.80696684962E+02 0.  0.
        -11    1    5    5    0    0 -0.28303770513E+02  0.29519453734E+01  0.11374775719E+03  0.11725344205E+03  0.00000000000E+00 0.  1.
         12    1    5    5    0    0  0.47067726395E+02 -0.29225756082E+02  0.39474667001E+03  0.39861566599E+03  0.00000000000E+00 0. -1.
         13    1    3    3    0    0  0.15913938578E+02  0.30475879989E+02 -0.18902292881E+03  0.19212417942E+03  0.00000000000E+00 0. -1.
        -14    1    3    3    0    0 -0.15350458091E+02 -0.30153578931E+02 -0.63706003267E+03  0.63795796108E+03  0.00000000000E+00 0.  1.
          5    1    4    4  501    0  0.44030142277E+02  0.25929567919E+02  0.22733519199E+03  0.23304454047E+03  0.41800000000E+01 0. -1.
         -5    1    4    4    0  501 -0.63357578646E+02  0.21941731681E-01  0.95468066681E+02  0.11465516739E+03  0.41800000000E+01 0. -1.
</event>
<event>
11    1  0.8299058E-009  0.1456828E+03  0.7561462E-02  0.1101373E+00
         22   -1    0    0    0    0  0.00000000000E+00  0.00000000000E+00  0.14268784812E+04  0.14268784812E+04  0.00000000000E+00 0.  1.
         22   -1    0    0    0    0 -0.00000000000E+00 -0.00000000000E+00 -0.10832565489E+03  0.10832565489E+03  0.00000000000E+00 0. -1.
         24    2    1    2    0    0  0.66139303354E+02  0.24760621722E+02 -0.50926850048E+02  0.12321697366E+03  0.87185908877E+02 0.  0.
         25    2    1    2    0    0 -0.11566668384E+03 -0.29833316180E+02  0.37554195163E+03  0.41345875441E+03  0.12509027005E+03 0.  0.
        -24    2    1    2    0    0  0.49527380487E+02  0.50726944581E+01  0.99393772477E+03  0.99852840806E+03  0.81658357445E+02 0.  0.
        -13    1    3    3    0    0 -0.10738959792E+02 -0.75236525262E+01 -0.36256044157E+02  0.38554264909E+02  0.00000000000E+00 0.  1.
         14    1    3    3    0    0  0.76878263146E+02  0.32284274248E+02 -0.14670805890E+02  0.84662708754E+02  0.00000000000E+00 0. -1.
         13    1    5    5    0    0 -0.45686557728E+01 -0.21700410133E+02  0.94476863112E+02  0.97044619011E+02  0.00000000000E+00 0. -1.
        -14    1    5    5    0    0  0.54096036260E+02  0.26773104592E+02  0.89946086166E+03  0.90148378905E+03  0.00000000000E+00 0.  1.
          5    1    4    4  501    0 -0.10509638598E+01 -0.55271410245E+02  0.11602341250E+03  0.12858824971E+03  0.41800000000E+01 0. -1.
         -5    1    4    4    0  501 -0.11461571998E+03  0.25438094065E+02  0.25951853913E+03  0.28487050470E+03  0.41800000000E+01 0. -1.
</event>
<event>
11    1  0.8299058E-009  0.1589715E+03  0.7561462E-02  0.1088049E+00
         22   -1    0    0    0    0  0.00000000000E+00  0.00000000000E+00  0.51110738322E+03  0.51110738322E+03  0.00000000000E+00 0. -1.
         22   -1    0    0    0    0 -0.00000000000E+00 -0.00000000000E+00 -0.28965866566E+03  0.28965866566E+03  0.00000000000E+00 0. -1.
         24    2    1    2    0    0 -0.30963196299E+02  0.36119650845E+02 -0.20196623627E+03  0.22253588811E+03  0.80427061388E+02 0.  0.
         25    2    1    2    0    0  0.11104516943E+03  0.19078989086E+02  0.37913704770E+02  0.17256732906E+03  0.12508795534E+03 0.  0.
        -24    2    1    2    0    0 -0.80081973129E+02 -0.55198639930E+02  0.38550124906E+03  0.40566283170E+03  0.80567411042E+02 0.  0.
        -11    1    3    3    0    0 -0.21534107932E+01  0.64447933677E+01  0.68585912305E+01  0.96546783097E+01  0.00000000000E+00 0.  1.
         12    1    3    3    0    0 -0.28809785506E+02  0.29674857477E+02 -0.20882482750E+03  0.21288120981E+03  0.00000000000E+00 0. -1.
         11    1    5    5    0    0 -0.74248281858E+02 -0.44820116233E+02  0.38398922908E+03  0.39366150209E+03  0.00000000000E+00 0. -1.
        -12    1    5    5    0    0 -0.58336912704E+01 -0.10378523697E+02  0.15120199842E+01  0.12001329610E+02  0.00000000000E+00 0.  1.
          5    1    4    4  501    0  0.80434124698E+02 -0.24884810220E+02  0.70354201984E+02  0.10980022009E+03  0.41800000000E+01 0. -1.
         -5    1    4    4    0  501  0.30611044730E+02  0.43963799305E+02 -0.32440497214E+02  0.62767108968E+02  0.41800000000E+01 0. -1.
</event>
<event>
11    1  0.8299058E-009  0.1293077E+03  0.7561462E-02  0.1120122E+00
         22   -1    0    0    0    0  0.00000000000E+00  0.00000000000E+00  0.64274484165E+02  0.64274484165E+02  0.00000000000E+00 0.  1.
         22   -1    0    0    0    0 -0.00000000000E+00 -0.00000000000E+00 -0.85414281320E+03  0.85414281320E+03  0.00000000000E+00 0.  1.
        -24    2    1    2    0    0  0.32180129250E+02  0.94550029413E+01 -0.61410267230E+03  0.62180634930E+03  0.91630159339E+02 0.  0.
         25    2    1    2    0    0 -0.33421040001E+02  0.20947516350E+02 -0.16469422797E+03  0.21054106190E+03  0.12509031003E+03 0.  0.
         24    2    1    2    0    0  0.12409107515E+01 -0.30402519291E+02 -0.11071428767E+02  0.86069886169E+02  0.79747073498E+02 0.  0.
        -13    1    5    5    0    0  0.32443753425E+02 -0.18766296202E+02  0.18260725937E+02  0.41692027070E+02  0.00000000000E+00 0.  1.
         14    1    5    5    0    0 -0.31202842674E+02 -0.11636223089E+02 -0.29332154704E+02  0.44377859100E+02  0.00000000000E+00 0. -1.
         11    1    3    3    0    0 -0.13408028492E+02 -0.20706710482E+02 -0.40256766226E+03  0.40332278113E+03  0.00000000000E+00 0. -1.
        -12    1    3    3    0    0  0.45588157742E+02  0.30161713423E+02 -0.21153501004E+03  0.21848356816E+03  0.00000000000E+00 0.  1.
          5    1    4    4  501    0  0.15588092083E+02  0.55830163498E+02 -0.12636852622E+03  0.13909159784E+03  0.41800000000E+01 0. -1.
         -5    1    4    4    0  501 -0.49009132084E+02 -0.34882647148E+02 -0.38325701745E+02  0.71449464056E+02  0.41800000000E+01 0. -1.
</event>
<event>
11    1  0.8299058E-009  0.1699986E+03  0.7561462E-02  0.1078033E+00
         22   -1    0    0    0    0  0.00000000000E+00  0.00000000000E+00  0.11268169697E+04  0.11268169697E+04  0.00000000000E+00 0.  1.
         22   -1    0    0    0    0 -0.00000000000E+00 -0.00000000000E+00 -0.14233088910E+04  0.14233088910E+04  0.00000000000E+00 0. -1.
         24    2    1    2    0    0  0.12765982831E+02  0.31348613193E+01 -0.13660457345E+04  0.13683298589E+04  0.77928534516E+02 0.  0.
         25    2    1    2    0    0 -0.12568246148E+03 -0.18140179732E+02  0.10502855668E+03  0.20689027693E+03  0.12508973469E+03 0.  0.
        -24    2    1    2    0    0  0.11291647865E+03  0.15005318413E+02  0.96452525649E+03  0.97490572478E+03  0.84598528740E+02 0.  0.
        -11    1    3    3    0    0 -0.17494568419E+02  0.19137485217E+02 -0.18719192978E+03  0.18897915715E+03  0.00000000000E+00 0.  1.
         12    1    3    3    0    0  0.30260551250E+02 -0.16002623898E+02 -0.11788538047E+04  0.11793507018E+04  0.00000000000E+00 0. -1.
         13    1    5    5    0    0  0.64090014785E+02 -0.21321049570E+02  0.29563331236E+03  0.30325100581E+03  0.00000000000E+00 0. -1.
        -14    1    5    5    0    0  0.48826463869E+02  0.36326367983E+02  0.66889194414E+03  0.67165471897E+03  0.00000000000E+00 0.  1.
          5    1    4    4  501    0 -0.32659239872E+02  0.50882573044E+02  0.22699670430E+02  0.64717923532E+02  0.41800000000E+01 0.  1.
         -5    1    4    4    0  501 -0.93023221612E+02 -0.69022752776E+02  0.82328886246E+02  0.14217235340E+03  0.41800000000E+01 0.  1.
</event>
<event>
11    1  0.8299058E-009  0.2078375E+03  0.7561462E-02  0.1049116E+00
         22   -1    0    0    0    0  0.00000000000E+00  0.00000000000E+00  0.23726352855E+02  0.23726352855E+02  0.00000000000E+00 0.  1.
         22   -1    0    0    0    0 -0.00000000000E+00 -0.00000000000E+00 -0.26708738764E+04  0.26708738764E+04  0.00000000000E+00 0. -1.
         24    2    1    2    0    0 -0.83861414805E+02  0.12477713001E+03 -0.10453472380E+04  0.10591636890E+04  0.80466160904E+02 0.  0.
         25    2    1    2    0    0  0.14619960453E+03 -0.11267178165E+03 -0.96174048096E+03  0.98724944625E+03  0.12508981444E+03 0.  0.
        -24    2    1    2    0    0 -0.62338189725E+02 -0.12105348359E+02 -0.64005980463E+03  0.64818709404E+03  0.80233197683E+02 0.  0.
        -13    1    3    3    0    0 -0.65177372870E+02  0.12284530221E+03 -0.72196397093E+03  0.73523535928E+03  0.00000000000E+00 0.  1.
         14    1    3    3    0    0 -0.18684041935E+02  0.19318278023E+01 -0.32338326705E+03  0.32392832971E+03  0.00000000000E+00 0. -1.
         11    1    5    5    0    0 -0.35277927535E+02 -0.30661976861E+02 -0.55583386943E+03  0.55779564304E+03  0.00000000000E+00 0. -1.
        -12    1    5    5    0    0 -0.27060262190E+02  0.18556628502E+02 -0.84225935209E+02  0.90391450995E+02  0.00000000000E+00 0.  1.
          5    1    4    4  501    0  0.16509627393E+03 -0.11421193448E+03 -0.82213874919E+03  0.84630416574E+03  0.41800000000E+01 0. -1.
         -5    1    4    4    0  501 -0.18896669398E+02  0.15401528295E+01 -0.13960173177E+03  0.14094528051E+03  0.41800000000E+01 0. -1.
</event>
<event>
11    1  0.8299058E-009  0.2609422E+03  0.7561462E-02  0.1018226E+00
         22   -1    0    0    0    0  0.00000000000E+00  0.00000000000E+00  0.98378969652E+03  0.98378969652E+03  0.00000000000E+00 0.  1.
         22   -1    0    0    0    0 -0.00000000000E+00 -0.00000000000E+00 -0.40867978020E+03  0.40867978020E+03  0.00000000000E+00 0. -1.
        -24    2    1    2    0    0 -0.47127872604E+02 -0.11830263001E+03 -0.30391110733E+03  0.33852925604E+03  0.77611515839E+02 0.  0.
         25    2    1    2    0    0 -0.11796437864E+03  0.25886160606E+03  0.30232277890E+03  0.43355691541E+03  0.12509040945E+03 0.  0.
         24    2    1    2    0    0  0.16509225125E+03 -0.14055897605E+03  0.57669824475E+03  0.62038330527E+03  0.72679452305E+02 0.  0.
        -13    1    5    5    0    0  0.46505984541E+02 -0.84076530400E+02  0.27609496739E+03  0.29233559582E+03  0.00000000000E+00 0.  1.
         14    1    5    5    0    0  0.11858626671E+03 -0.56482445651E+02  0.30060327736E+03  0.32804770945E+03  0.00000000000E+00 0. -1.
         13    1    3    3    0    0 -0.16007379879E+02 -0.81867077947E+02 -0.26169433494E+03  0.27466776222E+03  0.00000000000E+00 0. -1.
        -14    1    3    3    0    0 -0.31120492726E+02 -0.36435552067E+02 -0.42216772391E+02  0.63861493820E+02  0.00000000000E+00 0.  1.
          5    1    4    4  501    0 -0.11284090543E+03  0.12851504064E+03  0.22213997850E+03  0.28037979253E+03  0.41800000000E+01 0. -1.
         -5    1    4    4    0  501 -0.51234732169E+01  0.13034656542E+03  0.80182800392E+02  0.15317712288E+03  0.41800000000E+01 0. -1.
</event>
<event>
11    1  0.8299058E-009  0.1710432E+03  0.7561462E-02  0.1077127E+00
         22   -1    0    0    0    0  0.00000000000E+00  0.00000000000E+00  0.51454435395E+03  0.51454435395E+03  0.00000000000E+00 0.  1.
         22   -1    0    0    0    0 -0.00000000000E+00 -0.00000000000E+00 -0.38624372316E+03  0.38624372316E+03  0.00000000000E+00 0. -1.
        -24    2    1    2    0    0 -0.37483864376E+02 -0.71657140575E+02 -0.24042551808E+03  0.26636193323E+03  0.81267852473E+02 0.  0.
         25    2    1    2    0    0 -0.67883789492E+02  0.89472000083E+01 -0.79329145389E+02  0.16317645033E+03  0.12508069144E+03 0.  0.
         24    2    1    2    0    0  0.10536765387E+03  0.62709940567E+02  0.44805529425E+03  0.47124969355E+03  0.79295950933E+02 0.  0.
        -13    1    5    5    0    0  0.41583283295E+02 -0.16101427890E+01  0.25028875940E+03  0.25372470335E+03  0.00000000000E+00 0.  1.
         14    1    5    5    0    0  0.63784370574E+02  0.64320083356E+02  0.19776653486E+03  0.21752499020E+03  0.00000000000E+00 0. -1.
         13    1    3    3    0    0 -0.30447302595E+02  0.74747000628E+00 -0.13421501706E+03  0.13762727837E+03  0.00000000000E+00 0. -1.
        -14    1    3    3    0    0 -0.70365617817E+01 -0.72404610582E+02 -0.10621050102E+03  0.12873465486E+03  0.00000000000E+00 0.  1.
          5    1    4    4  501    0 -0.28534861869E+02  0.39446730302E+02 -0.98268134083E+02  0.10974689722E+03  0.41800000000E+01 0.  1.
         -5    1    4    4    0  501 -0.39348927624E+02 -0.30499530294E+02  0.18938988694E+02  0.53429553115E+02  0.41800000000E+01 0.  1.
</event>
<event>
11    1  0.8299058E-009  0.1437944E+03  0.7561462E-02  0.1103394E+00
         22   -1    0    0    0    0  0.00000000000E+00  0.00000000000E+00  0.17988467076E+03  0.17988467076E+03  0.00000000000E+00 0.  1.
         22   -1    0    0    0    0 -0.00000000000E+00 -0.00000000000E+00 -0.13828764138E+04  0.13828764138E+04  0.00000000000E+00 0.  1.
         24    2    1    2    0    0  0.72851538396E+01 -0.33838481578E+01 -0.84932309655E+03  0.85305201965E+03  0.79268543580E+02 0.  0.
         25    2    1    2    0    0  0.57788512221E+01 -0.66477100547E+02 -0.50484111176E+03  0.52437010593E+03  0.12508740886E+03 0.  0.
        -24    2    1    2    0    0 -0.13064005062E+02  0.69860948705E+02  0.15117246528E+03  0.18533895896E+03  0.80288200041E+02 0.  0.
        -11    1    3    3    0    0  0.42001760545E+02  0.48405251320E+01 -0.37131848225E+03  0.37371779973E+03  0.00000000000E+00 0.  1.
         12    1    3    3    0    0 -0.34716606706E+02 -0.82243732898E+01 -0.47800461430E+03  0.47933421992E+03  0.00000000000E+00 0. -1.
         11    1    5    5    0    0  0.10091995840E+02 -0.69186326161E+01 -0.20424267011E+01  0.12405134588E+02  0.00000000000E+00 0. -1.
        -12    1    5    5    0    0 -0.23156000902E+02  0.76779581321E+02  0.15321489198E+03  0.17293382437E+03  0.00000000000E+00 0.  1.
          5    1    4    4  501    0  0.32239542367E+02 -0.34931515070E+02 -0.46323366391E+03  0.46568497787E+03  0.41800000000E+01 0. -1.
         -5    1    4    4    0  501 -0.26460691145E+02 -0.31545585477E+02 -0.41607447853E+02  0.58685128063E+02  0.41800000000E+01 0. -1.
</event>
<event>
11    1  0.8299058E-009  0.2026815E+03  0.7561462E-02  0.1052643E+00
         22   -1    0    0    0    0  0.00000000000E+00  0.00000000000E+00  0.90983812521E+03  0.90983812521E+03  0.00000000000E+00 0. -1.
         22   -1    0    0    0    0 -0.00000000000E+00 -0.00000000000E+00 -0.87661602607E+03  0.87661602607E+03  0.00000000000E+00 0.  1.
         24    2    1    2    0    0  0.70794757815E+02  0.12745237288E+03 -0.54347798828E+03  0.56845015193E+03  0.80692294570E+02 0.  0.
         25    2    1    2    0    0 -0.13227415221E+03 -0.16914366677E+03 -0.26841862702E+03  0.36579023811E+03  0.12509159689E+03 0.  0.
        -24    2    1    2    0    0  0.61479394392E+02  0.41691293896E+02  0.84511871444E+03  0.85221376125E+03  0.80776069748E+02 0.  0.
        -11    1    3    3    0    0  0.76668612985E+02  0.84440228847E+02 -0.29638107959E+03  0.31756884735E+03  0.00000000000E+00 0.  1.
         12    1    3    3    0    0 -0.58738551697E+01  0.43012144032E+02 -0.24709690868E+03  0.25088130458E+03  0.00000000000E+00 0. -1.
         13    1    5    5    0    0  0.60709858981E+02  0.25910374965E+02  0.81922807460E+03  0.82188300428E+03  0.00000000000E+00 0. -1.
        -14    1    5    5    0    0  0.76953541117E+00  0.15780918931E+02  0.25890639835E+02  0.30330756966E+02  0.00000000000E+00 0.  1.
          5    1    4    4  501    0 -0.13396014685E+03 -0.10726175680E+03 -0.13409394419E+03  0.21782805991E+03  0.41800000000E+01 0.  1.
         -5    1    4    4    0  501  0.16859946443E+01 -0.61881909973E+02 -0.13432468283E+03  0.14796217820E+03  0.41800000000E+01 0.  1.
</event>
<event>
11    1  0.8299058E-009  0.1334434E+03  0.7561462E-02  0.1115109E+00
         22   -1    0    0    0    0  0.00000000000E+00  0.00000000000E+00  0.18887860652E+04  0.18887860652E+04  0.00000000000E+00 0.  1.
         22   -1    0    0    0    0 -0.00000000000E+00 -0.00000000000E+00 -0.21988817715E+03  0.21988817715E+03  0.00000000000E+00 0. -1.
         24    2    1    2    0    0  0.17691004680E+02 -0.63976647541E+01 -0.18257334296E+03  0.19918900160E+03  0.77390768418E+02 0.  0.
         25    2    1    2    0    0 -0.53302393817E+02  0.35278643125E+02  0.14824339881E+03  0.20422848927E+03  0.12508973855E+03 0.  0.
        -24    2    1    2    0    0  0.35611389137E+02 -0.28880978371E+02  0.17032278323E+04  0.17052567515E+04  0.69377648641E+02 0.  0.
        -13    1    3    3    0    0 -0.11240709582E+02 -0.36062270540E+02 -0.76741129072E+02  0.85533863468E+02  0.00000000000E+00 0.  1.
         14    1    3    3    0    0  0.28931714262E+02  0.29664605786E+02 -0.10583221389E+03  0.11365513813E+03  0.00000000000E+00 0. -1.
         11    1    5    5    0    0  0.42026805213E+02 -0.30062684581E+02  0.66369120811E+03  0.66569965982E+03  0.00000000000E+00 0. -1.
        -12    1    5    5    0    0 -0.64154160757E+01  0.11817062102E+01  0.10395366241E+04  0.10395570917E+04  0.00000000000E+00 0.  1.
          5    1    4    4  501    0 -0.25695133738E+02 -0.44868673722E+02  0.79890632141E+02  0.95254518440E+02  0.41800000000E+01 0. -1.
         -5    1    4    4    0  501 -0.27607260080E+02  0.80147316847E+02  0.68352766666E+02  0.10897397083E+03  0.41800000000E+01 0. -1.
</event>
<event>
11    1  0.8299058E-009  0.1383537E+03  0.7561462E-02  0.1109411E+00
         22   -1    0    0    0    0  0.00000000000E+00  0.00000000000E+00  0.44527238495E+03  0.44527238495E+03  0.00000000000E+00 0. -1.
         22   -1    0    0    0    0 -0.00000000000E+00 -0.00000000000E+00 -0.36801133047E+03  0.36801133047E+03  0.00000000000E+00 0.  1.
         24    2    1    2    0    0  0.47734473103E+02 -0.38059204703E+02 -0.30333722394E+03  0.32031854383E+03  0.82845730799E+02 0.  0.
         25    2    1    2    0    0 -0.38839024919E+02  0.12969634693E+02  0.33160709233E+02  0.13578315739E+03  0.12514292594E+03 0.  0.
        -24    2    1    2    0    0 -0.88954481840E+01  0.25089570009E+02  0.34743756918E+03  0.35718201419E+03  0.78469811149E+02 0.  0.
        -11    1    3    3    0    0  0.42626783942E+02 -0.10735359724E+02 -0.28165653208E+03  0.28506611991E+03  0.00000000000E+00 0.  1.
         12    1    3    3    0    0  0.51076891613E+01 -0.27323844979E+02 -0.21680691861E+02  0.35252423925E+02  0.00000000000E+00 0. -1.
         11    1    5    5    0    0  0.73321402660E+01  0.26464925234E+02  0.33637533901E+03  0.33749447587E+03  0.00000000000E+00 0. -1.
        -12    1    5    5    0    0 -0.16227588450E+02 -0.13753552250E+01  0.11062230176E+02  0.19687538327E+02  0.00000000000E+00 0.  1.
          5    1    4    4  501    0 -0.22454649365E+02 -0.65418563805E+01  0.79370162842E+02  0.82849878169E+02  0.41800000000E+01 0. -1.
         -5    1    4    4    0  501 -0.16384375554E+02  0.19511491074E+02 -0.46209453609E+02  0.52933279221E+02  0.41800000000E+01 0. -1.
</event>
<event>
11    1  0.8299058E-009  0.1921860E+03  0.7561462E-02  0.1060191E+00
         22   -1    0    0    0    0  0.00000000000E+00  0.00000000000E+00  0.49217454804E+04  0.49217454804E+04  0.00000000000E+00 0.  1.
         22   -1    0    0    0    0 -0.00000000000E+00 -0.00000000000E+00 -0.56578857101E+03  0.56578857101E+03  0.00000000000E+00 0.  1.
         24    2    1    2    0    0  0.84268122160E+02  0.15228495627E+03 -0.53840875910E+03  0.57168148522E+03  0.81510148753E+02 0.  0.
         25    2    1    2    0    0  0.15444247575E+02 -0.87819744097E+01  0.45204568598E+03  0.46936968802E+03  0.12508778500E+03 0.  0.
        -24    2    1    2    0    0 -0.99712369734E+02 -0.14350298186E+03  0.44423199825E+04  0.44464828781E+04  0.80420745376E+02 0.  0.
        -11    1    3    3    0    0  0.61966072568E+02  0.15350112953E+03 -0.50545858781E+03  0.53187477371E+03  0.00000000000E+00 0.  1.
         12    1    3    3    0    0  0.22302049591E+02 -0.12161732603E+01 -0.32950171293E+02  0.39806711514E+02  0.00000000000E+00 0. -1.
         11    1    5    5    0    0  0.11983664566E+02 -0.21341671400E+02  0.37644840196E+03  0.37724325639E+03  0.00000000000E+00 0. -1.
        -12    1    5    5    0    0 -0.11169603430E+03 -0.12216131046E+03  0.40658715805E+04  0.40692396217E+04  0.00000000000E+00 0.  1.
          5    1    4    4  501    0  0.56555424755E+02  0.34475059177E+02  0.22615401490E+03  0.23569080726E+03  0.41800000000E+01 0.  1.
         -5    1    4    4    0  501 -0.41111177181E+02 -0.43257033587E+02  0.22589167109E+03  0.23367888075E+03  0.41800000000E+01 0.  1.
</event>
<event>
11    1  0.8299058E-009  0.1703562E+03  0.7561462E-02  0.1077722E+00
         22   -1    0    0    0    0  0.00000000000E+00  0.00000000000E+00  0.10849277310E+04  0.10849277310E+04  0.00000000000E+00 0.  1.
         22   -1    0    0    0    0 -0.00000000000E+00 -0.00000000000E+00 -0.42498064231E+04  0.42498064231E+04  0.00000000000E+00 0. -1.
        -24    2    1    2    0    0 -0.85945009863E+02 -0.61124138255E+02 -0.23542092729E+04  0.23579350325E+04  0.80209799826E+02 0.  0.
         25    2    1    2    0    0  0.13034338259E+03  0.59900162816E+02 -0.18869808732E+04  0.18965553143E+04  0.12509123645E+03 0.  0.
         24    2    1    2    0    0 -0.44398372726E+02  0.12239754387E+01  0.10763114540E+04  0.10802438073E+04  0.80669843575E+02 0.  0.
        -13    1    5    5    0    0 -0.58331842619E+01  0.17154380064E+01  0.88812280221E+03  0.88814361483E+03  0.00000000000E+00 0.  1.
         14    1    5    5    0    0 -0.38565188464E+02 -0.49146256772E+00  0.18818865175E+03  0.19210019246E+03  0.00000000000E+00 0. -1.
         11    1    3    3    0    0 -0.65770986907E+02 -0.60917755365E+02 -0.11270046993E+04  0.11305646324E+04  0.00000000000E+00 0. -1.
        -12    1    3    3    0    0 -0.20174022956E+02 -0.20638289015E+00 -0.12272045735E+04  0.12273704001E+04  0.00000000000E+00 0.  1.
          5    1    4    4  501    0  0.99633250259E+01 -0.33450174746E+02 -0.49817345344E+03  0.49941209852E+03  0.41800000000E+01 0.  1.
         -5    1    4    4    0  501  0.12038005756E+03  0.93350337563E+02 -0.13888074198E+04  0.13971432158E+04  0.41800000000E+01 0.  1.
</event>
<event>
11    1  0.8299058E-009  0.2084041E+03  0.7561462E-02  0.1048735E+00
         22   -1    0    0    0    0  0.00000000000E+00  0.00000000000E+00  0.10467350177E+04  0.10467350177E+04  0.00000000000E+00 0. -1.
         22   -1    0    0    0    0 -0.00000000000E+00 -0.00000000000E+00 -0.84863035187E+03  0.84863035187E+03  0.00000000000E+00 0. -1.
         24    2    1    2    0    0 -0.81626989971E+02  0.29934211832E+01 -0.78934928133E+03  0.79738436640E+03  0.77959051905E+02 0.  0.
         25    2    1    2    0    0  0.18457272752E+03 -0.11888079103E+03  0.31658614401E+03  0.40506014338E+03  0.12508876428E+03 0.  0.
        -24    2    1    2    0    0 -0.10294573755E+03  0.11588736985E+03  0.67086780318E+03  0.69292085982E+03  0.77768896512E+02 0.  0.
        -11    1    3    3    0    0 -0.37525567116E+02 -0.34160797216E+02 -0.26020091401E+03  0.26510308166E+03  0.00000000000E+00 0.  1.
         12    1    3    3    0    0 -0.44101422855E+02  0.37154218400E+02 -0.52914836732E+03  0.53228128474E+03  0.00000000000E+00 0. -1.
         11    1    5    5    0    0 -0.10071698571E+03  0.85305520553E+02  0.61679516208E+03  0.63075923696E+03  0.00000000000E+00 0. -1.
        -12    1    5    5    0    0 -0.22287518367E+01  0.30581849299E+02  0.54072641102E+02  0.62161622863E+02  0.00000000000E+00 0.  1.
          5    1    4    4  501    0  0.13061858904E+03 -0.12337932394E+02  0.19046584218E+03  0.23131828682E+03  0.41800000000E+01 0.  1.
         -5    1    4    4    0  501  0.53954138480E+02 -0.10654285864E+03  0.12612030183E+03  0.17374185656E+03  0.41800000000E+01 0.  1.
</event>
<event>
11    1  0.8299058E-009  0.2086062E+03  0.7561462E-02  0.1048599E+00
         22   -1    0    0    0    0  0.00000000000E+00  0.00000000000E+00  0.75648579891E+03  0.75648579891E+03  0.00000000000E+00 0. -1.
         22   -1    0    0    0    0 -0.00000000000E+00 -0.00000000000E+00 -0.21839078144E+04  0.21839078144E+04  0.00000000000E+00 0. -1.
        -24    2    1    2    0    0  0.31308803696E+02  0.21587201393E+02 -0.18257084326E+04  0.18292922509E+04  0.10794725387E+03 0.  0.
         25    2    1    2    0    0  0.47945739966E+02 -0.16835309299E+03 -0.31127224920E+03  0.37839249690E+03  0.12509560619E+03 0.  0.
         24    2    1    2    0    0 -0.79254543663E+02  0.14676589160E+03  0.70955866631E+03  0.73270886557E+03  0.74614148268E+02 0.  0.
        -13    1    5    5    0    0 -0.38536807424E+02  0.45420704282E+02  0.13065901529E+03  0.14359632370E+03  0.00000000000E+00 0.  1.
         14    1    5    5    0    0 -0.40717736238E+02  0.10134518731E+03  0.57889965102E+03  0.58911254187E+03  0.00000000000E+00 0. -1.
         13    1    3    3    0    0  0.37849068008E+02  0.58186110079E+02 -0.83270987492E+03  0.83559793630E+03  0.00000000000E+00 0. -1.
        -14    1    3    3    0    0 -0.65402643115E+01 -0.36598908687E+02 -0.99299855771E+03  0.99369431456E+03  0.00000000000E+00 0.  1.
          5    1    4    4  501    0 -0.38602979441E+02 -0.40042130474E+02 -0.11984578485E+03  0.13218943521E+03  0.41800000000E+01 0.  1.
         -5    1    4    4    0  501  0.86548719408E+02 -0.12831096251E+03 -0.19142646434E+03  0.24620306169E+03  0.41800000000E+01 0.  1.
</event>
<event>
11    1  0.8299058E-009  0.1505523E+03  0.7561462E-02  0.1096316E+00
         22   -1    0    0    0    0  0.00000000000E+00  0.00000000000E+00  0.15889439263E+03  0.15889439263E+03  0.00000000000E+00 0. -1.
         22   -1    0    0    0    0 -0.00000000000E+00 -0.00000000000E+00 -0.13331718233E+04  0.13331718233E+04  0.00000000000E+00 0. -1.
         24    2    1    2    0    0 -0.69343343302E+02 -0.43968415499E+02 -0.10782759888E+04  0.10839087651E+04  0.73738606500E+02 0.  0.
         25    2    1    2    0    0  0.11377853520E+03  0.78223926792E+01 -0.20212442973E+03  0.26365117724E+03  0.12510361013E+03 0.  0.
        -24    2    1    2    0    0 -0.44435191902E+02  0.36146022819E+02  0.10612298790E+03  0.14450627361E+03  0.79617543963E+02 0.  0.
        -11    1    3    3    0    0 -0.23068422499E+02  0.85737548025E+01 -0.94753211829E+02  0.97897050721E+02  0.00000000000E+00 0.  1.
         12    1    3    3    0    0 -0.46274920804E+02 -0.52542170301E+02 -0.98352277699E+03  0.98601171434E+03  0.00000000000E+00 0. -1.
         11    1    5    5    0    0 -0.41246727875E+01  0.50189161040E+02  0.79784380225E+02  0.94347825303E+02  0.00000000000E+00 0. -1.
        -12    1    5    5    0    0 -0.40310519114E+02 -0.14043138221E+02  0.26338607678E+02  0.50158448309E+02  0.00000000000E+00 0.  1.
          5    1    4    4  501    0  0.99994520718E+02  0.46912979473E+02 -0.85292204353E+02  0.13961362519E+03  0.41800000000E+01 0.  1.
         -5    1    4    4    0  501  0.13784014486E+02 -0.39090586793E+02 -0.11683222538E+03  0.12403755205E+03  0.41800000000E+01 0.  1.
</event>
<event>
11    1  0.8299058E-009  0.1877174E+03  0.7561462E-02  0.1063566E+00
         22   -1    0    0    0    0  0.00000000000E+00  0.00000000000E+00  0.10675037643E+04  0.10675037643E+04  0.00000000000E+00 0.  1.
         22   -1    0    0    0    0 -0.00000000000E+00 -0.00000000000E+00 -0.27686934498E+03  0.27686934498E+03  0.00000000000E+00 0.  1.
        -24    2    1    2    0    0 -0.12834430712E+03 -0.52832485562E+02 -0.17532745146E+03  0.23885051551E+03  0.83942366097E+02 0.  0.
         25    2    1    2    0    0  0.14076927461E+03  0.38360873660E+02  0.68146535282E+02  0.20390803219E+03  0.12508792915E+03 0.  0.
         24    2    1    2    0    0 -0.12424967490E+02  0.14471611901E+02  0.89781533548E+03  0.90161456157E+03  0.80452679569E+02 0.  0.
        -11    1    5    5    0    0 -0.13340667011E+02  0.37191525925E+02  0.80800381961E+03  0.80896931678E+03  0.00000000000E+00 0.  1.
         12    1    5    5    0    0  0.91569952121E+00 -0.22719914023E+02  0.89811515873E+02  0.92645244790E+02  0.00000000000E+00 0. -1.
         13    1    3    3    0    0 -0.18003310497E+02 -0.47674794847E+02 -0.44772866568E+02  0.67835203495E+02  0.00000000000E+00 0. -1.
        -14    1    3    3    0    0 -0.11034099662E+03 -0.51576907150E+01 -0.13055458489E+03  0.17101531202E+03  0.00000000000E+00 0.  1.
          5    1    4    4  501    0  0.77924598647E+02  0.50184787073E+02 -0.20016471307E+02  0.94915159229E+02  0.41800000000E+01 0. -1.
         -5    1    4    4    0  501  0.62844675960E+02 -0.11823913413E+02  0.88163006589E+02  0.10899287296E+03  0.41800000000E+01 0. -1.
</event>
<event>
11    1  0.8299058E-009  0.1517573E+03  0.7561462E-02  0.1095097E+00
         22   -1    0    0    0    0  0.00000000000E+00  0.00000000000E+00  0.70678114603E+03  0.70678114603E+03  0.00000000000E+00 0. -1.
         22   -1    0    0    0    0 -0.00000000000E+00 -0.00000000000E+00 -0.23643117564E+03  0.23643117564E+03  0.00000000000E+00 0.  1.
         24    2    1    2    0    0 -0.80846747198E+02  0.73004156382E+01 -0.14924051531E+03  0.18779365183E+03  0.80026443476E+02 0.  0.
         25    2    1    2    0    0  0.11207441999E+03 -0.15017929651E+02  0.45242451235E+02  0.17458700241E+03  0.12509008030E+03 0.  0.
        -24    2    1    2    0    0 -0.31227672796E+02  0.77175140124E+01  0.57434803446E+03  0.58083166743E+03  0.80343223921E+02 0.  0.
        -13    1    3    3    0    0 -0.27010124247E+02 -0.45005240413E+01 -0.12433197493E+03  0.12731159224E+03  0.00000000000E+00 0.  1.
         14    1    3    3    0    0 -0.53836622951E+02  0.11800939680E+02 -0.24908540380E+02  0.60482059588E+02  0.00000000000E+00 0. -1.
         11    1    5    5    0    0 -0.56922559074E+02  0.16555386235E+02  0.40589840808E+03  0.41020455413E+03  0.00000000000E+00 0. -1.
        -12    1    5    5    0    0  0.25694886278E+02 -0.88378722223E+01  0.16844962638E+03  0.17062711330E+03  0.00000000000E+00 0.  1.
          5    1    4    4  501    0 -0.23980646147E+02 -0.90059552832E+01 -0.96535456243E+01  0.27691911514E+02  0.41800000000E+01 0. -1.
         -5    1    4    4    0  501  0.13605506614E+03 -0.60119743674E+01  0.54895996859E+02  0.14689509090E+03  0.41800000000E+01 0. -1.
</event>
<event>
11    1  0.8299058E-009  0.1342477E+03  0.7561462E-02  0.1114157E+00
         22   -1    0    0    0    0  0.00000000000E+00  0.00000000000E+00  0.84033815534E+02  0.84033815534E+02  0.00000000000E+00 0. -1.
         22   -1    0    0    0    0 -0.00000000000E+00 -0.00000000000E+00 -0.28253844723E+04  0.28253844723E+04  0.00000000000E+00 0. -1.
        -24    2    1    2    0    0 -0.38696314720E+02  0.22188392789E+02 -0.24037893816E+04  0.24064482920E+04  0.10392430641E+03 0.  0.
         25    2    1    2    0    0  0.73973770949E+02 -0.92626191294E+02 -0.35033763748E+03  0.39042623503E+03  0.12507779444E+03 0.  0.
         24    2    1    2    0    0 -0.35277456229E+02  0.70437798505E+02  0.12776362350E+02  0.11254376076E+03  0.79352884481E+02 0.  0.
        -13    1    5    5    0    0  0.10305785690E+02  0.52853904956E+02 -0.15574906363E+02  0.56056419757E+02  0.00000000000E+00 0.  1.
         14    1    5    5    0    0 -0.45583241919E+02  0.17583893549E+02  0.28351268713E+02  0.56487341005E+02  0.00000000000E+00 0. -1.
         13    1    3    3    0    0 -0.47983426595E+02  0.37089605934E+02 -0.23221626898E+04  0.23229544993E+04  0.00000000000E+00 0. -1.
        -14    1    3    3    0    0  0.92871118749E+01 -0.14901213145E+02 -0.81626691834E+02  0.83493792703E+02  0.00000000000E+00 0.  1.
          5    1    4    4  501    0 -0.25629810464E+02  0.95235798593E+01 -0.37807860612E+02  0.46845410467E+02  0.41800000000E+01 0. -1.
         -5    1    4    4    0  501  0.99603581413E+02 -0.10214977115E+03 -0.31252977687E+03  0.34358082456E+03  0.41800000000E+01 0. -1.
</event>
<event>
11    1  0.8299058E-009  0.1372006E+03  0.7561462E-02  0.1110725E+00
         22   -1    0    0    0    0  0.00000000000E+00  0.00000000000E+00  0.15906876461E+04  0.15906876461E+04  0.00000000000E+00 0.  1.
         22   -1    0    0    0    0 -0.00000000000E+00 -0.00000000000E+00 -0.90737860477E+03  0.90737860477E+03  0.00000000000E+00 0. -1.
        -24    2    1    2    0    0  0.57393852046E+02 -0.35584869268E+01 -0.85240355580E+03  0.85817982994E+03  0.81080709787E+02 0.  0.
         25    2    1    2    0    0 -0.24557320295E+02  0.19197483397E+01  0.29062984982E+02  0.13076415925E+03  0.12509140992E+03 0.  0.
         24    2    1    2    0    0 -0.32836531751E+02  0.16387385871E+01  0.15066496121E+04  0.15091222617E+04  0.79850007013E+02 0.  0.
        -11    1    5    5    0    0 -0.56874417629E+01 -0.14226228754E+02  0.13003246490E+04  0.13004149051E+04  0.00000000000E+00 0.  1.
         12    1    5    5    0    0 -0.27149089989E+02  0.15864967341E+02  0.20632496312E+03  0.20870735656E+03  0.00000000000E+00 0. -1.
         13    1    3    3    0    0  0.76357394523E+02 -0.11777067556E+02 -0.72577704250E+03  0.72987770650E+03  0.00000000000E+00 0. -1.
        -14    1    3    3    0    0 -0.18963542477E+02  0.82185806294E+01 -0.12662651329E+03  0.12830212344E+03  0.00000000000E+00 0.  1.
          5    1    4    4  501    0  0.33451387921E+02 -0.40410081561E+02  0.26170075435E+02  0.58773423363E+02  0.41800000000E+01 0. -1.
         -5    1    4    4    0  501 -0.58008708215E+02  0.42329829900E+02  0.28929095466E+01  0.71990735889E+02  0.41800000000E+01 0. -1.
</event>
<event>
11    1  0.8299058E-009  0.1920852E+03  0.7561462E-02  0.1060266E+00
         22   -1    0    0    0    0  0.00000000000E+00  0.00000000000E+00  0.14180369543E+04  0.14180369543E+04  0.00000000000E+00 0.  1.
         22   -1    0    0    0    0 -0.00000000000E+00 -0.00000000000E+00 -0.21615409747E+03  0.21615409747E+03  0.00000000000E+00 0.  1.
         24    2    1    2    0    0  0.13948659051E+03 -0.36694081218E+02 -0.15462545269E+03  0.22700307282E+03  0.82573603057E+02 0.  0.
         25    2    1    2    0    0 -0.15140237553E+03  0.76261035716E+02  0.45497660903E+03  0.50138734066E+03  0.12508847159E+03 0.  0.
        -24    2    1    2    0    0  0.11915785013E+02 -0.39566954498E+02  0.90153170046E+03  0.90580063827E+03  0.77510383376E+02 0.  0.
        -13    1    3    3    0    0  0.11343571343E+03  0.28712507424E+01 -0.13328910337E+03  0.17504825118E+03  0.00000000000E+00 0.  1.
         14    1    3    3    0    0  0.26050877085E+02 -0.39565331960E+02 -0.21336349314E+02  0.51954821644E+02  0.00000000000E+00 0. -1.
         13    1    5    5    0    0  0.29932470391E+02 -0.22027092186E+02  0.17829741883E+03  0.18212939119E+03  0.00000000000E+00 0. -1.
        -14    1    5    5    0    0 -0.18016685377E+02 -0.17539862312E+02  0.72323428162E+03  0.72367124707E+03  0.00000000000E+00 0.  1.
          5    1    4    4  501    0 -0.80555751625E+02  0.50051259330E+01  0.82172696020E+02  0.11525669081E+03  0.41800000000E+01 0. -1.
         -5    1    4    4    0  501 -0.70846623903E+02  0.71255909783E+02  0.37280391301E+03  0.38613064985E+03  0.41800000000E+01 0. -1.
</event>
<event>
11    1  0.8299058E-009  0.5164127E+03  0.7561462E-02  0.9357576E-01
         22   -1    0    0    0    0  0.00000000000E+00  0.00000000000E+00  0.51171737088E+03  0.51171737088E+03  0.00000000000E+00 0.  1.
         22   -1    0    0    0    0 -0.00000000000E+00 -0.00000000000E+00 -0.87350110813E+03  0.87350110813E+03  0.00000000000E+00 0.  1.
         24    2    1    2    0    0  0.32541703178E+03  0.42859805187E+03 -0.50514211222E+03  0.74295633061E+03  0.84988358174E+02 0.  0.
         25    2    1    2    0    0 -0.20933903537E+03 -0.37619287657E+03  0.22768712848E+02  0.44889862130E+03  0.12509055043E+03 0.  0.
        -24    2    1    2    0    0 -0.11607799641E+03 -0.52405175296E+02  0.12058966212E+03  0.19336352710E+03  0.81407514108E+02 0.  0.
        -11    1    3    3    0    0  0.25358610773E+03  0.29023140991E+03 -0.32017017347E+03  0.50104802695E+03  0.00000000000E+00 0.  1.
         12    1    3    3    0    0  0.71830924051E+02  0.13836664196E+03 -0.18497193875E+03  0.24190830367E+03  0.00000000000E+00 0. -1.
         13    1    5    5    0    0  0.60301262175E+00 -0.46001569289E+01 -0.10495937461E+02  0.11475616375E+02  0.00000000000E+00 0. -1.
        -14    1    5    5    0    0 -0.11668100903E+03 -0.47805018367E+02  0.13108559958E+03  0.18188791072E+03  0.00000000000E+00 0.  1.
          5    1    4    4  501    0 -0.11791399202E+03 -0.96330215452E+02  0.25507498138E+02  0.15443874121E+03  0.41800000000E+01 0. -1.
         -5    1    4    4    0  501 -0.91425043346E+02 -0.27986266112E+03 -0.27387852905E+01  0.29445988009E+03  0.41800000000E+01 0. -1.
</event>
<event>
11    1  0.8299058E-009  0.1585612E+03  0.7561462E-02  0.1088438E+00
         22   -1    0    0    0    0  0.00000000000E+00  0.00000000000E+00  0.88998362738E+03  0.88998362738E+03  0.00000000000E+00 0.  1.
         22   -1    0    0    0    0 -0.00000000000E+00 -0.00000000000E+00 -0.15302043422E+03  0.15302043422E+03  0.00000000000E+00 0. -1.
        -24    2    1    2    0    0  0.39393263682E+02 -0.85835123781E+02 -0.82830150634E+02  0.14931707809E+03  0.80717149718E+02 0.  0.
         25    2    1    2    0    0 -0.90256456382E+02  0.87738655266E+02  0.20308525537E+03  0.26969675681E+03  0.12509364548E+03 0.  0.
         24    2    1    2    0    0  0.50863192700E+02 -0.19035314849E+01  0.61670808843E+03  0.62399022669E+03  0.80276079050E+02 0.  0.
        -11    1    5    5    0    0  0.37783916995E+02  0.13735610449E+02  0.58443996868E+03  0.58582110612E+03  0.00000000000E+00 0.  1.
         12    1    5    5    0    0  0.13079275705E+02 -0.15639141934E+02  0.32268119745E+02  0.38169120573E+02  0.00000000000E+00 0. -1.
         13    1    3    3    0    0 -0.64609790387E+01 -0.36686796979E+02 -0.72228504710E+02  0.81268826837E+02  0.00000000000E+00 0. -1.
        -14    1    3    3    0    0  0.45854242721E+02 -0.49148326802E+02 -0.10601645923E+02  0.68048251257E+02  0.00000000000E+00 0.  1.
          5    1    4    4  501    0  0.11608990985E+02  0.51279074794E+02  0.12655702013E+03  0.13710749041E+03  0.41800000000E+01 0. -1.
         -5    1    4    4    0  501 -0.10186544737E+03  0.36459580472E+02  0.76528235240E+02  0.13258926640E+03  0.41800000000E+01 0. -1.
</event>
<event>
11    1  0.8299058E-009  0.2258938E+03  0.7561462E-02  0.1037587E+00
         22   -1    0    0    0    0  0.00000000000E+00  0.00000000000E+00  0.60619787938E+03  0.60619787938E+03  0.00000000000E+00 0.  1.
         22   -1    0    0    0    0 -0.00000000000E+00 -0.00000000000E+00 -0.10449593935E+04  0.10449593935E+04  0.00000000000E+00 0. -1.
         24    2    1    2    0    0 -0.16522146074E+01 -0.18384389576E+03 -0.89748024810E+03  0.91968983578E+03  0.80977098436E+02 0.  0.
         25    2    1    2    0    0 -0.14918865025E+02  0.24300069618E+03  0.12864967591E+02  0.27401759493E+03  0.12509286177E+03 0.  0.
        -24    2    1    2    0    0  0.16571079632E+02 -0.59156800414E+02  0.44585376639E+03  0.45744984216E+03  0.81857494296E+02 0.  0.
        -13    1    3    3    0    0 -0.13846368784E+02 -0.16231921565E+03 -0.61781059341E+03  0.63892814857E+03  0.00000000000E+00 0.  1.
         14    1    3    3    0    0  0.12194154177E+02 -0.21524680116E+02 -0.27966965469E+03  0.28076168721E+03  0.00000000000E+00 0. -1.
         13    1    5    5    0    0 -0.27731775812E+02 -0.48267345302E+02  0.21193529100E+03  0.21912406437E+03  0.00000000000E+00 0. -1.
        -14    1    5    5    0    0  0.44302855444E+02 -0.10889455112E+02  0.23391847539E+03  0.23832577780E+03  0.00000000000E+00 0.  1.
          5    1    4    4  501    0  0.68267557230E+01  0.86880713686E+02  0.64050958921E+02  0.10823521027E+03  0.41800000000E+01 0.  1.
         -5    1    4    4    0  501 -0.21745620748E+02  0.15611998249E+03 -0.51185991330E+02  0.16578238466E+03  0.41800000000E+01 0.  1.
</event>
<event>
11    1  0.8299058E-009  0.1807838E+03  0.7561462E-02  0.1069011E+00
         22   -1    0    0    0    0  0.00000000000E+00  0.00000000000E+00  0.98277787119E+02  0.98277787119E+02  0.00000000000E+00 0. -1.
         22   -1    0    0    0    0 -0.00000000000E+00 -0.00000000000E+00 -0.25411576127E+04  0.25411576127E+04  0.00000000000E+00 0. -1.
         24    2    1    2    0    0  0.67167885760E+02 -0.15834077768E+02 -0.14205530519E+04  0.14244134467E+04  0.78869834666E+02 0.  0.
         25    2    1    2    0    0  0.66763508339E+02  0.27626913903E+02 -0.10464857945E+04  0.10564093921E+04  0.12509065924E+03 0.  0.
        -24    2    1    2    0    0 -0.13393139410E+03 -0.11792836135E+02  0.24159020864E+02  0.15861256112E+03  0.80607672992E+02 0.  0.
        -11    1    3    3    0    0  0.24300278369E+02 -0.12114294873E+02 -0.11540161519E+03  0.11855290995E+03  0.00000000000E+00 0.  1.
         12    1    3    3    0    0  0.42867607391E+02 -0.37197828950E+01 -0.13051514367E+04  0.13058605367E+04  0.00000000000E+00 0. -1.
         13    1    5    5    0    0 -0.14077929837E+03 -0.18737070368E+01  0.31803957855E+02  0.14433923016E+03  0.00000000000E+00 0. -1.
        -14    1    5    5    0    0  0.68479042720E+01 -0.99191290980E+01 -0.76449369913E+01  0.14273330956E+02  0.00000000000E+00 0.  1.
          5    1    4    4  501    0  0.26455303521E+02  0.76171060398E+02 -0.54373125358E+03  0.54969360743E+03  0.41800000000E+01 0.  1.
         -5    1    4    4    0  501  0.40308204818E+02 -0.48544146495E+02 -0.50275454096E+03  0.50671578462E+03  0.41800000000E+01 0.  1.
</event>
<event>
11    1  0.8299058E-009  0.1379229E+03  0.7561462E-02  0.1109900E+00
         22   -1    0    0    0    0  0.00000000000E+00  0.00000000000E+00  0.25527421965E+04  0.25527421965E+04  0.00000000000E+00 0.  1.
         22   -1    0    0    0    0 -0.00000000000E+00 -0.00000000000E+00 -0.41193851401E+03  0.41193851401E+03  0.00000000000E+00 0. -1.
         24    2    1    2    0    0  0.18071826464E+02 -0.31152640293E+01 -0.39283810821E+03  0.40141869861E+03  0.80491593045E+02 0.  0.
         25    2    1    2    0    0 -0.60456506497E+02 -0.35264120760E+02  0.36321980353E+03  0.39048093907E+03  0.12509272843E+03 0.  0.
        -24    2    1    2    0    0  0.42384680033E+02  0.38379384790E+02  0.21704219871E+04  0.21727810728E+04  0.83525743681E+02 0.  0.
        -13    1    3    3    0    0  0.25332936667E+02 -0.25068073277E+02 -0.78271909341E+02  0.86003824158E+02  0.00000000000E+00 0.  1.
         14    1    3    3    0    0 -0.72611102030E+01  0.21952809247E+02 -0.31456619887E+03  0.31541487445E+03  0.00000000000E+00 0. -1.
         11    1    5    5    0    0  0.26188949224E+01 -0.80395139842E+01  0.23257866140E+02  0.24747135857E+02  0.00000000000E+00 0. -1.
        -12    1    5    5    0    0  0.39765785111E+02  0.46418898774E+02  0.21471641210E+04  0.21480339369E+04  0.00000000000E+00 0.  1.
          5    1    4    4  501    0  0.19100459359E+02  0.28470470441E+02  0.47804475642E+02  0.58975719803E+02  0.41800000000E+01 0. -1.
         -5    1    4    4    0  501 -0.79556965856E+02 -0.63734591201E+02  0.31541532789E+03  0.33150521926E+03  0.41800000000E+01 0. -1.
</event>
<event>
11    1  0.8299058E-009  0.2500922E+03  0.7561462E-02  0.1023850E+00
         22   -1    0    0    0    0  0.00000000000E+00  0.00000000000E+00  0.22919232425E+03  0.22919232425E+03  0.00000000000E+00 0. -1.
         22   -1    0    0    0    0 -0.00000000000E+00 -0.00000000000E+00 -0.79719402502E+03  0.79719402502E+03  0.00000000000E+00 0.  1.
        -24    2    1    2    0    0  0.46872993068E+02 -0.18895192464E+03 -0.37825129782E+03  0.43297944163E+03  0.80605491536E+02 0.  0.
         25    2    1    2    0    0 -0.61918661159E+02  0.25424541418E+03 -0.31637611672E+03  0.42920344566E+03  0.12508836598E+03 0.  0.
         24    2    1    2    0    0  0.15045668091E+02 -0.65293489540E+02  0.12662571377E+03  0.16420346199E+03  0.80243963233E+02 0.  0.
        -13    1    5    5    0    0  0.69087760798E+01 -0.30768438486E+02 -0.11901493804E+01  0.31557003175E+02  0.00000000000E+00 0.  1.
         14    1    5    5    0    0  0.81368920113E+01 -0.34525051054E+02  0.12781586315E+03  0.13264645881E+03  0.00000000000E+00 0. -1.
         11    1    3    3    0    0 -0.20662381467E+02 -0.59489412906E+02 -0.89883601899E+02  0.10974965215E+03  0.00000000000E+00 0. -1.
        -12    1    3    3    0    0  0.67535374535E+02 -0.12946251174E+03 -0.28836769592E+03  0.32322978949E+03  0.00000000000E+00 0.  1.
          5    1    4    4  501    0 -0.26722920346E+02  0.17686704096E+03 -0.28880794694E+03  0.33974044102E+03  0.41800000000E+01 0. -1.
         -5    1    4    4    0  501 -0.35195740813E+02  0.77378373225E+02 -0.27568169781E+02  0.89463004641E+02  0.41800000000E+01 0. -1.
</event>
<event>
11    1  0.8299058E-009  0.1619819E+03  0.7561462E-02  0.1085228E+00
         22   -1    0    0    0    0  0.00000000000E+00  0.00000000000E+00  0.34078704627E+03  0.34078704627E+03  0.00000000000E+00 0.  1.
         22   -1    0    0    0    0 -0.00000000000E+00 -0.00000000000E+00 -0.22697574769E+03  0.22697574769E+03  0.00000000000E+00 0. -1.
         24    2    1    2    0    0 -0.21164490926E+02 -0.11043598635E+03 -0.15775708492E+03  0.20967638681E+03  0.80205028430E+02 0.  0.
         25    2    1    2    0    0  0.98312059986E+01  0.46215860980E+02  0.12202295846E+03  0.18102523929E+03  0.12509187205E+03 0.  0.
        -24    2    1    2    0    0  0.11333284927E+02  0.64220125374E+02  0.14954542504E+03  0.17706116786E+03  0.68805197221E+02 0.  0.
        -13    1    3    3    0    0 -0.35956487919E+01 -0.10344321236E+03 -0.83318524402E+02  0.13287363690E+03  0.00000000000E+00 0.  1.
         14    1    3    3    0    0 -0.17568842134E+02 -0.69927739901E+01 -0.74438560517E+02  0.76802749911E+02  0.00000000000E+00 0. -1.
         11    1    5    5    0    0  0.64401129009E+01  0.95170864782E+01  0.10692928249E+03  0.10754497404E+03  0.00000000000E+00 0. -1.
        -12    1    5    5    0    0  0.48931720263E+01  0.54703038896E+02  0.42616142551E+02  0.69516193817E+02  0.00000000000E+00 0.  1.
          5    1    4    4  501    0 -0.47590849542E+02  0.11413746177E+02  0.97944660662E+02  0.10957094284E+03  0.41800000000E+01 0. -1.
         -5    1    4    4    0  501  0.57422055540E+02  0.34802114803E+02  0.24078297796E+02  0.71454296456E+02  0.41800000000E+01 0. -1.
</event>
<event>
11    1  0.8299058E-009  0.1820602E+03  0.7561462E-02  0.1067988E+00
         22   -1    0    0    0    0  0.00000000000E+00  0.00000000000E+00  0.15030632491E+04  0.15030632491E+04  0.00000000000E+00 0. -1.
         22   -1    0    0    0    0 -0.00000000000E+00 -0.00000000000E+00 -0.13773477591E+04  0.13773477591E+04  0.00000000000E+00 0.  1.
        -24    2    1    2    0    0 -0.94184675725E+02 -0.79113111090E+02 -0.13518250222E+04  0.13597942916E+04  0.80498368377E+02 0.  0.
         25    2    1    2    0    0 -0.77728041567E+02  0.40971582020E+02  0.45666078578E+03  0.48156891331E+03  0.12509686657E+03 0.  0.
         24    2    1    2    0    0  0.17191271729E+03  0.38141529070E+02  0.10208797265E+04  0.10390478033E+04  0.80100954958E+02 0.  0.
        -11    1    5    5    0    0  0.10802050069E+02  0.16059390767E+02  0.36377817022E+02  0.41205993361E+02  0.00000000000E+00 0.  1.
         12    1    5    5    0    0  0.16111066722E+03  0.22082138303E+02  0.98450190947E+03  0.99784180994E+03  0.00000000000E+00 0. -1.
         13    1    3    3    0    0  0.94704230736E+01 -0.35197184690E+01 -0.27992919319E+02  0.29760390845E+02  0.00000000000E+00 0. -1.
        -14    1    3    3    0    0 -0.10365509880E+03 -0.75593392621E+02 -0.13238321029E+04  0.13300339007E+04  0.00000000000E+00 0.  1.
          5    1    4    4  501    0  0.10600768353E+02  0.10260145804E+02  0.29010613048E+03  0.29051107763E+03  0.41800000000E+01 0. -1.
         -5    1    4    4    0  501 -0.88328809920E+02  0.30711436216E+02  0.16655465529E+03  0.19105783568E+03  0.41800000000E+01 0. -1.
</event>
<event>
11    1  0.8299058E-009  0.1331371E+03  0.7561462E-02  0.1115474E+00
         22   -1    0    0    0    0  0.00000000000E+00  0.00000000000E+00  0.44533026045E+03  0.44533026045E+03  0.00000000000E+00 0.  1.
         22   -1    0    0    0    0 -0.00000000000E+00 -0.00000000000E+00 -0.70397504327E+03  0.70397504327E+03  0.00000000000E+00 0. -1.
         24    2    1    2    0    0  0.32620933954E+02 -0.29551368477E+01 -0.65323131683E+03  0.65920122574E+03  0.82232867920E+02 0.  0.
         25    2    1    2    0    0 -0.31929238081E+02 -0.42882970404E+02  0.69956823143E+02  0.15296809415E+03  0.12508739076E+03 0.  0.
        -24    2    1    2    0    0 -0.69169587334E+00  0.45838107252E+02  0.32462971087E+03  0.33713598383E+03  0.78578698742E+02 0.  0.
        -13    1    3    3    0    0  0.58347410283E+02  0.84483064115E+01 -0.38338000873E+03  0.38788661392E+03  0.00000000000E+00 0.  1.
         14    1    3    3    0    0 -0.25726476328E+02 -0.11403443259E+02 -0.26985130810E+03  0.27131461182E+03  0.00000000000E+00 0. -1.
         13    1    5    5    0    0  0.10138124133E+02 -0.19224922548E+02  0.12546339789E+03  0.12733202040E+03  0.00000000000E+00 0. -1.
        -14    1    5    5    0    0 -0.10829820007E+02  0.65063029800E+02  0.19916631297E+03  0.20980396343E+03  0.00000000000E+00 0.  1.
          5    1    4    4  501    0 -0.54507379202E+02 -0.27024754735E+02 -0.15624299108E+02  0.62952226955E+02  0.41800000000E+01 0. -1.
         -5    1    4    4    0  501  0.22578141121E+02 -0.15858215669E+02  0.85581122251E+02  0.90015867193E+02  0.41800000000E+01 0. -1.
</event>
<event>
11    1  0.8299058E-009  0.1362704E+03  0.7561462E-02  0.1111796E+00
         22   -1    0    0    0    0  0.00000000000E+00  0.00000000000E+00  0.12195956386E+04  0.12195956386E+04  0.00000000000E+00 0. -1.
         22   -1    0    0    0    0 -0.00000000000E+00 -0.00000000000E+00 -0.41792874472E+03  0.41792874472E+03  0.00000000000E+00 0. -1.
        -24    2    1    2    0    0 -0.13419390646E+02  0.52676411097E+02 -0.37928579278E+03  0.39123376756E+03  0.79064935015E+02 0.  0.
         25    2    1    2    0    0  0.53006785584E+02 -0.33477246655E+02  0.12832733524E+03  0.18985598903E+03  0.12508775415E+03 0.  0.
         24    2    1    2    0    0 -0.39587394938E+02 -0.19199164442E+02  0.10526253514E+04  0.10564346268E+04  0.78091103066E+02 0.  0.
        -11    1    5    5    0    0  0.12706204084E+02 -0.26265904905E+02  0.19320705876E+03  0.19539783248E+03  0.00000000000E+00 0.  1.
         12    1    5    5    0    0 -0.52293599022E+02  0.70667404634E+01  0.85941829269E+03  0.86103679429E+03  0.00000000000E+00 0. -1.
         11    1    3    3    0    0 -0.19102165070E+01  0.67453770138E+02 -0.35017518413E+03  0.35661789021E+03  0.00000000000E+00 0. -1.
        -12    1    3    3    0    0 -0.11509174139E+02 -0.14777359042E+02 -0.29110608643E+02  0.34615877357E+02  0.00000000000E+00 0.  1.
          5    1    4    4  501    0 -0.88319227626E+01 -0.52600870082E+02  0.11021122688E+03  0.12251057638E+03  0.41800000000E+01 0. -1.
         -5    1    4    4    0  501  0.61838708347E+02  0.19123623427E+02  0.18116108362E+02  0.67345412651E+02  0.41800000000E+01 0. -1.
</event>
<event>
11    1  0.8299058E-009  0.1444835E+03  0.7561462E-02  0.1102653E+00
         22   -1    0    0    0    0  0.00000000000E+00  0.00000000000E+00  0.16500725398E+04  0.16500725398E+04  0.00000000000E+00 0.  1.
         22   -1    0    0    0    0 -0.00000000000E+00 -0.00000000000E+00 -0.73588319928E+02  0.73588319928E+02  0.00000000000E+00 0.  1.
         24    2    1    2    0    0 -0.24761025453E+02  0.18369550854E+02 -0.32590263962E+02  0.91558465538E+02  0.79814024623E+02 0.  0.
         25    2    1    2    0    0 -0.53320450153E+02 -0.16292986409E+02  0.52341608013E+03  0.54103681486E+03  0.12509160758E+03 0.  0.
        -24    2    1    2    0    0  0.78081475606E+02 -0.20765644452E+01  0.10856584037E+04  0.10910655794E+04  0.75292097246E+02 0.  0.
        -11    1    3    3    0    0  0.17532799303E+02  0.29712824986E+02  0.36847460853E+01  0.34696229965E+02  0.00000000000E+00 0.  1.
         12    1    3    3    0    0 -0.42293824756E+02 -0.11343274132E+02 -0.36275010047E+02  0.56862235574E+02  0.00000000000E+00 0. -1.
         11    1    5    5    0    0  0.50721736792E+02  0.25859478752E+01  0.25851179501E+03  0.26345346812E+03  0.00000000000E+00 0. -1.
        -12    1    5    5    0    0  0.27359738813E+02 -0.46625123205E+01  0.82714660872E+03  0.82761211123E+03  0.00000000000E+00 0.  1.
          5    1    4    4  501    0 -0.81362438247E+02 -0.45820660048E+02  0.31226987277E+03  0.32595908499E+03  0.41800000000E+01 0. -1.
         -5    1    4    4    0  501  0.28041988094E+02  0.29527673639E+02  0.21114620735E+03  0.21507772987E+03  0.41800000000E+01 0. -1.
</event>
<event>
11    1  0.8299058E-009  0.2469880E+03  0.7561462E-02  0.1025516E+00
         22   -1    0    0    0    0  0.00000000000E+00  0.00000000000E+00  0.21511578134E+04  0.21511578134E+04  0.00000000000E+00 0. -1.
         22   -1    0    0    0    0 -0.00000000000E+00 -0.00000000000E+00 -0.65538620584E+03  0.65538620584E+03  0.00000000000E+00 0. -1.
        -24    2    1    2    0    0  0.13953174456E+03 -0.15679011566E+03 -0.54796282506E+03  0.59207660606E+03  0.78988617409E+02 0.  0.
         25    2    1    2    0    0 -0.14536463984E+03  0.19743317720E+03  0.14037357559E+03  0.30897890725E+03  0.12510989738E+03 0.  0.
         24    2    1    2    0    0  0.58328952829E+01 -0.40643061542E+02  0.19033608571E+04  0.19054885060E+04  0.80112502520E+02 0.  0.
        -13    1    5    5    0    0  0.27211473044E+02  0.10444634584E+00  0.24803833492E+03  0.24952653319E+03  0.00000000000E+00 0.  1.
         14    1    5    5    0    0 -0.21378577761E+02 -0.40747507888E+02  0.16553225222E+04  0.16559619728E+04  0.00000000000E+00 0. -1.
         11    1    3    3    0    0  0.58118438546E+02 -0.12022145878E+03 -0.36096820206E+03  0.38487529792E+03  0.00000000000E+00 0. -1.
        -12    1    3    3    0    0  0.81413306012E+02 -0.36568656882E+02 -0.18699462301E+03  0.20720130814E+03  0.00000000000E+00 0.  1.
          5    1    4    4  501    0 -0.15299483201E+03  0.12494993271E+03  0.76147686520E+02  0.21174476822E+03  0.41800000000E+01 0.  1.
         -5    1    4    4    0  501  0.76301921733E+01  0.72483244491E+02  0.64225889072E+02  0.97234139023E+02  0.41800000000E+01 0.  1.
</event>
<event>
11    1  0.8299058E-009  0.2384728E+03  0.7561462E-02  0.1030226E+00
         22   -1    0    0    0    0  0.00000000000E+00  0.00000000000E+00  0.19665394826E+04  0.19665394826E+04  0.00000000000E+00 0.  1.
         22   -1    0    0    0    0 -0.00000000000E+00 -0.00000000000E+00 -0.13449578412E+03  0.13449578412E+03  0.00000000000E+00 0.  1.
        -24    2    1    2    0    0 -0.16226775901E+03 -0.12324780998E+03 -0.51868315675E+01  0.22133822547E+03  0.86272003305E+02 0.  0.
         25    2    1    2    0    0  0.17579954629E+03  0.95746230056E+02  0.68981028322E+03  0.72908070515E+03  0.12509047418E+03 0.  0.
         24    2    1    2    0    0 -0.13531787282E+02  0.27501579927E+02  0.11474202468E+04  0.11506163361E+04  0.80033017546E+02 0.  0.
        -13    1    5    5    0    0  0.13035478453E+02  0.11760654619E+02  0.99213842155E+03  0.99229374895E+03  0.00000000000E+00 0.  1.
         14    1    5    5    0    0 -0.26567265735E+02  0.15740925307E+02  0.15528182524E+03  0.15832258711E+03  0.00000000000E+00 0. -1.
         11    1    3    3    0    0 -0.57362401038E+01 -0.44901385548E+02 -0.94520438104E+01  0.46242621107E+02  0.00000000000E+00 0. -1.
        -12    1    3    3    0    0 -0.15653151891E+03 -0.78346424435E+02  0.42652122429E+01  0.17509560437E+03  0.00000000000E+00 0.  1.
          5    1    4    4  501    0  0.12267253277E+03  0.87131516854E+01  0.48345599108E+03  0.49887036093E+03  0.41800000000E+01 0. -1.
         -5    1    4    4    0  501  0.53127013523E+02  0.87033078371E+02  0.20635429215E+03  0.23021034422E+03  0.41800000000E+01 0. -1.
</event>
<event>
11    1  0.8299058E-009  0.1527304E+03  0.7561462E-02  0.1094121E+00
         22   -1    0    0    0    0  0.00000000000E+00  0.00000000000E+00  0.26513986444E+03  0.26513986444E+03  0.00000000000E+00 0.  1.
         22   -1    0    0    0    0 -0.00000000000E+00 -0.00000000000E+00 -0.16393922992E+04  0.16393922992E+04  0.00000000000E+00 0.  1.
         24    2    1    2    0    0  0.27111101563E+01 -0.50042828974E+02 -0.10182381562E+04  0.10225691349E+04  0.79542806655E+02 0.  0.
         25    2    1    2    0    0 -0.25458440753E+02 -0.35707231536E+02 -0.59757599702E+03  0.61210156725E+03  0.12509243711E+03 0.  0.
        -24    2    1    2    0    0  0.22747330597E+02  0.85750060510E+02  0.24156171846E+03  0.26986146148E+03  0.81256572900E+02 0.  0.
        -13    1    3    3    0    0 -0.13909620172E+02 -0.63971988440E+02 -0.89859042134E+03  0.90097205182E+03  0.00000000000E+00 0.  1.
         14    1    3    3    0    0  0.16620730328E+02  0.13929159466E+02 -0.11964773487E+03  0.12159708311E+03  0.00000000000E+00 0. -1.
         11    1    5    5    0    0 -0.14167674224E+02 -0.11981781094E+01  0.91122610402E+02  0.92225206696E+02  0.00000000000E+00 0. -1.
        -12    1    5    5    0    0  0.36915004821E+02  0.86948238620E+02  0.15043910806E+03  0.17763625478E+03  0.00000000000E+00 0.  1.
          5    1    4    4  501    0  0.10772942972E+02 -0.37753002195E+02 -0.55327753053E+03  0.55468445414E+03  0.41800000000E+01 0.  1.
         -5    1    4    4    0  501 -0.36231383725E+02  0.20457706592E+01 -0.44298466490E+02  0.57417113107E+02  0.41800000000E+01 0.  1.
</event>
<event>
11    1  0.8299058E-009  0.1278262E+03  0.7561462E-02  0.1121969E+00
         22   -1    0    0    0    0  0.00000000000E+00  0.00000000000E+00  0.23402606966E+04  0.23402606966E+04  0.00000000000E+00 0. -1.
         22   -1    0    0    0    0 -0.00000000000E+00 -0.00000000000E+00 -0.12381863123E+03  0.12381863123E+03  0.00000000000E+00 0.  1.
        -24    2    1    2    0    0  0.30084968459E+02 -0.64406738717E+00 -0.73855696434E+02  0.11260137921E+03  0.79491424414E+02 0.  0.
         25    2    1    2    0    0 -0.67626408150E+00 -0.33551326820E+01  0.10136999335E+03  0.16104453982E+03  0.12509098291E+03 0.  0.
         24    2    1    2    0    0 -0.29408704377E+02  0.39992000691E+01  0.21889277684E+04  0.21904334088E+04  0.75583578615E+02 0.  0.
        -11    1    5    5    0    0 -0.27110846842E+02 -0.25357118737E+02  0.55486055877E+03  0.55610090915E+03  0.00000000000E+00 0.  1.
         12    1    5    5    0    0 -0.22978575356E+01  0.29356318806E+02  0.16340672097E+04  0.16343324996E+04  0.00000000000E+00 0. -1.
         13    1    3    3    0    0  0.15602365296E+02 -0.51829368168E+01  0.15122531461E+02  0.22338030233E+02  0.00000000000E+00 0. -1.
        -14    1    3    3    0    0  0.14482603163E+02  0.45388694296E+01 -0.88978227895E+02  0.90263348982E+02  0.00000000000E+00 0.  1.
          5    1    4    4  501    0 -0.74555198806E+01 -0.12657320714E+02 -0.27573510344E+02  0.31520840995E+02  0.41800000000E+01 0. -1.
         -5    1    4    4    0  501  0.67792557991E+01  0.93021880322E+01  0.12894350370E+03  0.12952369882E+03  0.41800000000E+01 0. -1.
</event>
<event>
11    1  0.8299058E-009  0.1296985E+03  0.7561462E-02  0.1119640E+00
         22   -1    0    0    0    0  0.00000000000E+00  0.00000000000E+00  0.72011719616E+02  0.72011719616E+02  0.00000000000E+00 0.  1.
         22   -1    0    0    0    0 -0.00000000000E+00 -0.00000000000E+00 -0.39348274274E+03  0.39348274274E+03  0.00000000000E+00 0.  1.
        -24    2    1    2    0    0 -0.18637688296E+00  0.42365687679E+02 -0.12828386092E+03  0.15704968244E+03  0.80081006194E+02 0.  0.
         25    2    1    2    0    0  0.24654088816E+01 -0.23127719957E+02 -0.18588795831E+03  0.22526213582E+03  0.12509087543E+03 0.  0.
         24    2    1    2    0    0 -0.22790319987E+01 -0.19237967721E+02 -0.72992038936E+01  0.83182644102E+02  0.80565380365E+02 0.  0.
        -13    1    5    5    0    0 -0.40908632934E+02 -0.45142992303E+01  0.25458179220E+00  0.41157744811E+02  0.00000000000E+00 0.  1.
         14    1    5    5    0    0  0.38629600935E+02 -0.14723668491E+02 -0.75537856858E+01  0.42024899291E+02  0.00000000000E+00 0. -1.
         13    1    3    3    0    0  0.30576609793E+02  0.10794566247E+02 -0.98882602709E+02  0.10406354235E+03  0.00000000000E+00 0. -1.
        -14    1    3    3    0    0 -0.30762986676E+02  0.31571121432E+02 -0.29401258210E+02  0.52986140094E+02  0.00000000000E+00 0.  1.
          5    1    4    4  501    0  0.32355761620E+02 -0.41785503039E+02 -0.21697759915E+02  0.57281661634E+02  0.41800000000E+01 0. -1.
         -5    1    4    4    0  501 -0.29890352738E+02  0.18657783082E+02 -0.16419019840E+03  0.16798047418E+03  0.41800000000E+01 0. -1.
</event>
<event>
11    1  0.8299058E-009  0.1487857E+03  0.7561462E-02  0.1098126E+00
         22   -1    0    0    0    0  0.00000000000E+00  0.00000000000E+00  0.42707875562E+03  0.42707875562E+03  0.00000000000E+00 0.  1.
         22   -1    0    0    0    0 -0.00000000000E+00 -0.00000000000E+00 -0.34121911101E+03  0.34121911101E+03  0.00000000000E+00 0. -1.
        -24    2    1    2    0    0 -0.40616300382E+02 -0.68035388931E+02 -0.27302943395E+03  0.29626954590E+03  0.83379098217E+02 0.  0.
         25    2    1    2    0    0  0.81316770941E+02  0.62122654752E+02  0.84578225357E+02  0.18240791726E+03  0.12509008995E+03 0.  0.
         24    2    1    2    0    0 -0.40700470559E+02  0.59127341788E+01  0.27431085320E+03  0.28962040347E+03  0.83318936570E+02 0.  0.
        -13    1    5    5    0    0 -0.62574966404E+02  0.16385190385E+02  0.23203253718E+03  0.24088005147E+03  0.00000000000E+00 0.  1.
         14    1    5    5    0    0  0.21874495845E+02 -0.10472456207E+02  0.42278316020E+02  0.48740351999E+02  0.00000000000E+00 0. -1.
         13    1    3    3    0    0  0.31179930670E+01 -0.27648086200E+02 -0.20057707412E+03  0.20249765731E+03  0.00000000000E+00 0. -1.
        -14    1    3    3    0    0 -0.43734293449E+02 -0.40387302730E+02 -0.72452359831E+02  0.93771888594E+02  0.00000000000E+00 0.  1.
          5    1    4    4  501    0  0.89151414929E+02  0.40355888177E+02  0.11033268485E+03  0.14753760958E+03  0.41800000000E+01 0.  1.
         -5    1    4    4    0  501 -0.78346439878E+01  0.21766766575E+02 -0.25754459496E+02  0.34870307677E+02  0.41800000000E+01 0.  1.
</event>
<event>
11    1  0.8299058E-009  0.2266377E+03  0.7561462E-02  0.1037137E+00
         22   -1    0    0    0    0  0.00000000000E+00  0.00000000000E+00  0.32174208944E+04  0.32174208944E+04  0.00000000000E+00 0. -1.
         22   -1    0    0    0    0 -0.00000000000E+00 -0.00000000000E+00 -0.21034117540E+04  0.21034117540E+04  0.00000000000E+00 0. -1.
        -24    2    1    2    0    0  0.17923951544E+03 -0.56312505745E+02 -0.20433367573E+04  0.20536565416E+04  0.83559469671E+02 0.  0.
         25    2    1    2    0    0 -0.27595979868E+03  0.87397233383E+02  0.41220794117E+03  0.51899380645E+03  0.12508835869E+03 0.  0.
         24    2    1    2    0    0  0.96720283245E+02 -0.31084727638E+02  0.27451379566E+04  0.27481823003E+04  0.80015508797E+02 0.  0.
        -11    1    5    5    0    0  0.53165953582E+02  0.22909381377E+02  0.10095389600E+04  0.10111974931E+04  0.00000000000E+00 0.  1.
         12    1    5    5    0    0  0.43554329664E+02 -0.53994109015E+02  0.17355989966E+04  0.17369848072E+04  0.00000000000E+00 0. -1.
         13    1    3    3    0    0  0.18050261833E+03 -0.37135292131E+02 -0.19210550953E+04  0.19298738053E+04  0.00000000000E+00 0. -1.
        -14    1    3    3    0    0 -0.12631028968E+01 -0.19177213613E+02 -0.12228166199E+03  0.12378273632E+03  0.00000000000E+00 0.  1.
          5    1    4    4  501    0 -0.61355518379E+02  0.67746412633E+02  0.72782146708E+02  0.11691359775E+03  0.41800000000E+01 0.  1.
         -5    1    4    4    0  501 -0.21460428030E+03  0.19650820750E+02  0.33942579446E+03  0.40208020870E+03  0.41800000000E+01 0.  1.
</event>
<event>
11    1  0.8299058E-009  0.1261266E+03  0.7561462E-02  0.1124122E+00
         22   -1    0    0    0    0  0.00000000000E+00  0.00000000000E+00  0.64677294179E+03  0.64677294179E+03  0.00000000000E+00 0.  1.
         22   -1    0    0    0    0 -0.00000000000E+00 -0.00000000000E+00 -0.22164702122E+03  0.22164702122E+03  0.00000000000E+00 0. -1.
         24    2    1    2    0    0 -0.16282260139E+02  0.26266168197E+00 -0.16372515166E+03  0.18285062901E+03  0.79769958344E+02 0.  0.
         25    2    1    2    0    0  0.14486859863E+02  0.11550566928E+02  0.42336606373E+02  0.13335437837E+03  0.12509083615E+03 0.  0.
        -24    2    1    2    0    0  0.17954002757E+01 -0.11813228609E+02  0.54651446587E+03  0.55221495563E+03  0.78233752229E+02 0.  0.
        -11    1    3    3    0    0  0.20550909950E+02  0.28401627403E+02 -0.69369052920E+02  0.77724242305E+02  0.00000000000E+00 0.  1.
         12    1    3    3    0    0 -0.36833170089E+02 -0.28138965721E+02 -0.94356098744E+02  0.10512638670E+03  0.00000000000E+00 0. -1.
         13    1    5    5    0    0  0.10511355780E+02 -0.40892590482E+02  0.20199189941E+03  0.20635750528E+03  0.00000000000E+00 0. -1.
        -14    1    5    5    0    0 -0.87159555042E+01  0.29079361873E+02  0.34452256646E+03  0.34585745035E+03  0.00000000000E+00 0.  1.
          5    1    4    4  501    0  0.58026820937E+02 -0.45656464184E+01  0.59819358002E+02  0.83569043713E+02  0.41800000000E+01 0. -1.
         -5    1    4    4    0  501 -0.43539961073E+02  0.16116213346E+02 -0.17482751629E+02  0.49785334662E+02  0.41800000000E+01 0. -1.
</event>
<event>
11    1  0.8299058E-009  0.1957807E+03  0.7561462E-02  0.1057548E+00
         22   -1    0    0    0    0  0.00000000000E+00  0.00000000000E+00  0.10057376229E+04  0.10057376229E+04  0.00000000000E+00 0. -1.
         22   -1    0    0    0    0 -0.00000000000E+00 -0.00000000000E+00 -0.25047131623E+03  0.25047131623E+03  0.00000000000E+00 0. -1.
        -24    2    1    2    0    0 -0.13674895973E+03  0.61010165126E+02 -0.19710788882E+03  0.26031758581E+03  0.80568029704E+02 0.  0.
         25    2    1    2    0    0  0.14201710903E+03 -0.96869806808E+02  0.66615673279E+03  0.69926036086E+03  0.12509053086E+03 0.  0.
         24    2    1    2    0    0 -0.52681492958E+01  0.35859641683E+02  0.28621746273E+03  0.29663099248E+03  0.68962616150E+02 0.  0.
        -13    1    5    5    0    0  0.13616068629E+02  0.47313772875E+02  0.13281654947E+03  0.14164824828E+03  0.00000000000E+00 0.  1.
         14    1    5    5    0    0 -0.18884217925E+02 -0.11454131192E+02  0.15340091326E+03  0.15498274420E+03  0.00000000000E+00 0. -1.
         11    1    3    3    0    0 -0.88121132090E+02  0.77243210654E+02 -0.15277918834E+03  0.19254435308E+03  0.00000000000E+00 0. -1.
        -12    1    3    3    0    0 -0.48627827645E+02 -0.16233045529E+02 -0.44328700477E+02  0.67773232729E+02  0.00000000000E+00 0.  1.
          5    1    4    4  501    0 -0.21185399338E+02 -0.27586767192E+01  0.42416347772E+02  0.47676518336E+02  0.41800000000E+01 0.  1.
         -5    1    4    4    0  501  0.16320250837E+03 -0.94111130089E+02  0.62374038502E+03  0.65158384253E+03  0.41800000000E+01 0.  1.
</event>
<event>
11    1  0.8299058E-009  0.1493184E+03  0.7561462E-02  0.1097577E+00
         22   -1    0    0    0    0  0.00000000000E+00  0.00000000000E+00  0.13162784847E+03  0.13162784847E+03  0.00000000000E+00 0. -1.
         22   -1    0    0    0    0 -0.00000000000E+00 -0.00000000000E+00 -0.93312709896E+03  0.93312709896E+03  0.00000000000E+00 0. -1.
         24    2    1    2    0    0 -0.66471426045E+00  0.46477031620E+02 -0.64765064286E+03  0.65453068662E+03  0.82453066786E+02 0.  0.
         25    2    1    2    0    0 -0.61771791868E+02 -0.93675814295E+02 -0.22135935299E+03  0.27791701070E+03  0.12508792598E+03 0.  0.
        -24    2    1    2    0    0  0.62436506128E+02  0.47198782675E+02  0.67510745364E+02  0.13230725011E+03  0.82592162510E+02 0.  0.
        -13    1    3    3    0    0  0.29091629643E+02  0.13257168403E+01 -0.98244026064E+02  0.10246935687E+03  0.00000000000E+00 0.  1.
         14    1    3    3    0    0 -0.29756343904E+02  0.45151314779E+02 -0.54940661680E+03  0.55206132975E+03  0.00000000000E+00 0. -1.
         13    1    5    5    0    0  0.70136449620E+02  0.38795211647E+02  0.81469148600E+02  0.11428653545E+03  0.00000000000E+00 0. -1.
        -14    1    5    5    0    0 -0.76999434920E+01  0.84035710278E+01 -0.13958403236E+02  0.18020714656E+02  0.00000000000E+00 0.  1.
          5    1    4    4  501    0 -0.61913990648E+01 -0.10946214929E+03 -0.15376535203E+03  0.18889560989E+03  0.41800000000E+01 0. -1.
         -5    1    4    4    0  501 -0.55580392803E+02  0.15786334997E+02 -0.67594000960E+02  0.89021400812E+02  0.41800000000E+01 0. -1.
</event>
<event>
11    1  0.8299058E-009  0.1339495E+03  0.7561462E-02  0.1114509E+00
         22   -1    0    0    0    0  0.00000000000E+00  0.00000000000E+00  0.11203206055E+04  0.11203206055E+04  0.00000000000E+00 0. -1.
         22   -1    0    0    0    0 -0.00000000000E+00 -0.00000000000E+00 -0.17405523586E+04  0.17405523586E+04  0.00000000000E+00 0.  1.
         24    2    1    2    0    0 -0.19881961861E+02  0.21517357746E+02 -0.16960406979E+04  0.16981521410E+04  0.79425159084E+02 0.  0.
         25    2    1    2    0    0  0.29390709299E+02 -0.67168818125E+02  0.85971635673E+02  0.16857116523E+03  0.12509856787E+03 0.  0.
        -24    2    1    2    0    0 -0.95087474380E+01  0.45651460379E+02  0.98983730913E+03  0.99414965792E+03  0.79882236379E+02 0.  0.
        -13    1    3    3    0    0 -0.92692057400E+01 -0.12053787000E+02 -0.13914755163E+04  0.13915585954E+04  0.00000000000E+00 0.  1.
         14    1    3    3    0    0 -0.10612756121E+02  0.33571144746E+02 -0.30456518156E+03  0.30659354555E+03  0.00000000000E+00 0. -1.
         11    1    5    5    0    0  0.78406386990E+01  0.65508389156E+02  0.73225942112E+03  0.73522560108E+03  0.00000000000E+00 0. -1.
        -12    1    5    5    0    0 -0.17349386137E+02 -0.19856928777E+02  0.25757788801E+03  0.25892405684E+03  0.00000000000E+00 0.  1.
          5    1    4    4  501    0  0.17027228699E+01 -0.99051668338E+02  0.76134359102E+02  0.12501218061E+03  0.41800000000E+01 0. -1.
         -5    1    4    4    0  501  0.27687986429E+02  0.31882850213E+02  0.98372765710E+01  0.43558984613E+02  0.41800000000E+01 0. -1.
</event>
<event>
11    1  0.8299058E-009  0.2312569E+03  0.7561462E-02  0.1034386E+00
         22   -1    0    0    0    0  0.00000000000E+00  0.00000000000E+00  0.40213731355E+03  0.40213731355E+03  0.00000000000E+00 0. -1.
         22   -1    0    0    0    0 -0.00000000000E+00 -0.00000000000E+00 -0.20760040793E+04  0.20760040793E+04  0.00000000000E+00 0.  1.
        -24    2    1    2    0    0 -0.15527584137E+03  0.11597090639E+03 -0.16422181524E+04  0.16555595736E+04  0.80232186879E+02 0.  0.
         25    2    1    2    0    0  0.15094372392E+03 -0.12855440419E+03 -0.38936726561E+03  0.45449359812E+03  0.12508925045E+03 0.  0.
         24    2    1    2    0    0  0.43321174551E+01  0.12583497791E+02  0.35771865219E+03  0.36808822114E+03  0.85727432951E+02 0.  0.
        -13    1    5    5    0    0 -0.88316271343E+01 -0.23845455323E+02  0.36164143484E+02  0.44209146693E+02  0.00000000000E+00 0.  1.
         14    1    5    5    0    0  0.13163744589E+02  0.36428953114E+02  0.32155450871E+03  0.32387907445E+03  0.00000000000E+00 0. -1.
         11    1    3    3    0    0 -0.13143093243E+03  0.55741408411E+02 -0.10118090500E+04  0.10218310762E+04  0.00000000000E+00 0. -1.
        -12    1    3    3    0    0 -0.23844908941E+02  0.60229497984E+02 -0.63040910231E+03  0.63372849738E+03  0.00000000000E+00 0.  1.
          5    1    4    4  501    0  0.28211454771E+02 -0.14011093187E+02 -0.19524701350E+03  0.19781573647E+03  0.41800000000E+01 0.  1.
         -5    1    4    4    0  501  0.12273226915E+03 -0.11454331100E+03 -0.19412025210E+03  0.25667786165E+03  0.41800000000E+01 0.  1.
</event>
<event>
11    1  0.8299058E-009  0.1276196E+03  0.7561462E-02  0.1122229E+00
         22   -1    0    0    0    0  0.00000000000E+00  0.00000000000E+00  0.80387407533E+03  0.80387407533E+03  0.00000000000E+00 0.  1.
         22   -1    0    0    0    0 -0.00000000000E+00 -0.00000000000E+00 -0.37014593379E+03  0.37014593379E+03  0.00000000000E+00 0. -1.
        -24    2    1    2    0    0  0.41096930932E+01  0.53950259819E+01 -0.34165566376E+03  0.35110917351E+03  0.80641572798E+02 0.  0.
         25    2    1    2    0    0 -0.22599741637E+02  0.11943504728E+02  0.17274498035E+03  0.21480664737E+03  0.12509065468E+03 0.  0.
         24    2    1    2    0    0  0.18490048544E+02 -0.17338530710E+02  0.60263882494E+03  0.60810418824E+03  0.77295820588E+02 0.  0.
        -13    1    5    5    0    0 -0.11467306569E+02 -0.18876293219E+02  0.51500954844E+03  0.51548292751E+03  0.00000000000E+00 0.  1.
         14    1    5    5    0    0  0.29957355114E+02  0.15377625090E+01  0.87629276500E+02  0.92621260728E+02  0.00000000000E+00 0. -1.
         13    1    3    3    0    0  0.22577120313E+01  0.24328236730E+02 -0.32472431310E+03  0.32564219611E+03  0.00000000000E+00 0. -1.
        -14    1    3    3    0    0  0.18519810619E+01 -0.18933210748E+02 -0.16931350656E+02  0.25466977404E+02  0.00000000000E+00 0.  1.
          5    1    4    4  501    0 -0.18694912292E+02  0.67505050565E+02  0.78829520606E+02  0.10553671075E+03  0.41800000000E+01 0.  1.
         -5    1    4    4    0  501 -0.39048293459E+01 -0.55561545837E+02  0.93915459748E+02  0.10926993661E+03  0.41800000000E+01 0.  1.
</event>
<event>
11    1  0.8299058E-009  0.1411741E+03  0.7561462E-02  0.1106254E+00
         22   -1    0    0    0    0  0.00000000000E+00  0.00000000000E+00  0.64680191007E+03  0.64680191007E+03  0.00000000000E+00 0. -1.
         22   -1    0    0    0    0 -0.00000000000E+00 -0.00000000000E+00 -0.19380107047E+03  0.19380107047E+03  0.00000000000E+00 0.  1.
         24    2    1    2    0    0  0.22205194007E+02  0.53964940000E+02 -0.11025143690E+03  0.14762358102E+03  0.78943378087E+02 0.  0.
         25    2    1    2    0    0  0.82041028534E+01  0.90735845198E+01  0.62334982749E+01  0.12583922063E+03  0.12508803184E+03 0.  0.
        -24    2    1    2    0    0 -0.30409296861E+02 -0.63038524520E+02  0.55701877823E+03  0.56714017888E+03  0.80495231484E+02 0.  0.
        -13    1    3    3    0    0  0.31896717164E+02  0.27302016279E+02 -0.11158506975E+03  0.11922260042E+03  0.00000000000E+00 0.  1.
         14    1    3    3    0    0 -0.96915231564E+01  0.26662923722E+02  0.13336328513E+01  0.28400980600E+02  0.00000000000E+00 0. -1.
         11    1    5    5    0    0 -0.65729915638E+01 -0.61505562692E+02  0.51584021809E+03  0.51953562828E+03  0.00000000000E+00 0. -1.
        -12    1    5    5    0    0 -0.23836305297E+02 -0.15329618282E+01  0.41178560143E+02  0.47604550598E+02  0.00000000000E+00 0.  1.
          5    1    4    4  501    0 -0.79537419272E+01 -0.52857666495E+02  0.24788038926E+02  0.59068724311E+02  0.41800000000E+01 0. -1.
         -5    1    4    4    0  501  0.16157844781E+02  0.61931251015E+02 -0.18554540651E+02  0.66770496322E+02  0.41800000000E+01 0. -1.
</event>
<event>
11    1  0.8299058E-009  0.1856368E+03  0.7561462E-02  0.1065172E+00
         22   -1    0    0    0    0  0.00000000000E+00  0.00000000000E+00  0.13870731741E+04  0.13870731741E+04  0.00000000000E+00 0. -1.
         22   -1    0    0    0    0 -0.00000000000E+00 -0.00000000000E+00 -0.18296206758E+03  0.18296206758E+03  0.00000000000E+00 0. -1.
        -24    2    1    2    0    0  0.16316103862E+02 -0.87840303064E+02 -0.12411026730E+03  0.17250843572E+03  0.79835254478E+02 0.  0.
         25    2    1    2    0    0  0.30164197193E+02  0.20208760920E+03  0.47662280384E+03  0.53344792621E+03  0.12509241486E+03 0.  0.
         24    2    1    2    0    0 -0.46480301054E+02 -0.11424730614E+03  0.85159856994E+03  0.86407887971E+03  0.78735764974E+02 0.  0.
        -11    1    5    5    0    0  0.90560253246E+01  0.75446411503E+01  0.95290999886E+02  0.96017226913E+02  0.00000000000E+00 0.  1.
         12    1    5    5    0    0 -0.55536326379E+02 -0.12179194729E+03  0.75630757006E+03  0.76806165280E+03  0.00000000000E+00 0. -1.
         11    1    3    3    0    0 -0.13713403447E+02  0.57197002644E+01 -0.41685576020E+02  0.44254487380E+02  0.00000000000E+00 0. -1.
        -12    1    3    3    0    0  0.30029507309E+02 -0.93560003328E+02 -0.82424691283E+02  0.12825394834E+03  0.00000000000E+00 0.  1.
          5    1    4    4  501    0  0.70750340598E+02  0.17022004708E+03  0.33093564516E+03  0.37883551676E+03  0.41800000000E+01 0. -1.
         -5    1    4    4    0  501 -0.40586143405E+02  0.31867562122E+02  0.14568715868E+03  0.15461240945E+03  0.41800000000E+01 0. -1.
</event>
<event>
11    1  0.8299058E-009  0.1602425E+03  0.7561462E-02  0.1086849E+00
         22   -1    0    0    0    0  0.00000000000E+00  0.00000000000E+00  0.14653791283E+03  0.14653791283E+03  0.00000000000E+00 0. -1.
         22   -1    0    0    0    0 -0.00000000000E+00 -0.00000000000E+00 -0.40782987450E+03  0.40782987450E+03  0.00000000000E+00 0. -1.
        -24    2    1    2    0    0  0.32327639132E+01  0.25593412050E+02 -0.13237606046E+03  0.16186773450E+03  0.89511276312E+02 0.  0.
         25    2    1    2    0    0  0.96389633269E+02 -0.69694424045E+01 -0.19021472849E+03  0.24731989548E+03  0.12508378487E+03 0.  0.
         24    2    1    2    0    0 -0.99622397182E+02 -0.18623969646E+02  0.61298827283E+02  0.14518015734E+03  0.83953901601E+02 0.  0.
        -11    1    5    5    0    0 -0.10928364238E+03 -0.17425984896E+02  0.33343798615E+02  0.11557849431E+03  0.00000000000E+00 0.  1.
         12    1    5    5    0    0  0.96612451993E+01 -0.11979847494E+01  0.27955028668E+02  0.29601663029E+02  0.00000000000E+00 0. -1.
         11    1    3    3    0    0 -0.81403123696E+01  0.37756256962E+01 -0.13660793496E+03  0.13690232989E+03  0.00000000000E+00 0. -1.
        -12    1    3    3    0    0  0.11373076283E+02  0.21817786354E+02  0.42318745041E+01  0.24965404610E+02  0.00000000000E+00 0.  1.
          5    1    4    4  501    0  0.34415610900E+02 -0.54608715851E+02 -0.14026491028E+03  0.15446120412E+03  0.41800000000E+01 0. -1.
         -5    1    4    4    0  501  0.61974022368E+02  0.47639273446E+02 -0.49949818212E+02  0.92858691367E+02  0.41800000000E+01 0. -1.
</event>
<event>
11    1  0.8299058E-009  0.1470290E+03  0.7561462E-02  0.1099954E+00
         22   -1    0    0    0    0  0.00000000000E+00  0.00000000000E+00  0.89644088133E+03  0.89644088133E+03  0.00000000000E+00 0. -1.
         22   -1    0    0    0    0 -0.00000000000E+00 -0.00000000000E+00 -0.29077168322E+03  0.29077168322E+03  0.00000000000E+00 0. -1.
        -24    2    1    2    0    0 -0.77920130213E+02  0.20450729577E+02 -0.20991970927E+03  0.23832237869E+03  0.79003119010E+02 0.  0.
         25    2    1    2    0    0  0.23742101898E+02 -0.78649532799E+02  0.27094427013E+02  0.15208974961E+03  0.12509095710E+03 0.  0.
         24    2    1    2    0    0  0.54178028315E+02  0.58198803223E+02  0.78849448037E+03  0.79680043626E+03  0.82734697678E+02 0.  0.
        -13    1    5    5    0    0 -0.15405233026E+01 -0.18635304563E+02  0.17687809777E+03  0.17786373790E+03  0.00000000000E+00 0.  1.
         14    1    5    5    0    0  0.55718551618E+02  0.76834107786E+02  0.61161638260E+03  0.61893669836E+03  0.00000000000E+00 0. -1.
         13    1    3    3    0    0 -0.33775005175E+02  0.38528008482E+02 -0.16509876505E+03  0.17286630855E+03  0.00000000000E+00 0. -1.
        -14    1    3    3    0    0 -0.44145125039E+02 -0.18077278906E+02 -0.44820944221E+02  0.65456070140E+02  0.00000000000E+00 0.  1.
          5    1    4    4  501    0  0.40003492504E+02 -0.10220085741E+03 -0.36332330779E+01  0.10989070684E+03  0.41800000000E+01 0.  1.
         -5    1    4    4    0  501 -0.16261390606E+02  0.23551324612E+02  0.30727660091E+02  0.42199042763E+02  0.41800000000E+01 0.  1.
</event>
<event>
11    1  0.8299058E-009  0.1413921E+03  0.7561462E-02  0.1106014E+00
         22   -1    0    0    0    0  0.00000000000E+00  0.00000000000E+00  0.27350190184E+02  0.27350190184E+02  0.00000000000E+00 0. -1.
         22   -1    0    0    0    0 -0.00000000000E+00 -0.00000000000E+00 -0.17432108497E+04  0.17432108497E+04  0.00000000000E+00 0. -1.
         24    2    1    2    0    0 -0.51654477159E+01 -0.10208228224E+02 -0.11200685810E+04  0.11227820567E+04  0.77168847102E+02 0.  0.
         25    2    1    2    0    0  0.30204414124E+02  0.67231192707E+02 -0.41137217022E+03  0.43624104531E+03  0.12508735856E+03 0.  0.
        -24    2    1    2    0    0 -0.25038966408E+02 -0.57022964483E+02 -0.18441990833E+03  0.21153793790E+03  0.82819250567E+02 0.  0.
        -13    1    3    3    0    0  0.24055074166E+02  0.20337310330E+02 -0.66774003642E+03  0.66848261684E+03  0.00000000000E+00 0.  1.
         14    1    3    3    0    0 -0.29220521882E+02 -0.30545538554E+02 -0.45232854458E+03  0.45429943987E+03  0.00000000000E+00 0. -1.
         13    1    5    5    0    0 -0.36934935796E+02 -0.73461527552E+02 -0.13437090475E+03  0.15753198264E+03  0.00000000000E+00 0. -1.
        -14    1    5    5    0    0  0.11895969388E+02  0.16438563069E+02 -0.50049003585E+02  0.54005955258E+02  0.00000000000E+00 0.  1.
          5    1    4    4  501    0 -0.18842112179E+02  0.72692598780E+02 -0.12709233536E+03  0.14767929176E+03  0.41800000000E+01 0. -1.
         -5    1    4    4    0  501  0.49046526303E+02 -0.54614060728E+01 -0.28427983487E+03  0.28856175355E+03  0.41800000000E+01 0. -1.
</event>
<event>
11    1  0.8299058E-009  0.1484011E+03  0.7561462E-02  0.1098524E+00
         22   -1    0    0    0    0  0.00000000000E+00  0.00000000000E+00  0.30447491080E+03  0.30447491080E+03  0.00000000000E+00 0.  1.
         22   -1    0    0    0    0 -0.00000000000E+00 -0.00000000000E+00 -0.10050114919E+03  0.10050114919E+03  0.00000000000E+00 0. -1.
        -24    2    1    2    0    0 -0.16380777646E+02 -0.61262713284E+01  0.32147003354E+02  0.87966381136E+02  0.79992457825E+02 0.  0.
         25    2    1    2    0    0  0.87259701050E+02 -0.58733466861E+01  0.13132062068E+03  0.20134801494E+03  0.12508863288E+03 0.  0.
         24    2    1    2    0    0 -0.70878923404E+02  0.11999618015E+02  0.40506137580E+02  0.11566166392E+03  0.81049742152E+02 0.  0.
        -13    1    5    5    0    0 -0.39711693072E+02  0.32406825048E+01  0.64188837117E+02  0.75549502978E+02  0.00000000000E+00 0.  1.
         14    1    5    5    0    0 -0.31167230332E+02  0.87589355097E+01 -0.23682699537E+02  0.40112160939E+02  0.00000000000E+00 0. -1.
         13    1    3    3    0    0 -0.50684628184E+01 -0.22855876883E+02 -0.20788851430E+02  0.31309052480E+02  0.00000000000E+00 0. -1.
        -14    1    3    3    0    0 -0.11312314827E+02  0.16729605554E+02  0.52935854784E+02  0.56657328656E+02  0.00000000000E+00 0.  1.
          5    1    4    4  501    0  0.22403998873E+02 -0.82337068961E+00 -0.23875903931E+02  0.33017393800E+02  0.41800000000E+01 0. -1.
         -5    1    4    4    0  501  0.64855702176E+02 -0.50499759965E+01  0.15519652461E+03  0.16833062114E+03  0.41800000000E+01 0. -1.
</event>
<event>
11    1  0.8299058E-009  0.1575050E+03  0.7561462E-02  0.1089448E+00
         22   -1    0    0    0    0  0.00000000000E+00  0.00000000000E+00  0.68780750099E+03  0.68780750099E+03  0.00000000000E+00 0. -1.
         22   -1    0    0    0    0 -0.00000000000E+00 -0.00000000000E+00 -0.23669849705E+04  0.23669849705E+04  0.00000000000E+00 0. -1.
        -24    2    1    2    0    0  0.12295347419E+02 -0.70525421785E+01 -0.20261158090E+04  0.20276160926E+04  0.76686593285E+02 0.  0.
         25    2    1    2    0    0  0.71199672932E+02  0.54081161508E+02 -0.31671033484E+03  0.35206206188E+03  0.12509234094E+03 0.  0.
         24    2    1    2    0    0 -0.83495020351E+02 -0.47028619330E+02  0.66364867435E+03  0.67511431699E+03  0.78528138718E+02 0.  0.
        -13    1    5    5    0    0 -0.76843964786E+02 -0.31791125956E+02  0.30657357628E+03  0.31765237018E+03  0.00000000000E+00 0.  1.
         14    1    5    5    0    0 -0.66510555651E+01 -0.15237493374E+02  0.35707509808E+03  0.35746194680E+03  0.00000000000E+00 0. -1.
         13    1    3    3    0    0  0.34769919967E+02  0.16149726429E+02 -0.15123197870E+04  0.15128056383E+04  0.00000000000E+00 0. -1.
        -14    1    3    3    0    0 -0.22474572548E+02 -0.23202268608E+02 -0.51379602199E+03  0.51481045433E+03  0.00000000000E+00 0.  1.
          5    1    4    4  501    0  0.63565224105E+02 -0.11110787476E+02 -0.64179321550E+02  0.91106778169E+02  0.41800000000E+01 0.  1.
         -5    1    4    4    0  501  0.76344488274E+01  0.65191948984E+02 -0.25253101329E+03  0.26095528371E+03  0.41800000000E+01 0.  1.
</event>
<event>
11    1  0.8299058E-009  0.1508391E+03  0.7561462E-02  0.1096024E+00
         22   -1    0    0    0    0  0.00000000000E+00  0.00000000000E+00  0.10070352514E+03  0.10070352514E+03  0.00000000000E+00 0.  1.
         22   -1    0    0    0    0 -0.00000000000E+00 -0.00000000000E+00 -0.72675186213E+03  0.72675186213E+03  0.00000000000E+00 0.  1.
        -24    2    1    2    0    0  0.54016248969E+02 -0.62836397099E+02 -0.36811064464E+03  0.38623526219E+03  0.82498867317E+02 0.  0.
         25    2    1    2    0    0 -0.13208714052E+02 -0.23808848910E+02 -0.28533660014E+03  0.31273984717E+03  0.12509158730E+03 0.  0.
         24    2    1    2    0    0 -0.40807534917E+02  0.86645246009E+02  0.27398907790E+02  0.12848027791E+03  0.81140791848E+02 0.  0.
        -13    1    5    5    0    0 -0.41530381571E+01  0.88291432617E+02  0.14400533589E+02  0.89554453642E+02  0.00000000000E+00 0.  1.
         14    1    5    5    0    0 -0.36654496760E+02 -0.16461866079E+01  0.12998374201E+02  0.38925824267E+02  0.00000000000E+00 0. -1.
         11    1    3    3    0    0  0.22514797759E+02 -0.69593304288E+02 -0.16365960684E+03  0.17926129262E+03  0.00000000000E+00 0. -1.
        -12    1    3    3    0    0  0.31501451209E+02  0.67569071892E+01 -0.20445103780E+03  0.20697396957E+03  0.00000000000E+00 0.  1.
          5    1    4    4  501    0  0.34606048903E+02  0.36728417467E+02 -0.10618766911E+03  0.11764288649E+03  0.41800000000E+01 0.  1.
         -5    1    4    4    0  501 -0.47814762955E+02 -0.60537266377E+02 -0.17914893103E+03  0.19509696068E+03  0.41800000000E+01 0.  1.
</event>
<event>
11    1  0.8299058E-009  0.1377461E+03  0.7561462E-02  0.1110102E+00
         22   -1    0    0    0    0  0.00000000000E+00  0.00000000000E+00  0.23646156259E+03  0.23646156259E+03  0.00000000000E+00 0.  1.
         22   -1    0    0    0    0 -0.00000000000E+00 -0.00000000000E+00 -0.21459534029E+03  0.21459534029E+03  0.00000000000E+00 0.  1.
        -24    2    1    2    0    0  0.39537653956E+02 -0.41288372789E+02 -0.95936693464E+02  0.13664145777E+03  0.78734255696E+02 0.  0.
         25    2    1    2    0    0 -0.39827174036E+02  0.43623388903E+02 -0.34097252981E+02  0.14247297759E+03  0.12508686115E+03 0.  0.
         24    2    1    2    0    0  0.28952007940E+00 -0.23350161139E+01  0.15190016875E+03  0.17194246752E+03  0.80529589265E+02 0.  0.
        -11    1    5    5    0    0 -0.27910614264E+02 -0.26105966145E+02  0.10824240432E+03  0.11479086179E+03  0.00000000000E+00 0.  1.
         12    1    5    5    0    0  0.28200134343E+02  0.23770950032E+02  0.43657764431E+02  0.57151605729E+02  0.00000000000E+00 0. -1.
         13    1    3    3    0    0  0.60027826080E+00  0.16358877700E+02  0.20224920177E+01  0.16494353202E+02  0.00000000000E+00 0. -1.
        -14    1    3    3    0    0  0.38937375695E+02 -0.57647250489E+02 -0.97959185482E+02  0.12014710456E+03  0.00000000000E+00 0.  1.
          5    1    4    4  501    0 -0.53667621348E+01  0.79512042346E+02  0.36413237650E+01  0.79885534690E+02  0.41800000000E+01 0. -1.
         -5    1    4    4    0  501 -0.34460411901E+02 -0.35888653444E+02 -0.37738576746E+02  0.62587442903E+02  0.41800000000E+01 0. -1.
</event>
<event>
11    1  0.8299058E-009  0.1438040E+03  0.7561462E-02  0.1103383E+00
         22   -1    0    0    0    0  0.00000000000E+00  0.00000000000E+00  0.65109701554E+03  0.65109701554E+03  0.00000000000E+00 0.  1.
         22   -1    0    0    0    0 -0.00000000000E+00 -0.00000000000E+00 -0.81752768147E+03  0.81752768147E+03  0.00000000000E+00 0.  1.
        -24    2    1    2    0    0 -0.68559623621E+02 -0.21574364733E+01 -0.71040634296E+03  0.71836630769E+03  0.81657231048E+02 0.  0.
         25    2    1    2    0    0  0.11330420905E+03 -0.47138244363E+01 -0.27773096247E+02  0.17111118114E+03  0.12509047728E+03 0.  0.
         24    2    1    2    0    0 -0.44744585427E+02  0.68712609096E+01  0.57174877327E+03  0.57914720818E+03  0.80408562074E+02 0.  0.
        -13    1    5    5    0    0 -0.45855333828E+02  0.24491241789E+02  0.54248528061E+03  0.54497046915E+03  0.00000000000E+00 0.  1.
         14    1    5    5    0    0  0.11107484013E+01 -0.17619980879E+02  0.29263492664E+02  0.34176739036E+02  0.00000000000E+00 0. -1.
         11    1    3    3    0    0 -0.13085320157E+00 -0.28288540312E+02 -0.31220890033E+03  0.31348788825E+03  0.00000000000E+00 0. -1.
        -12    1    3    3    0    0 -0.68428770420E+02  0.26131103839E+02 -0.39819744263E+03  0.40487841944E+03  0.00000000000E+00 0.  1.
          5    1    4    4  501    0  0.77685193984E+01 -0.32812221703E+02 -0.49147057294E+02  0.59748618623E+02  0.41800000000E+01 0. -1.
         -5    1    4    4    0  501  0.10553568965E+03  0.28098397266E+02  0.21373961047E+02  0.11136256251E+03  0.41800000000E+01 0. -1.
</event>
<event>
11    1  0.8299058E-009  0.1368233E+03  0.7561462E-02  0.1111158E+00
         22   -1    0    0    0    0  0.00000000000E+00  0.00000000000E+00  0.50177283004E+03  0.50177283004E+03  0.00000000000E+00 0. -1.
         22   -1    0    0    0    0 -0.00000000000E+00 -0.00000000000E+00 -0.20319224672E+03  0.20319224672E+03  0.00000000000E+00 0. -1.
        -24    2    1    2    0    0  0.31017470167E+02  0.13647311802E+02 -0.15638086033E+03  0.17944041888E+03  0.81213040057E+02 0.  0.
         25    2    1    2    0    0  0.11783888517E+02 -0.52977158639E+02  0.14437165988E+03  0.19858325619E+03  0.12508674628E+03 0.  0.
         24    2    1    2    0    0 -0.42801358684E+02  0.39329846837E+02  0.31058978376E+03  0.32694140169E+03  0.83939699805E+02 0.  0.
        -13    1    5    5    0    0 -0.75956941093E+01  0.28211226762E+02  0.23518678775E+02  0.37505948005E+02  0.00000000000E+00 0.  1.
         14    1    5    5    0    0 -0.35205664574E+02  0.11118620075E+02  0.28707110499E+03  0.28943545368E+03  0.00000000000E+00 0. -1.
         13    1    3    3    0    0  0.42236806189E+02  0.10662243218E+02 -0.16111681265E+03  0.16690194291E+03  0.00000000000E+00 0. -1.
        -14    1    3    3    0    0 -0.11219336022E+02  0.29850685836E+01  0.47359523239E+01  0.12538475970E+02  0.00000000000E+00 0.  1.
          5    1    4    4  501    0  0.50521105879E+02 -0.57466165006E+02  0.38658924927E+02  0.85829640197E+02  0.41800000000E+01 0. -1.
         -5    1    4    4    0  501 -0.38737217363E+02  0.44890063673E+01  0.10571273496E+03  0.11275361599E+03  0.41800000000E+01 0. -1.
</event>
<event>
11    1  0.8299058E-009  0.1382758E+03  0.7561462E-02  0.1109499E+00
         22   -1    0    0    0    0  0.00000000000E+00  0.00000000000E+00  0.16818022439E+04  0.16818022439E+04  0.00000000000E+00 0.  1.
         22   -1    0    0    0    0 -0.00000000000E+00 -0.00000000000E+00 -0.30497402644E+03  0.30497402644E+03  0.00000000000E+00 0. -1.
        -24    2    1    2    0    0 -0.80297892711E+01 -0.44593413468E+02 -0.26288972570E+03  0.27873463637E+03  0.80801853894E+02 0.  0.
         25    2    1    2    0    0 -0.12832191413E+02 -0.12833545210E+02  0.90410193005E+02  0.15540699020E+03  0.12509182461E+03 0.  0.
         24    2    1    2    0    0  0.20861980684E+02  0.57426958678E+02  0.15493077501E+04  0.15526346437E+04  0.81158822923E+02 0.  0.
        -13    1    5    5    0    0  0.34364513021E+02  0.72701751225E+02  0.11511456521E+04  0.11539509421E+04  0.00000000000E+00 0.  1.
         14    1    5    5    0    0 -0.13502532336E+02 -0.15274792547E+02  0.39816209802E+03  0.39868370166E+03  0.00000000000E+00 0. -1.
         13    1    3    3    0    0 -0.23265918785E+02 -0.55009003633E+02 -0.24779637534E+03  0.25489279529E+03  0.00000000000E+00 0. -1.
        -14    1    3    3    0    0  0.15236129514E+02  0.10415590165E+02 -0.15093350357E+02  0.23841841079E+02  0.00000000000E+00 0.  1.
          5    1    4    4  501    0  0.14058261483E+02  0.45745649095E+02  0.74895463292E+02  0.88978098141E+02  0.41800000000E+01 0.  1.
         -5    1    4    4    0  501 -0.26890452897E+02 -0.58579194305E+02  0.15514729713E+02  0.66428892061E+02  0.41800000000E+01 0.  1.
</event>
<event>
11    1  0.8299058E-009  0.1425736E+03  0.7561462E-02  0.1104718E+00
         22   -1    0    0    0    0  0.00000000000E+00  0.00000000000E+00  0.59305418937E+03  0.59305418937E+03  0.00000000000E+00 0.  1.
         22   -1    0    0    0    0 -0.00000000000E+00 -0.00000000000E+00 -0.38700732445E+03  0.38700732445E+03  0.00000000000E+00 0.  1.
         24    2    1    2    0    0  0.12207236339E+02 -0.11609002841E+02 -0.26225010945E+03  0.27485480847E+03  0.80537322190E+02 0.  0.
         25    2    1    2    0    0 -0.65168766963E+02  0.53631556769E+02 -0.62417254211E+02  0.16330291194E+03  0.12509442576E+03 0.  0.
        -24    2    1    2    0    0  0.52961530624E+02 -0.42022553928E+02  0.53071422858E+03  0.54190379341E+03  0.86205046989E+02 0.  0.
        -13    1    3    3    0    0  0.31202741609E+02  0.19017043879E+02 -0.19656591643E+03  0.19993353531E+03  0.00000000000E+00 0.  1.
         14    1    3    3    0    0 -0.18995505270E+02 -0.30626046720E+02 -0.65684193019E+02  0.74921273152E+02  0.00000000000E+00 0. -1.
         11    1    5    5    0    0  0.38410538644E+02 -0.55394154967E+02  0.20939865334E+03  0.21998108533E+03  0.00000000000E+00 0. -1.
        -12    1    5    5    0    0  0.14550991980E+02  0.13371601039E+02  0.32131557524E+03  0.32192270808E+03  0.00000000000E+00 0.  1.
          5    1    4    4  501    0  0.15912951208E+01  0.22214995090E+02 -0.83445946353E+02  0.86468124703E+02  0.41800000000E+01 0.  1.
         -5    1    4    4    0  501 -0.66760062084E+02  0.31416561678E+02  0.21028692141E+02  0.76834787241E+02  0.41800000000E+01 0.  1.
</event>
<event>
11    1  0.8299058E-009  0.1474216E+03  0.7561462E-02  0.1099543E+00
         22   -1    0    0    0    0  0.00000000000E+00  0.00000000000E+00  0.37728570734E+03  0.37728570734E+03  0.00000000000E+00 0. -1.
         22   -1    0    0    0    0 -0.00000000000E+00 -0.00000000000E+00 -0.16075881081E+04  0.16075881081E+04  0.00000000000E+00 0.  1.
        -24    2    1    2    0    0 -0.19733482830E+02 -0.43520180878E+01 -0.14346953522E+04  0.14370713122E+04  0.80092774206E+02 0.  0.
         25    2    1    2    0    0 -0.24652303817E+02  0.68988294087E+02 -0.13006133955E+03  0.19475993762E+03  0.12509340691E+03 0.  0.
         24    2    1    2    0    0  0.44385786647E+02 -0.64636275999E+02  0.33445429090E+03  0.35304256564E+03  0.81433618476E+02 0.  0.
        -11    1    5    5    0    0 -0.82886141000E+01 -0.24316349877E+02  0.22615383868E+02  0.34226328791E+02  0.00000000000E+00 0.  1.
         12    1    5    5    0    0  0.52674400747E+02 -0.40319926122E+02  0.31183890703E+03  0.31881623685E+03  0.00000000000E+00 0. -1.
         13    1    3    3    0    0  0.27225667733E+02 -0.10387844413E+02 -0.30626637555E+03  0.30764953614E+03  0.00000000000E+00 0. -1.
        -14    1    3    3    0    0 -0.46959150563E+02  0.60358263248E+01 -0.11284289766E+04  0.11294217761E+04  0.00000000000E+00 0.  1.
          5    1    4    4  501    0 -0.25655919652E+02 -0.20466847429E+02  0.42204341153E+01  0.33352698856E+02  0.41800000000E+01 0. -1.
         -5    1    4    4    0  501  0.10036158349E+01  0.89455141515E+02 -0.13428177366E+03  0.16140723877E+03  0.41800000000E+01 0. -1.
</event>
<event>
11    1  0.8299058E-009  0.1777692E+03  0.7561462E-02  0.1071462E+00
         22   -1    0    0    0    0  0.00000000000E+00  0.00000000000E+00  0.33917826591E+03  0.33917826591E+03  0.00000000000E+00 0. -1.
         22   -1    0    0    0    0 -0.00000000000E+00 -0.00000000000E+00 -0.15805347941E+04  0.15805347941E+04  0.00000000000E+00 0. -1.
         24    2    1    2    0    0 -0.76827885545E+02  0.62759082531E+02 -0.11972179218E+04  0.12040290879E+04  0.80709762566E+02 0.  0.
         25    2    1    2    0    0  0.44784646621E+02  0.63364508989E+02 -0.34658445896E+03  0.37654839795E+03  0.12508870148E+03 0.  0.
        -24    2    1    2    0    0  0.32043238924E+02 -0.12612359152E+03  0.30244585255E+03  0.33913557418E+03  0.81274316067E+02 0.  0.
        -11    1    3    3    0    0  0.46557684353E+01  0.16970411635E+01 -0.37222527575E+01  0.61976845697E+01  0.00000000000E+00 0.  1.
         12    1    3    3    0    0 -0.81483653980E+02  0.61062041367E+02 -0.11934956690E+04  0.11978314033E+04  0.00000000000E+00 0. -1.
         13    1    5    5    0    0  0.54740140355E+02 -0.11112457968E+03  0.22211549415E+03  0.25432351035E+03  0.00000000000E+00 0. -1.
        -14    1    5    5    0    0 -0.22696901432E+02 -0.14999011840E+02  0.80330358397E+02  0.84812063829E+02  0.00000000000E+00 0.  1.
          5    1    4    4  501    0  0.19489887543E+02  0.92484590135E+02 -0.30647205895E+03  0.32074265455E+03  0.41800000000E+01 0.  1.
         -5    1    4    4    0  501  0.25294759078E+02 -0.29120081145E+02 -0.40112400005E+02  0.55805743404E+02  0.41800000000E+01 0.  1.
</event>
<event>
11    1  0.8299058E-009  0.1597646E+03  0.7561462E-02  0.1087299E+00
         22   -1    0    0    0    0  0.00000000000E+00  0.00000000000E+00  0.64661992875E+03  0.64661992875E+03  0.00000000000E+00 0. -1.
         22   -1    0    0    0    0 -0.00000000000E+00 -0.00000000000E+00 -0.16735365650E+03  0.16735365650E+03  0.00000000000E+00 0.  1.
         24    2    1    2    0    0 -0.48104390074E+02  0.33281536918E+02 -0.11031839810E+03  0.14925558835E+03  0.81764225985E+02 0.  0.
         25    2    1    2    0    0 -0.65531531195E+02 -0.18564275827E+02  0.16617214085E+03  0.21886149390E+03  0.12509260251E+03 0.  0.
        -24    2    1    2    0    0  0.11363592127E+03 -0.14717261092E+02  0.42341252949E+03  0.44585650300E+03  0.79875720701E+02 0.  0.
        -11    1    3    3    0    0  0.18593753250E+02  0.25782650906E+02 -0.48609998674E+02  0.58081018575E+02  0.00000000000E+00 0.  1.
         12    1    3    3    0    0 -0.66698143323E+02  0.74988860118E+01 -0.61708399422E+02  0.91174569774E+02  0.00000000000E+00 0. -1.
         11    1    5    5    0    0  0.12404508187E+02 -0.19812191380E+02  0.18938253773E+03  0.19081965398E+03  0.00000000000E+00 0. -1.
        -12    1    5    5    0    0  0.10123141308E+03  0.50949302884E+01  0.23402999177E+03  0.25503684901E+03  0.00000000000E+00 0.  1.
          5    1    4    4  501    0 -0.17121814125E+02  0.52325981347E+02  0.51058829055E+02  0.75203997682E+02  0.41800000000E+01 0. -1.
         -5    1    4    4    0  501 -0.48409717070E+02 -0.70890257173E+02  0.11511331179E+03  0.14365749622E+03  0.41800000000E+01 0. -1.
</event>
<event>
11    1  0.8299058E-009  0.1365872E+03  0.7561462E-02  0.1111430E+00
         22   -1    0    0    0    0  0.00000000000E+00  0.00000000000E+00  0.59542874886E+03  0.59542874886E+03  0.00000000000E+00 0.  1.
         22   -1    0    0    0    0 -0.00000000000E+00 -0.00000000000E+00 -0.11412515297E+04  0.11412515297E+04  0.00000000000E+00 0.  1.
        -24    2    1    2    0    0  0.20825053967E+02 -0.30401614105E+02 -0.10083043576E+04  0.10121117560E+04  0.79590125668E+02 0.  0.
         25    2    1    2    0    0 -0.68522306367E+02  0.35623641543E+01 -0.86743649292E+02  0.16697438095E+03  0.12509191138E+03 0.  0.
         24    2    1    2    0    0  0.47697252400E+02  0.26839249950E+02  0.54922522606E+03  0.55759414158E+03  0.79167572674E+02 0.  0.
        -13    1    5    5    0    0  0.52386315056E+02  0.48269099572E+02  0.47080706620E+03  0.47616543928E+03  0.00000000000E+00 0.  1.
         14    1    5    5    0    0 -0.46890626563E+01 -0.21429849621E+02  0.78418159863E+02  0.81428702309E+02  0.00000000000E+00 0. -1.
         13    1    3    3    0    0 -0.99378690796E+01 -0.31159280391E+01 -0.16876030083E+02  0.19831052437E+02  0.00000000000E+00 0. -1.
        -14    1    3    3    0    0  0.30762923047E+02 -0.27285686066E+02 -0.99142832750E+03  0.99228070357E+03  0.00000000000E+00 0.  1.
          5    1    4    4  501    0 -0.83536147911E+02 -0.37745599716E+02 -0.33220048277E+02  0.97591302447E+02  0.41800000000E+01 0. -1.
         -5    1    4    4    0  501  0.15013841544E+02  0.41307963871E+02 -0.53523601015E+02  0.69383078504E+02  0.41800000000E+01 0. -1.
</event>
<event>
11    1  0.8299058E-009  0.1320039E+03  0.7561462E-02  0.1116831E+00
         22   -1    0    0    0    0  0.00000000000E+00  0.00000000000E+00  0.76103707559E+03  0.76103707559E+03  0.00000000000E+00 0. -1.
         22   -1    0    0    0    0 -0.00000000000E+00 -0.00000000000E+00 -0.10608358502E+03  0.10608358502E+03  0.00000000000E+00 0.  1.
         24    2    1    2    0    0 -0.25865513706E+02  0.16760047931E+02 -0.54889860454E+02  0.10313736877E+03  0.81697589013E+02 0.  0.
         25    2    1    2    0    0 -0.17694689008E+02 -0.12918834224E+01  0.14732743001E+03  0.19408441743E+03  0.12509443823E+03 0.  0.
        -24    2    1    2    0    0  0.43560202714E+02 -0.15468164509E+02  0.56251592102E+03  0.56989887440E+03  0.78891129235E+02 0.  0.
        -13    1    3    3    0    0 -0.38848995241E+01  0.41105788808E+02 -0.56869387166E+02  0.70277347094E+02  0.00000000000E+00 0.  1.
         14    1    3    3    0    0 -0.21980614182E+02 -0.24345740877E+02  0.19795267125E+01  0.32860021678E+02  0.00000000000E+00 0. -1.
         11    1    5    5    0    0 -0.16356817827E+01  0.99013647618E+00  0.40942891433E+03  0.40943337885E+03  0.00000000000E+00 0. -1.
        -12    1    5    5    0    0  0.45195884497E+02 -0.16458300985E+02  0.15308700669E+03  0.16046549555E+03  0.00000000000E+00 0.  1.
          5    1    4    4  501    0 -0.33925081700E+01 -0.62510628867E+02  0.64078033064E+02  0.89680290780E+02  0.41800000000E+01 0. -1.
         -5    1    4    4    0  501 -0.14302180838E+02  0.61218745445E+02  0.83249396946E+02  0.10440412665E+03  0.41800000000E+01 0. -1.
</event>
<event>
11    1  0.8299058E-009  0.2682600E+03  0.7561462E-02  0.1014598E+00
         22   -1    0    0    0    0  0.00000000000E+00  0.00000000000E+00  0.20516771565E+03  0.20516771565E+03  0.00000000000E+00 0. -1.
         22   -1    0    0    0    0 -0.00000000000E+00 -0.00000000000E+00 -0.20267929173E+04  0.20267929173E+04  0.00000000000E+00 0. -1.
        -24    2    1    2    0    0 -0.15349792021E+03 -0.16816404220E+03 -0.15870930249E+04  0.16053285946E+04  0.79842786172E+02 0.  0.
         25    2    1    2    0    0  0.25453390580E+03  0.19542248422E+03 -0.31928965186E+03  0.46965026449E+03  0.12509209649E+03 0.  0.
         24    2    1    2    0    0 -0.10103598559E+03 -0.27258442017E+02  0.84757475063E+02  0.15698177386E+03  0.80673134936E+02 0.  0.
        -11    1    5    5    0    0  0.12104408081E+02 -0.10845832949E+02  0.19346326120E+02  0.25267154998E+02  0.00000000000E+00 0.  1.
         12    1    5    5    0    0 -0.11314039367E+03 -0.16412609068E+02  0.65411148943E+02  0.13171461886E+03  0.00000000000E+00 0. -1.
         11    1    3    3    0    0 -0.16033423211E+03 -0.15334571584E+03 -0.13937016093E+04  0.14112498539E+04  0.00000000000E+00 0. -1.
        -12    1    3    3    0    0  0.68363118972E+01 -0.14818326363E+02 -0.19339141557E+03  0.19407874065E+03  0.00000000000E+00 0.  1.
          5    1    4    4  501    0  0.13574766923E+03  0.11963801065E+03 -0.94135540219E+02  0.20400895967E+03  0.41800000000E+01 0.  1.
         -5    1    4    4    0  501  0.11878623657E+03  0.75784473568E+02 -0.22515411164E+03  0.26564130481E+03  0.41800000000E+01 0.  1.
</event>
<event>
11    1  0.8299058E-009  0.1427057E+03  0.7561462E-02  0.1104574E+00
         22   -1    0    0    0    0  0.00000000000E+00  0.00000000000E+00  0.18709817986E+04  0.18709817986E+04  0.00000000000E+00 0.  1.
         22   -1    0    0    0    0 -0.00000000000E+00 -0.00000000000E+00 -0.53038635157E+02  0.53038635157E+02  0.00000000000E+00 0.  1.
         24    2    1    2    0    0  0.25188869968E+02  0.13868977535E+01  0.10353981897E+02  0.85790193983E+02  0.81340947787E+02 0.  0.
         25    2    1    2    0    0 -0.71626001007E+02  0.46250636420E+02  0.41543074927E+03  0.44215213320E+03  0.12508555498E+03 0.  0.
        -24    2    1    2    0    0  0.46437131039E+02 -0.47637534174E+02  0.13921584323E+04  0.13960781066E+04  0.80642651841E+02 0.  0.
        -13    1    3    3    0    0  0.39443038911E+02 -0.13124063173E+02 -0.22410439298E+02  0.47225227816E+02  0.00000000000E+00 0.  1.
         14    1    3    3    0    0 -0.14254168943E+02  0.14510960927E+02  0.32764421194E+02  0.38564966167E+02  0.00000000000E+00 0. -1.
         11    1    5    5    0    0 -0.14815002428E+02 -0.23181899611E+02  0.17644327007E+03  0.17857522874E+03  0.00000000000E+00 0. -1.
        -12    1    5    5    0    0  0.61252133466E+02 -0.24455634563E+02  0.12157151622E+04  0.12175028779E+04  0.00000000000E+00 0.  1.
          5    1    4    4  501    0 -0.22540023436E+02  0.62765005861E+02  0.36011148668E+03  0.36625845227E+03  0.41800000000E+01 0. -1.
         -5    1    4    4    0  501 -0.49085977572E+02 -0.16514369441E+02  0.55319262588E+02  0.75893680933E+02  0.41800000000E+01 0. -1.
</event>
<event>
11    1  0.8299058E-009  0.1487419E+03  0.7561462E-02  0.1098171E+00
         22   -1    0    0    0    0  0.00000000000E+00  0.00000000000E+00  0.15403815329E+03  0.15403815329E+03  0.00000000000E+00 0.  1.
         22   -1    0    0    0    0 -0.00000000000E+00 -0.00000000000E+00 -0.11610912100E+04  0.11610912100E+04  0.00000000000E+00 0. -1.
         24    2    1    2    0    0  0.12481119069E+02  0.27247414475E+02 -0.82294560099E+03  0.82769165109E+03  0.83281493557E+02 0.  0.
         25    2    1    2    0    0 -0.36212077114E+02 -0.10189308336E+03 -0.28961768674E+03  0.33349690396E+03  0.12509302741E+03 0.  0.
        -24    2    1    2    0    0  0.23730958045E+02  0.74645668888E+02  0.10551023101E+03  0.15394080826E+03  0.80188710838E+02 0.  0.
        -13    1    3    3    0    0  0.32254547763E+02  0.35566078467E+02 -0.26374312618E+03  0.26807785883E+03  0.00000000000E+00 0.  1.
         14    1    3    3    0    0 -0.19773428694E+02 -0.83186639929E+01 -0.55920247482E+03  0.55961379226E+03  0.00000000000E+00 0. -1.
         13    1    5    5    0    0  0.31578858063E+02  0.27331462929E+01  0.61710051078E+02  0.69374525363E+02  0.00000000000E+00 0. -1.
        -14    1    5    5    0    0 -0.78479000184E+01  0.71912522595E+02  0.43800179934E+02  0.84566282896E+02  0.00000000000E+00 0.  1.
          5    1    4    4  501    0  0.73086848445E+01 -0.79590880314E+02 -0.63646238881E+02  0.10225674172E+03  0.41800000000E+01 0. -1.
         -5    1    4    4    0  501 -0.43520761959E+02 -0.22302203048E+02 -0.22597144786E+03  0.23124016224E+03  0.41800000000E+01 0. -1.
</event>
<event>
11    1  0.8299058E-009  0.2433331E+03  0.7561462E-02  0.1027512E+00
         22   -1    0    0    0    0  0.00000000000E+00  0.00000000000E+00  0.41986684774E+03  0.41986684774E+03  0.00000000000E+00 0. -1.
         22   -1    0    0    0    0 -0.00000000000E+00 -0.00000000000E+00 -0.57560560095E+03  0.57560560095E+03  0.00000000000E+00 0. -1.
         24    2    1    2    0    0  0.40578981938E+01 -0.18545884406E+02 -0.36390205583E+03  0.37520077671E+03  0.89389598076E+02 0.  0.
         25    2    1    2    0    0  0.17216326685E+03 -0.97930492698E+02 -0.85757853026E+02  0.24947053961E+03  0.12510223389E+03 0.  0.
        -24    2    1    2    0    0 -0.17622116505E+03  0.11647637710E+03  0.29392115565E+03  0.37080113236E+03  0.80518250047E+02 0.  0.
        -13    1    3    3    0    0 -0.28108814491E+02  0.23927166620E+02 -0.12009355831E+03  0.12563867837E+03  0.00000000000E+00 0.  1.
         14    1    3    3    0    0  0.32166712685E+02 -0.42473051026E+02 -0.24380849752E+03  0.24956209834E+03  0.00000000000E+00 0. -1.
         11    1    5    5    0    0 -0.18447124539E+03  0.11575122155E+03  0.28317449036E+03  0.35723350578E+03  0.00000000000E+00 0. -1.
        -12    1    5    5    0    0  0.82500803388E+01  0.72515555518E+00  0.10746665292E+02  0.13567626582E+02  0.00000000000E+00 0.  1.
          5    1    4    4  501    0  0.22358669097E+02 -0.80088225113E+02 -0.27183522579E+02  0.87581106326E+02  0.41800000000E+01 0.  1.
         -5    1    4    4    0  501  0.14980459776E+03 -0.17842267584E+02 -0.58574330447E+02  0.16188943328E+03  0.41800000000E+01 0.  1.
</event>
<event>
11    1  0.8299058E-009  0.1549481E+03  0.7561462E-02  0.1091927E+00
         22   -1    0    0    0    0  0.00000000000E+00  0.00000000000E+00  0.84094618967E+03  0.84094618967E+03  0.00000000000E+00 0. -1.
         22   -1    0    0    0    0 -0.00000000000E+00 -0.00000000000E+00 -0.17568622323E+03  0.17568622323E+03  0.00000000000E+00 0. -1.
        -24    2    1    2    0    0  0.26722131036E+02  0.29548291895E+02 -0.11856980096E+03  0.15097742456E+03  0.84547094499E+02 0.  0.
         25    2    1    2    0    0  0.62382443058E+02 -0.58195859660E+02  0.12781250321E+03  0.19814799320E+03  0.12509302119E+03 0.  0.
         24    2    1    2    0    0 -0.89104574095E+02  0.28647567765E+02  0.65601726419E+03  0.66750699513E+03  0.80290904669E+02 0.  0.
        -11    1    5    5    0    0  0.97451955576E+01  0.11758195271E+02  0.20054823415E+03  0.20112885972E+03  0.00000000000E+00 0.  1.
         12    1    5    5    0    0 -0.98849769652E+02  0.16889372493E+02  0.45546903004E+03  0.46637813541E+03  0.00000000000E+00 0. -1.
         13    1    3    3    0    0 -0.14985099218E+02  0.39951559289E+02 -0.89307715355E+02  0.98977514164E+02  0.00000000000E+00 0. -1.
        -14    1    3    3    0    0  0.41707230254E+02 -0.10403267393E+02 -0.29262085602E+02  0.51999910401E+02  0.00000000000E+00 0.  1.
          5    1    4    4  501    0 -0.36346724024E+01 -0.77222883875E+02  0.41799199830E+02  0.87984260774E+02  0.41800000000E+01 0. -1.
         -5    1    4    4    0  501  0.66017115461E+02  0.19027024215E+02  0.86013303377E+02  0.11016373243E+03  0.41800000000E+01 0. -1.
</event>
<event>
11    1  0.8299058E-009  0.2607603E+03  0.7561462E-02  0.1018318E+00
         22   -1    0    0    0    0  0.00000000000E+00  0.00000000000E+00  0.46017097354E+03  0.46017097354E+03  0.00000000000E+00 0.  1.
         22   -1    0    0    0    0 -0.00000000000E+00 -0.00000000000E+00 -0.68154128577E+03  0.68154128577E+03  0.00000000000E+00 0.  1.
         24    2    1    2    0    0  0.60930597831E+02 -0.20656122233E+03 -0.34792465312E+03  0.41728817020E+03  0.81839943931E+02 0.  0.
         25    2    1    2    0    0 -0.14115162195E+03  0.22278460568E+03 -0.21613090502E+03  0.36320281461E+03  0.12508779127E+03 0.  0.
        -24    2    1    2    0    0  0.80221024123E+02 -0.16223383358E+02  0.34268524590E+03  0.36122127450E+03  0.79680741162E+02 0.  0.
        -13    1    3    3    0    0  0.66607197018E+02 -0.20698723861E+03 -0.30834995598E+03  0.37730615022E+03  0.00000000000E+00 0.  1.
         14    1    3    3    0    0 -0.56765991870E+01  0.42601628388E+00 -0.39574697138E+02  0.39982019981E+02  0.00000000000E+00 0. -1.
         13    1    5    5    0    0  0.52767332060E+02  0.15726743898E+02  0.93560037724E+02  0.10855967237E+03  0.00000000000E+00 0. -1.
        -14    1    5    5    0    0  0.27453692062E+02 -0.31950127256E+02  0.24912520818E+03  0.25266160213E+03  0.00000000000E+00 0.  1.
          5    1    4    4  501    0 -0.35962002361E+01  0.46881499976E+02 -0.10199392689E+03  0.11238790513E+03  0.41800000000E+01 0.  1.
         -5    1    4    4    0  501 -0.13755542172E+03  0.17590310571E+03 -0.11413697813E+03  0.25081490948E+03  0.41800000000E+01 0.  1.
</event>
<event>
11    1  0.8299058E-009  0.1975145E+03  0.7561462E-02  0.1056295E+00
         22   -1    0    0    0    0  0.00000000000E+00  0.00000000000E+00  0.23245929888E+03  0.23245929888E+03  0.00000000000E+00 0.  1.
         22   -1    0    0    0    0 -0.00000000000E+00 -0.00000000000E+00 -0.81507678455E+03  0.81507678455E+03  0.00000000000E+00 0. -1.
         24    2    1    2    0    0  0.23668074276E+02 -0.74293289309E+02 -0.55549200874E+03  0.56660762682E+03  0.79957241189E+02 0.  0.
         25    2    1    2    0    0 -0.27611069320E+02  0.21440982589E+03 -0.13735895189E+03  0.28504592696E+03  0.12509897771E+03 0.  0.
        -24    2    1    2    0    0  0.39429950440E+01 -0.14011653658E+03  0.11023347497E+03  0.19588252965E+03  0.81057728736E+02 0.  0.
        -11    1    3    3    0    0  0.31540507165E+02  0.50366368281E+01 -0.15384830855E+03  0.15712884314E+03  0.00000000000E+00 0.  1.
         12    1    3    3    0    0 -0.78724328895E+01 -0.79329926137E+02 -0.40164370019E+03  0.40947878367E+03  0.00000000000E+00 0. -1.
         13    1    5    5    0    0  0.12397144873E+02 -0.68732049917E+02  0.71437601092E+01  0.70205535360E+02  0.00000000000E+00 0. -1.
        -14    1    5    5    0    0 -0.84541498286E+01 -0.71384486661E+02  0.10308971486E+03  0.12567699429E+03  0.00000000000E+00 0.  1.
          5    1    4    4  501    0  0.18468245859E+02 -0.32715331253E+01 -0.35352211313E+02  0.40237175333E+02  0.41800000000E+01 0.  1.
         -5    1    4    4    0  501 -0.46079315178E+02  0.21768135901E+03 -0.10200674058E+03  0.24480875162E+03  0.41800000000E+01 0.  1.
</event>
<event>
11    1  0.8299058E-009  0.2018482E+03  0.7561462E-02  0.1053224E+00
         22   -1    0    0    0    0  0.00000000000E+00  0.00000000000E+00  0.22742999596E+03  0.22742999596E+03  0.00000000000E+00 0. -1.
         22   -1    0    0    0    0 -0.00000000000E+00 -0.00000000000E+00 -0.14913800838E+04  0.14913800838E+04  0.00000000000E+00 0. -1.
         24    2    1    2    0    0  0.20410650491E+02 -0.39154013496E+02 -0.11643478159E+04  0.11671477014E+04  0.67663055640E+02 0.  0.
         25    2    1    2    0    0  0.13326113053E+03  0.81873258963E+02 -0.24841226927E+03  0.31908849029E+03  0.12508816758E+03 0.  0.
        -24    2    1    2    0    0 -0.15367178103E+03 -0.42719245467E+02  0.14880999737E+03  0.23257388802E+03  0.80661315718E+02 0.  0.
        -11    1    3    3    0    0  0.42507353507E+02 -0.25998050468E+02 -0.54708374229E+03  0.54934815446E+03  0.00000000000E+00 0.  1.
         12    1    3    3    0    0 -0.22096703016E+02 -0.13155963028E+02 -0.61726407359E+03  0.61779954694E+03  0.00000000000E+00 0. -1.
         13    1    5    5    0    0 -0.87095664705E+02 -0.44240379764E+02  0.13141490108E+03  0.16374596862E+03  0.00000000000E+00 0. -1.
        -14    1    5    5    0    0 -0.66576116321E+02  0.15211342969E+01  0.17395096285E+02  0.68827919398E+02  0.00000000000E+00 0.  1.
          5    1    4    4  501    0  0.10860554190E+03  0.98005823417E+02 -0.24956090123E+03  0.28930679387E+03  0.41800000000E+01 0.  1.
         -5    1    4    4    0  501  0.24655588633E+02 -0.16132564454E+02  0.11486319555E+01  0.29781696427E+02  0.41800000000E+01 0.  1.
</event>
<event>
11    1  0.8299058E-009  0.2634070E+03  0.7561462E-02  0.1016990E+00
         22   -1    0    0    0    0  0.00000000000E+00  0.00000000000E+00  0.15790037972E+03  0.15790037972E+03  0.00000000000E+00 0.  1.
         22   -1    0    0    0    0 -0.00000000000E+00 -0.00000000000E+00 -0.21984797656E+04  0.21984797656E+04  0.00000000000E+00 0.  1.
        -24    2    1    2    0    0 -0.15318895765E+03  0.19667838872E+03 -0.18440682817E+04  0.18625355145E+04  0.79381796440E+02 0.  0.
         25    2    1    2    0    0  0.11837966508E+03 -0.11729784738E+03 -0.27464901885E+03  0.34474202497E+03  0.12506978100E+03 0.  0.
         24    2    1    2    0    0  0.34809292574E+02 -0.79380541336E+02  0.78137914731E+02  0.14910260586E+03  0.92806767871E+02 0.  0.
        -13    1    5    5    0    0  0.30885129129E+02  0.84037444307E+01  0.44929505012E+02  0.55164975686E+02  0.00000000000E+00 0.  1.
         14    1    5    5    0    0  0.39241634456E+01 -0.87784285767E+02  0.33208409719E+02  0.93937630172E+02  0.00000000000E+00 0. -1.
         11    1    3    3    0    0 -0.27400457194E+02  0.10046093521E+01 -0.13960004487E+03  0.14226723735E+03  0.00000000000E+00 0. -1.
        -12    1    3    3    0    0 -0.12578850046E+03  0.19567377937E+03 -0.17044682369E+04  0.17202682771E+04  0.00000000000E+00 0.  1.
          5    1    4    4  501    0 -0.17711645201E+02 -0.23086919441E+02 -0.73242852656E+01  0.30295639614E+02  0.41800000000E+01 0.  1.
         -5    1    4    4    0  501  0.13609131028E+03 -0.94210927943E+02 -0.26732473358E+03  0.31444638536E+03  0.41800000000E+01 0.  1.
</event>
<event>
11    1  0.8299058E-009  0.2151385E+03  0.7561462E-02  0.1044306E+00
         22   -1    0    0    0    0  0.00000000000E+00  0.00000000000E+00  0.62002100334E+03  0.62002100334E+03  0.00000000000E+00 0.  1.
         22   -1    0    0    0    0 -0.00000000000E+00 -0.00000000000E+00 -0.95273733040E+03  0.95273733040E+03  0.00000000000E+00 0.  1.
         24    2    1    2    0    0 -0.94110610608E+02  0.14758869396E+03 -0.87815902133E+03  0.89903757920E+03  0.80411892481E+02 0.  0.
         25    2    1    2    0    0  0.15140757240E+03 -0.10969451579E+03  0.16495467684E+03  0.27896417014E+03  0.12511523902E+03 0.  0.
        -24    2    1    2    0    0 -0.57296961788E+02 -0.37894178173E+02  0.38048801743E+03  0.39475658440E+03  0.79641188761E+02 0.  0.
        -13    1    3    3    0    0 -0.97925451744E+02  0.96339614043E+02 -0.55094727954E+03  0.56781477628E+03  0.00000000000E+00 0.  1.
         14    1    3    3    0    0  0.38148411352E+01  0.51249079922E+02 -0.32721174179E+03  0.33122280292E+03  0.00000000000E+00 0. -1.
         11    1    5    5    0    0 -0.84521943100E+01  0.24414712265E+02  0.84369221781E+02  0.88236519353E+02  0.00000000000E+00 0. -1.
        -12    1    5    5    0    0 -0.48844767478E+02 -0.62308890438E+02  0.29611879565E+03  0.30652006505E+03  0.00000000000E+00 0.  1.
          5    1    4    4  501    0  0.13148197969E+03 -0.48779609068E+02  0.53162843082E+02  0.15003573417E+03  0.41800000000E+01 0.  1.
         -5    1    4    4    0  501  0.19925592705E+02 -0.60914906724E+02  0.11179183375E+03  0.12892843596E+03  0.41800000000E+01 0.  1.
</event>
<event>
11    1  0.8299058E-009  0.1911183E+03  0.7561462E-02  0.1060988E+00
         22   -1    0    0    0    0  0.00000000000E+00  0.00000000000E+00  0.38286446862E+03  0.38286446862E+03  0.00000000000E+00 0. -1.
         22   -1    0    0    0    0 -0.00000000000E+00 -0.00000000000E+00 -0.52698021012E+03  0.52698021012E+03  0.00000000000E+00 0. -1.
        -24    2    1    2    0    0 -0.62688037299E+01 -0.35129244719E+02 -0.40699327433E+03  0.41951038199E+03  0.95247433111E+02 0.  0.
         25    2    1    2    0    0 -0.13558739418E+03 -0.75605419631E+01  0.11425496883E+02  0.18496810288E+03  0.12506619787E+03 0.  0.
         24    2    1    2    0    0  0.14185619791E+03  0.42689786682E+02  0.25145203594E+03  0.30536619387E+03  0.89859819762E+02 0.  0.
        -13    1    5    5    0    0  0.86944946534E+02  0.28462192488E+02  0.69824496812E+02  0.11508683888E+03  0.00000000000E+00 0.  1.
         14    1    5    5    0    0  0.54911251374E+02  0.14227594194E+02  0.18162753913E+03  0.19027935499E+03  0.00000000000E+00 0. -1.
         13    1    3    3    0    0 -0.48831909952E+02 -0.21075303895E+02 -0.27551409954E+03  0.28060068230E+03  0.00000000000E+00 0. -1.
        -14    1    3    3    0    0  0.42563106222E+02 -0.14053940825E+02 -0.13147917479E+03  0.13890969968E+03  0.00000000000E+00 0.  1.
          5    1    4    4  501    0 -0.13419235639E+03  0.17940013468E+02 -0.27510777265E+02  0.13821630824E+03  0.41800000000E+01 0.  1.
         -5    1    4    4    0  501 -0.13950377887E+01 -0.25500555431E+02  0.38936274148E+02  0.46751794642E+02  0.41800000000E+01 0.  1.
</event>
<event>
11    1  0.8299058E-009  0.2180083E+03  0.7561462E-02  0.1042472E+00
         22   -1    0    0    0    0  0.00000000000E+00  0.00000000000E+00  0.75665665079E+03  0.75665665079E+03  0.00000000000E+00 0. -1.
         22   -1    0    0    0    0 -0.00000000000E+00 -0.00000000000E+00 -0.55781335435E+03  0.55781335435E+03  0.00000000000E+00 0.  1.
         24    2    1    2    0    0 -0.10940650866E+03 -0.74220801973E+02 -0.41676812359E+03  0.44428364283E+03  0.78827500673E+02 0.  0.
         25    2    1    2    0    0  0.27250430542E+03  0.39986562319E+02  0.94111208594E+02  0.31679847488E+03  0.12508729937E+03 0.  0.
        -24    2    1    2    0    0 -0.16309779677E+03  0.34234239653E+02  0.52150021145E+03  0.55338788742E+03  0.80639995850E+02 0.  0.
        -11    1    3    3    0    0 -0.51128008942E+02 -0.80439204441E+02 -0.25736789389E+03  0.27444994391E+03  0.00000000000E+00 0.  1.
         12    1    3    3    0    0 -0.58278499716E+02  0.62184024683E+01 -0.15940022971E+03  0.16983369892E+03  0.00000000000E+00 0. -1.
         13    1    5    5    0    0 -0.16809520770E+03  0.29998136564E+02  0.51901478112E+03  0.54638103012E+03  0.00000000000E+00 0. -1.
        -14    1    5    5    0    0  0.49974109323E+01  0.42361030890E+01  0.24854303280E+01  0.70068573072E+01  0.00000000000E+00 0.  1.
          5    1    4    4  501    0  0.81501242729E+01 -0.26019388788E+02  0.20972764028E+02  0.34652017972E+02  0.41800000000E+01 0.  1.
         -5    1    4    4    0  501  0.26435418115E+03  0.66005951107E+02  0.73138444566E+02  0.28214645691E+03  0.41800000000E+01 0.  1.
</event>
<event>
11    1  0.8299058E-009  0.1420427E+03  0.7561462E-02  0.1105299E+00
         22   -1    0    0    0    0  0.00000000000E+00  0.00000000000E+00  0.50564344855E+03  0.50564344855E+03  0.00000000000E+00 0.  1.
         22   -1    0    0    0    0 -0.00000000000E+00 -0.00000000000E+00 -0.28729387951E+03  0.28729387951E+03  0.00000000000E+00 0.  1.
        -24    2    1    2    0    0 -0.10819720621E+02 -0.29052341571E+02 -0.18125545613E+03  0.20082239926E+03  0.80715492692E+02 0.  0.
         25    2    1    2    0    0 -0.54983227532E+02  0.10112801695E+02 -0.37851444499E+02  0.14214629768E+03  0.12508962397E+03 0.  0.
         24    2    1    2    0    0  0.65802948153E+02  0.18939539876E+02  0.43745646967E+03  0.44996863112E+03  0.80092895984E+02 0.  0.
        -11    1    5    5    0    0  0.59598500163E+02  0.36137444343E+02  0.41591449727E+03  0.42171407985E+03  0.00000000000E+00 0.  1.
         12    1    5    5    0    0  0.62044479898E+01 -0.17197904467E+02  0.21541972393E+02  0.28254551271E+02  0.00000000000E+00 0. -1.
         11    1    3    3    0    0 -0.30723095093E+02 -0.37609319778E+01 -0.21087873331E+02  0.37453325394E+02  0.00000000000E+00 0. -1.
        -12    1    3    3    0    0  0.19903374472E+02 -0.25291409593E+02 -0.16016758280E+03  0.16336907386E+03  0.00000000000E+00 0.  1.
          5    1    4    4  501    0 -0.77474093965E+02  0.19917564241E+02 -0.66562842632E+02  0.10414907114E+03  0.41800000000E+01 0.  1.
         -5    1    4    4    0  501  0.22490866433E+02 -0.98047625460E+01  0.28711398132E+02  0.37997226533E+02  0.41800000000E+01 0.  1.
</event>
<event>
11    1  0.1292081E-008  0.1708936E+03  0.7561462E-02  0.1077257E+00
         22   -1    0    0    0    0  0.00000000000E+00  0.00000000000E+00  0.12745676537E+04  0.12745676537E+04  0.00000000000E+00 0.  1.
         22   -1    0    0    0    0 -0.00000000000E+00 -0.00000000000E+00 -0.25566573299E+03  0.25566573299E+03  0.00000000000E+00 0.  1.
         24    2    1    2    0    0 -0.18850986288E+02  0.16165231328E+02 -0.10299907625E+03  0.13424124211E+03  0.82433166782E+02 0.  0.
         25    2    1    2    0    0  0.13251573323E+03  0.68039497948E+01 -0.70328995368E+02  0.19545402594E+03  0.12509754346E+03 0.  0.
        -24    2    1    2    0    0 -0.11366474694E+03 -0.22969181123E+02  0.11922299923E+04  0.12005381186E+04  0.80200758719E+02 0.  0.
        -11    1    3    3    0    0 -0.17666922719E+02  0.56094121040E+01 -0.11598931485E+03  0.11746108642E+03  0.00000000000E+00 0.  1.
         12    1    3    3    0    0 -0.11840635698E+01  0.10555819224E+02  0.12990238601E+02  0.16780155688E+02  0.00000000000E+00 0. -1.
         13    1    5    5    0    0  0.39937435040E+01  0.45092897780E+00  0.24117994325E+01  0.46872273917E+01  0.00000000000E+00 0. -1.
        -14    1    5    5    0    0 -0.11765849045E+03 -0.23420110101E+02  0.11898181929E+04  0.11958508913E+04  0.00000000000E+00 0.  1.
          5    1    4    4  501    0  0.49932481826E+02  0.56809757769E+02 -0.63032700639E+02  0.98545395980E+02  0.41800000000E+01 0. -1.
         -5    1    4    4    0  501  0.82583251407E+02 -0.50005807974E+02 -0.72962947296E+01  0.96908629961E+02  0.41800000000E+01 0. -1.
</event>
<event>
11    1  0.8299058E-009  0.1494667E+03  0.7561462E-02  0.1097425E+00
         22   -1    0    0    0    0  0.00000000000E+00  0.00000000000E+00  0.51101779727E+03  0.51101779727E+03  0.00000000000E+00 0.  1.
         22   -1    0    0    0    0 -0.00000000000E+00 -0.00000000000E+00 -0.47217589370E+03  0.47217589370E+03  0.00000000000E+00 0. -1.
         24    2    1    2    0    0 -0.29543581156E+02  0.74108313046E+02 -0.39677426562E+03  0.41251559960E+03  0.79840070167E+02 0.  0.
         25    2    1    2    0    0  0.24940650823E+02 -0.10890097555E+03  0.48760782120E+02  0.17466441700E+03  0.12509430904E+03 0.  0.
        -24    2    1    2    0    0  0.46029303329E+01  0.34792662506E+02  0.38685538708E+03  0.39601367436E+03  0.77058571499E+02 0.  0.
        -13    1    3    3    0    0 -0.45554138762E+02  0.18779074771E+02 -0.11837686651E+03  0.12822213433E+03  0.00000000000E+00 0.  1.
         14    1    3    3    0    0  0.16010557606E+02  0.55329238275E+02 -0.27839739912E+03  0.28429346528E+03  0.00000000000E+00 0. -1.
         13    1    5    5    0    0  0.92834025103E+01 -0.16848158126E+02  0.31604020466E+02  0.36998055409E+02  0.00000000000E+00 0. -1.
        -14    1    5    5    0    0 -0.46804721774E+01  0.51640820632E+02  0.35525136661E+03  0.35901561896E+03  0.00000000000E+00 0.  1.
          5    1    4    4  501    0 -0.33942127052E+02 -0.96151703494E+02  0.51296479461E+02  0.11421917212E+03  0.41800000000E+01 0. -1.
         -5    1    4    4    0  501  0.58882777875E+02 -0.12749272058E+02 -0.25356973413E+01  0.60445244885E+02  0.41800000000E+01 0. -1.
</event>
<event>
11    1  0.8299058E-009  0.1458822E+03  0.7561462E-02  0.1101162E+00
         22   -1    0    0    0    0  0.00000000000E+00  0.00000000000E+00  0.28130816230E+03  0.28130816230E+03  0.00000000000E+00 0.  1.
         22   -1    0    0    0    0 -0.00000000000E+00 -0.00000000000E+00 -0.76600735274E+03  0.76600735274E+03  0.00000000000E+00 0. -1.
        -24    2    1    2    0    0  0.65651448013E+02  0.32372520148E+02 -0.50913925598E+03  0.52045836256E+03  0.79347542478E+02 0.  0.
         25    2    1    2    0    0 -0.56915358865E+02 -0.10567305222E+03 -0.20773638086E+03  0.27056947600E+03  0.12508910972E+03 0.  0.
         24    2    1    2    0    0 -0.87360891475E+01  0.73300532076E+02  0.23217644639E+03  0.25628767648E+03  0.79549881215E+02 0.  0.
        -11    1    5    5    0    0 -0.25126949264E+01  0.45844352692E+02  0.22145207095E+03  0.22616153085E+03  0.00000000000E+00 0.  1.
         12    1    5    5    0    0 -0.62233942211E+01  0.27456179384E+02  0.10724375445E+02  0.30126145633E+02  0.00000000000E+00 0. -1.
         11    1    3    3    0    0  0.30738600089E+02 -0.22594601583E+02 -0.26718062410E+03  0.26989046565E+03  0.00000000000E+00 0. -1.
        -12    1    3    3    0    0  0.34912847924E+02  0.54967121731E+02 -0.24195863188E+03  0.25056789691E+03  0.00000000000E+00 0.  1.
          5    1    4    4  501    0 -0.17024401393E+02  0.27343133925E+02 -0.56763475197E+02  0.65399095805E+02  0.41800000000E+01 0.  1.
         -5    1    4    4    0  501 -0.39890957473E+02 -0.13301618615E+03 -0.15097290566E+03  0.20517038019E+03  0.41800000000E+01 0.  1.
</event>
<event>
11    1  0.8299058E-009  0.1781938E+03  0.7561462E-02  0.1071113E+00
         22   -1    0    0    0    0  0.00000000000E+00  0.00000000000E+00  0.21117827341E+03  0.21117827341E+03  0.00000000000E+00 0.  1.
         22   -1    0    0    0    0 -0.00000000000E+00 -0.00000000000E+00 -0.21334303488E+04  0.21334303488E+04  0.00000000000E+00 0. -1.
        -24    2    1    2    0    0  0.54898150310E+02  0.54022504283E+02 -0.19665980021E+04  0.19695404638E+04  0.75164477091E+02 0.  0.
         25    2    1    2    0    0 -0.11096348477E+03  0.65472841175E+02 -0.59185149938E+02  0.18907292601E+03  0.12508437750E+03 0.  0.
         24    2    1    2    0    0  0.56065334460E+02 -0.11949534546E+03  0.10353107671E+03  0.18599523239E+03  0.80331085585E+02 0.  0.
        -11    1    5    5    0    0  0.70212593750E+02 -0.73870888801E+02  0.90955163827E+02  0.13659999400E+03  0.00000000000E+00 0.  1.
         12    1    5    5    0    0 -0.14147259290E+02 -0.45624456657E+02  0.12575912885E+02  0.49395238390E+02  0.00000000000E+00 0. -1.
         13    1    3    3    0    0  0.59342505146E+02  0.65937113228E+02 -0.18708181716E+04  0.18729201443E+04  0.00000000000E+00 0. -1.
        -14    1    3    3    0    0 -0.44443548360E+01 -0.11914608945E+02 -0.95779830531E+02  0.96620319461E+02  0.00000000000E+00 0.  1.
          5    1    4    4  501    0  0.18102116957E+02  0.92601152040E+01  0.18868530607E+02  0.28052276541E+02  0.41800000000E+01 0. -1.
         -5    1    4    4    0  501 -0.12906560173E+03  0.56212725971E+02 -0.78053680545E+02  0.16102064947E+03  0.41800000000E+01 0. -1.
</event>
<event>
11    1  0.8299058E-009  0.1543743E+03  0.7561462E-02  0.1092491E+00
         22   -1    0    0    0    0  0.00000000000E+00  0.00000000000E+00  0.36957734314E+03  0.36957734314E+03  0.00000000000E+00 0.  1.
         22   -1    0    0    0    0 -0.00000000000E+00 -0.00000000000E+00 -0.50018541919E+03  0.50018541919E+03  0.00000000000E+00 0. -1.
        -24    2    1    2    0    0 -0.26995764129E+02 -0.12157012556E+02 -0.44282521145E+03  0.45200228316E+03  0.85646551906E+02 0.  0.
         25    2    1    2    0    0  0.10635715386E+03  0.11364372778E+02  0.18560349998E+03  0.24806220082E+03  0.12508078640E+03 0.  0.
         24    2    1    2    0    0 -0.79361389731E+02  0.79263977826E+00  0.12661363542E+03  0.16969827834E+03  0.80421604937E+02 0.  0.
        -13    1    5    5    0    0 -0.75539396888E+02 -0.21721063741E+02  0.58849766901E+02  0.98190122500E+02  0.00000000000E+00 0.  1.
         14    1    5    5    0    0 -0.38219928422E+01  0.22513703519E+02  0.67763868518E+02  0.71508155842E+02  0.00000000000E+00 0. -1.
         13    1    3    3    0    0  0.19896713301E+02  0.85972809776E+00 -0.30834313001E+03  0.30898560509E+03  0.00000000000E+00 0. -1.
        -14    1    3    3    0    0 -0.46892477429E+02 -0.13016740654E+02 -0.13448208144E+03  0.14301667807E+03  0.00000000000E+00 0.  1.
          5    1    4    4  501    0  0.35559687615E+02 -0.55969144869E+02  0.83024485968E+02  0.10633707834E+03  0.41800000000E+01 0.  1.
         -5    1    4    4    0  501  0.70797466244E+02  0.67333517646E+02  0.10257901401E+03  0.14172512248E+03  0.41800000000E+01 0.  1.
</event>
<event>
11    1  0.8299058E-009  0.1414790E+03  0.7561462E-02  0.1105918E+00
         22   -1    0    0    0    0  0.00000000000E+00  0.00000000000E+00  0.93474160346E+03  0.93474160346E+03  0.00000000000E+00 0. -1.
         22   -1    0    0    0    0 -0.00000000000E+00 -0.00000000000E+00 -0.96113697902E+03  0.96113697902E+03  0.00000000000E+00 0. -1.
        -24    2    1    2    0    0  0.18620213558E+02  0.68305985702E+02 -0.76184158829E+03  0.76912485160E+03  0.78345463530E+02 0.  0.
         25    2    1    2    0    0 -0.50155748201E+02 -0.12509650108E+03 -0.14847164820E+03  0.23633765853E+03  0.12508766870E+03 0.  0.
         24    2    1    2    0    0  0.31535534642E+02  0.56790515380E+02  0.88391786093E+03  0.89041607235E+03  0.85500552294E+02 0.  0.
        -13    1    5    5    0    0 -0.90139303040E+01  0.84182658486E+01  0.15980154306E+02  0.20186219831E+02  0.00000000000E+00 0.  1.
         14    1    5    5    0    0  0.40549464946E+02  0.48372249531E+02  0.86793770663E+03  0.87022985252E+03  0.00000000000E+00 0. -1.
         11    1    3    3    0    0  0.68602646555E+01  0.57395548262E+02 -0.23380105540E+03  0.24084070607E+03  0.00000000000E+00 0. -1.
        -12    1    3    3    0    0  0.11759948903E+02  0.10910437440E+02 -0.52804053289E+03  0.52828414553E+03  0.00000000000E+00 0.  1.
          5    1    4    4  501    0  0.22809996926E+02  0.82873691735E+01 -0.48310715348E+02  0.54225216136E+02  0.41800000000E+01 0.  1.
         -5    1    4    4    0  501 -0.72965745126E+02 -0.13338387025E+03 -0.10016093285E+03  0.18211244240E+03  0.41800000000E+01 0.  1.
</event>
<event>
11    1  0.8299058E-009  0.1391743E+03  0.7561462E-02  0.1108484E+00
         22   -1    0    0    0    0  0.00000000000E+00  0.00000000000E+00  0.10648255740E+04  0.10648255740E+04  0.00000000000E+00 0.  1.
         22   -1    0    0    0    0 -0.00000000000E+00 -0.00000000000E+00 -0.41236340648E+03  0.41236340648E+03  0.00000000000E+00 0.  1.
         24    2    1    2    0    0  0.19318383818E+02  0.25829315328E+02 -0.29202018559E+03  0.30421071744E+03  0.78917794766E+02 0.  0.
         25    2    1    2    0    0 -0.60332213362E+02 -0.70089296493E+02 -0.57701250983E+02  0.16591305054E+03  0.12508085594E+03 0.  0.
        -24    2    1    2    0    0  0.41013829545E+02  0.44259981164E+02  0.10021836041E+04  0.10070652125E+04  0.78532068402E+02 0.  0.
        -11    1    3    3    0    0  0.28579945728E+02  0.31689944146E+02 -0.28992925545E+03  0.29305296283E+03  0.00000000000E+00 0.  1.
         12    1    3    3    0    0 -0.92615619100E+01 -0.58606288181E+01 -0.20909301420E+01  0.11157754614E+02  0.00000000000E+00 0. -1.
         11    1    5    5    0    0  0.12984173869E+02 -0.21961681444E+02  0.19016149612E+03  0.19186531429E+03  0.00000000000E+00 0. -1.
        -12    1    5    5    0    0  0.28029655676E+02  0.66221662609E+02  0.81202210795E+03  0.81519989818E+03  0.00000000000E+00 0.  1.
          5    1    4    4  501    0 -0.11561770253E+02 -0.64707638581E+02  0.24347193453E+02  0.70221159569E+02  0.41800000000E+01 0. -1.
         -5    1    4    4    0  501 -0.48770443109E+02 -0.53816579112E+01 -0.82048444436E+02  0.95691890970E+02  0.41800000000E+01 0. -1.
</event>
<event>
11    1  0.8299058E-009  0.2043467E+03  0.7561462E-02  0.1051492E+00
         22   -1    0    0    0    0  0.00000000000E+00  0.00000000000E+00  0.11713694061E+04  0.11713694061E+04  0.00000000000E+00 0. -1.
         22   -1    0    0    0    0 -0.00000000000E+00 -0.00000000000E+00 -0.86970225726E+03  0.86970225726E+03  0.00000000000E+00 0.  1.
         24    2    1    2    0    0  0.65764027414E+01 -0.68028171518E+02 -0.68004630850E+03  0.68810417417E+03  0.79707537972E+02 0.  0.
         25    2    1    2    0    0  0.54174975311E+02  0.21517728186E+03 -0.87294690657E+02  0.26926253994E+03  0.12508301971E+03 0.  0.
        -24    2    1    2    0    0 -0.60751378052E+02 -0.14714911034E+03  0.10690081480E+04  0.10837049493E+04  0.79337292353E+02 0.  0.
        -11    1    3    3    0    0 -0.36432474265E+02 -0.25246518067E+02 -0.29148378472E+03  0.29483471405E+03  0.00000000000E+00 0.  1.
         12    1    3    3    0    0  0.43008877006E+02 -0.42781653451E+02 -0.38856252378E+03  0.39326946011E+03  0.00000000000E+00 0. -1.
         11    1    5    5    0    0 -0.16123094272E+02 -0.58085681059E+02  0.65969380162E+03  0.66244230874E+03  0.00000000000E+00 0. -1.
        -12    1    5    5    0    0 -0.44628283780E+02 -0.89063429280E+02  0.40931434641E+03  0.42126264055E+03  0.00000000000E+00 0.  1.
          5    1    4    4  501    0 -0.19844448828E+02  0.25877216790E+02  0.20907102183E+02  0.38961671162E+02  0.41800000000E+01 0. -1.
         -5    1    4    4    0  501  0.74019424139E+02  0.18930006507E+03 -0.10820179284E+03  0.23030086877E+03  0.41800000000E+01 0. -1.
</event>
<event>
11    1  0.8299058E-009  0.1355968E+03  0.7561462E-02  0.1112577E+00
         22   -1    0    0    0    0  0.00000000000E+00  0.00000000000E+00  0.25430133063E+03  0.25430133063E+03  0.00000000000E+00 0. -1.
         22   -1    0    0    0    0 -0.00000000000E+00 -0.00000000000E+00 -0.30451178107E+03  0.30451178107E+03  0.00000000000E+00 0.  1.
        -24    2    1    2    0    0 -0.45347200182E+02  0.33316388334E+02 -0.20467161516E+03  0.22683025692E+03  0.79969651153E+02 0.  0.
         25    2    1    2    0    0 -0.92648322328E+01 -0.49421921377E+02 -0.15645405486E+02  0.13572268327E+03  0.12508998606E+03 0.  0.
         24    2    1    2    0    0  0.54612032415E+02  0.16105533043E+02  0.17010657020E+03  0.19626017151E+03  0.79623786743E+02 0.  0.
        -11    1    5    5    0    0 -0.37917703021E+01  0.34873246784E+02  0.78852771747E+02  0.86303420995E+02  0.00000000000E+00 0.  1.
         12    1    5    5    0    0  0.58403802717E+02 -0.18767713741E+02  0.91253798454E+02  0.10995675051E+03  0.00000000000E+00 0. -1.
         11    1    3    3    0    0 -0.29337989775E+01  0.41037295471E+02 -0.43009678632E+02  0.59518898276E+02  0.00000000000E+00 0. -1.
        -12    1    3    3    0    0 -0.42413401204E+02 -0.77209071363E+01 -0.16166193653E+03  0.16731135864E+03  0.00000000000E+00 0.  1.
          5    1    4    4  501    0  0.12709515546E+02 -0.77892918047E+02  0.23447624262E+02  0.82438473729E+02  0.41800000000E+01 0. -1.
         -5    1    4    4    0  501 -0.21974347779E+02  0.28470996670E+02 -0.39093029748E+02  0.53284209543E+02  0.41800000000E+01 0. -1.
</event>
<event>
11    1  0.8299058E-009  0.2239568E+03  0.7561462E-02  0.1038767E+00
         22   -1    0    0    0    0  0.00000000000E+00  0.00000000000E+00  0.57491421804E+03  0.57491421804E+03  0.00000000000E+00 0. -1.
         22   -1    0    0    0    0 -0.00000000000E+00 -0.00000000000E+00 -0.14006075700E+04  0.14006075700E+04  0.00000000000E+00 0. -1.
         24    2    1    2    0    0 -0.25442121554E+02 -0.18427992224E+03 -0.13476592169E+04  0.13627571720E+04  0.79469199285E+02 0.  0.
         25    2    1    2    0    0  0.56113689076E+02  0.16960762169E+03  0.24875739321E+03  0.33082153797E+03  0.12508860010E+03 0.  0.
        -24    2    1    2    0    0 -0.30671567522E+02  0.14672300555E+02  0.27320847174E+03  0.28194307806E+03  0.60770130660E+02 0.  0.
        -11    1    3    3    0    0 -0.26911501422E+02 -0.29258574332E+02 -0.45525329239E+03  0.45698561609E+03  0.00000000000E+00 0.  1.
         12    1    3    3    0    0  0.14693798675E+01 -0.15502134791E+03 -0.89240592448E+03  0.90577155587E+03  0.00000000000E+00 0. -1.
         13    1    5    5    0    0 -0.30094644437E+02 -0.11925417364E+02  0.22088598044E+03  0.22324542449E+03  0.00000000000E+00 0. -1.
        -14    1    5    5    0    0 -0.57692308424E+00  0.26597717919E+02  0.52322491298E+02  0.58697653568E+02  0.00000000000E+00 0.  1.
          5    1    4    4  501    0  0.92947941447E+02  0.11043603263E+03  0.13705119981E+03  0.19908777183E+03  0.41800000000E+01 0. -1.
         -5    1    4    4    0  501 -0.36834252371E+02  0.59171589062E+02  0.11170619340E+03  0.13173376615E+03  0.41800000000E+01 0. -1.
</event>
<event>
11    1  0.8299058E-009  0.1490146E+03  0.7561462E-02  0.1097890E+00
         22   -1    0    0    0    0  0.00000000000E+00  0.00000000000E+00  0.43018380846E+03  0.43018380846E+03  0.00000000000E+00 0. -1.
         22   -1    0    0    0    0 -0.00000000000E+00 -0.00000000000E+00 -0.94316473936E+03  0.94316473936E+03  0.00000000000E+00 0.  1.
        -24    2    1    2    0    0  0.50497295670E+02 -0.56207201793E+02 -0.67458839252E+03  0.68348155938E+03  0.79801731094E+02 0.  0.
         25    2    1    2    0    0 -0.10088406839E+03 -0.76627316616E+01 -0.23066782852E+03  0.28123017307E+03  0.12508577227E+03 0.  0.
         24    2    1    2    0    0  0.50386772720E+02  0.63869933455E+02  0.39227529014E+03  0.40863681537E+03  0.80535385758E+02 0.  0.
        -13    1    5    5    0    0  0.10357955513E+02 -0.70753773305E+01  0.60718621788E+01  0.13936129918E+02  0.00000000000E+00 0.  1.
         14    1    5    5    0    0  0.40028817206E+02  0.70945310785E+02  0.38620342796E+03  0.39470068545E+03  0.00000000000E+00 0. -1.
         13    1    3    3    0    0 -0.13577528066E+02 -0.41540090399E+01 -0.25687910113E+02  0.29350873674E+02  0.00000000000E+00 0. -1.
        -14    1    3    3    0    0  0.64074823736E+02 -0.52053192753E+02 -0.64890048241E+03  0.65413068571E+03  0.00000000000E+00 0.  1.
          5    1    4    4  501    0 -0.29700321244E+02 -0.54073313538E+02 -0.43410404572E+02  0.75551094923E+02  0.41800000000E+01 0.  1.
         -5    1    4    4    0  501 -0.71183747145E+02  0.46410581876E+02 -0.18725742394E+03  0.20567907815E+03  0.41800000000E+01 0.  1.
</event>
<event>
11    1  0.8299058E-009  0.1569332E+03  0.7561462E-02  0.1089998E+00
         22   -1    0    0    0    0  0.00000000000E+00  0.00000000000E+00  0.12239454112E+04  0.12239454112E+04  0.00000000000E+00 0.  1.
         22   -1    0    0    0    0 -0.00000000000E+00 -0.00000000000E+00 -0.20616819028E+03  0.20616819028E+03  0.00000000000E+00 0.  1.
         24    2    1    2    0    0  0.33951045952E+02  0.30914130548E+02 -0.16132723176E+03  0.18632206902E+03  0.81123860283E+02 0.  0.
         25    2    1    2    0    0 -0.53397432123E+02 -0.11887867302E+03  0.25956074927E+03  0.31622179471E+03  0.12506404851E+03 0.  0.
        -24    2    1    2    0    0  0.19446386172E+02  0.87964542472E+02  0.91954370339E+03  0.92756973774E+03  0.81908932728E+02 0.  0.
        -11    1    3    3    0    0  0.22631702587E+02  0.58787542966E+02 -0.11386715273E+03  0.13013031023E+03  0.00000000000E+00 0.  1.
         12    1    3    3    0    0  0.11319343364E+02 -0.27873412418E+02 -0.47460079028E+02  0.56191758786E+02  0.00000000000E+00 0. -1.
         11    1    5    5    0    0 -0.28737228350E+02  0.10691351967E+02  0.24090032668E+03  0.24284377837E+03  0.00000000000E+00 0. -1.
        -12    1    5    5    0    0  0.48183614522E+02  0.77273190505E+02  0.67864337670E+03  0.68472595936E+03  0.00000000000E+00 0.  1.
          5    1    4    4  501    0 -0.78271593753E+01  0.23984870715E+02  0.15990509118E+02  0.30161353235E+02  0.41800000000E+01 0.  1.
         -5    1    4    4    0  501 -0.45570272748E+02 -0.14286354374E+03  0.24357024015E+03  0.28606044147E+03  0.41800000000E+01 0.  1.
</event>
<event>
11    1  0.8299058E-009  0.2059579E+03  0.7561462E-02  0.1050389E+00
         22   -1    0    0    0    0  0.00000000000E+00  0.00000000000E+00  0.26779906159E+03  0.26779906159E+03  0.00000000000E+00 0. -1.
         22   -1    0    0    0    0 -0.00000000000E+00 -0.00000000000E+00 -0.79451596371E+03  0.79451596371E+03  0.00000000000E+00 0. -1.
         24    2    1    2    0    0  0.13461674368E+02  0.26841912944E+01 -0.58939152040E+03  0.59415655887E+03  0.73832449314E+02 0.  0.
         25    2    1    2    0    0 -0.15800447558E+03 -0.73137166817E+02 -0.87798353013E+02  0.23167041448E+03  0.12509264840E+03 0.  0.
        -24    2    1    2    0    0  0.14454280121E+03  0.70452975523E+02  0.15047297129E+03  0.23648805194E+03  0.86187240823E+02 0.  0.
        -11    1    3    3    0    0  0.35857270818E+00  0.73333580990E+01 -0.35592879739E+01  0.81593655560E+01  0.00000000000E+00 0.  1.
         12    1    3    3    0    0  0.13103101659E+02 -0.46491668046E+01 -0.58583223243E+03  0.58599719332E+03  0.00000000000E+00 0. -1.
         11    1    5    5    0    0  0.12917465586E+03  0.67802085564E+02  0.16131166239E+03  0.21749636076E+03  0.00000000000E+00 0. -1.
        -12    1    5    5    0    0  0.15368145347E+02  0.26508899592E+01 -0.10838691098E+02  0.18991691176E+02  0.00000000000E+00 0.  1.
          5    1    4    4  501    0 -0.17750914960E+03 -0.74708122019E+02 -0.70213857800E+02  0.20503233871E+03  0.41800000000E+01 0. -1.
         -5    1    4    4    0  501  0.19504674027E+02  0.15709552014E+01 -0.17584495213E+02  0.26638075776E+02  0.41800000000E+01 0. -1.
</event>
<event>
11    1  0.8299058E-009  0.1694545E+03  0.7561462E-02  0.1078507E+00
         22   -1    0    0    0    0  0.00000000000E+00  0.00000000000E+00  0.81340613853E+03  0.81340613853E+03  0.00000000000E+00 0.  1.
         22   -1    0    0    0    0 -0.00000000000E+00 -0.00000000000E+00 -0.32232980160E+03  0.32232980160E+03  0.00000000000E+00 0.  1.
         24    2    1    2    0    0  0.40436546596E+01 -0.11154315386E+03 -0.21770297719E+03  0.25767796063E+03  0.80901908510E+02 0.  0.
         25    2    1    2    0    0 -0.53988098052E+02  0.12484813039E+03  0.23257814260E+02  0.18625360659E+03  0.12509080562E+03 0.  0.
        -24    2    1    2    0    0  0.49944443393E+02 -0.13304976533E+02  0.68552149985E+03  0.69180437291E+03  0.77343996486E+02 0.  0.
        -13    1    3    3    0    0 -0.38369375233E+02 -0.54647911076E+02 -0.11081585919E+03  0.12937835131E+03  0.00000000000E+00 0.  1.
         14    1    3    3    0    0  0.42413029892E+02 -0.56895242783E+02 -0.10688711800E+03  0.12829960932E+03  0.00000000000E+00 0. -1.
         11    1    5    5    0    0  0.94893731055E+01  0.31197593985E+02  0.21629543850E+03  0.21873969642E+03  0.00000000000E+00 0. -1.
        -12    1    5    5    0    0  0.40455070287E+02 -0.44502570518E+02  0.46922606135E+03  0.47306467649E+03  0.00000000000E+00 0.  1.
          5    1    4    4  501    0 -0.89489979463E+02  0.69978488308E+02  0.36591614528E+02  0.11942304595E+03  0.41800000000E+01 0.  1.
         -5    1    4    4    0  501  0.35501881410E+02  0.54869642084E+02 -0.13333800269E+02  0.66830560642E+02  0.41800000000E+01 0.  1.
</event>
<event>
11    1  0.8299058E-009  0.8867687E+03  0.7561462E-02  0.8794864E-01
         22   -1    0    0    0    0  0.00000000000E+00  0.00000000000E+00  0.29538455160E+04  0.29538455160E+04  0.00000000000E+00 0. -1.
         22   -1    0    0    0    0 -0.00000000000E+00 -0.00000000000E+00 -0.39055090826E+03  0.39055090826E+03  0.00000000000E+00 0. -1.
         24    2    1    2    0    0 -0.85195184938E+01 -0.87499681312E+03  0.40572921308E+03  0.96763848632E+03  0.77563140051E+02 0.  0.
         25    2    1    2    0    0 -0.47169571157E+02  0.88636685657E+03  0.19182278269E+04  0.21173371092E+04  0.12508902943E+03 0.  0.
        -24    2    1    2    0    0  0.55689089651E+02 -0.11370043442E+02  0.23933756778E+03  0.25942082876E+03  0.82378045911E+02 0.  0.
        -11    1    3    3    0    0  0.21230706345E+02 -0.44272798831E+03  0.17301345945E+03  0.47580717910E+03  0.00000000000E+00 0.  1.
         12    1    3    3    0    0 -0.29750224839E+02 -0.43226882481E+03  0.23271575364E+03  0.49183130723E+03  0.00000000000E+00 0. -1.
         11    1    5    5    0    0 -0.84773383640E+01  0.15115217742E+02  0.10447299971E+02  0.20235640583E+02  0.00000000000E+00 0. -1.
        -12    1    5    5    0    0  0.64166428015E+02 -0.26485261184E+02  0.22889026781E+03  0.23918518817E+03  0.00000000000E+00 0.  1.
          5    1    4    4  501    0 -0.48212366018E+02  0.79458202077E+03  0.16157047669E+04  0.18011675064E+04  0.41800000000E+01 0. -1.
         -5    1    4    4    0  501  0.10427948613E+01  0.91784835799E+02  0.30252305998E+03  0.31616960278E+03  0.41800000000E+01 0. -1.
</event>
<event>
11    1  0.8299058E-009  0.1384282E+03  0.7561462E-02  0.1109326E+00
         22   -1    0    0    0    0  0.00000000000E+00  0.00000000000E+00  0.20565735207E+04  0.20565735207E+04  0.00000000000E+00 0. -1.
         22   -1    0    0    0    0 -0.00000000000E+00 -0.00000000000E+00 -0.50318007453E+02  0.50318007453E+02  0.00000000000E+00 0.  1.
         24    2    1    2    0    0 -0.27459567896E+02 -0.57057591619E+02  0.55915588211E+02  0.11527072738E+03  0.78429528586E+02 0.  0.
         25    2    1    2    0    0  0.38034767660E+01  0.50929779795E+02  0.21253866517E+03  0.25185058336E+03  0.12509085995E+03 0.  0.
        -24    2    1    2    0    0  0.23656091130E+02  0.61278118240E+01  0.17378012598E+04  0.17397702174E+04  0.79057130496E+02 0.  0.
        -11    1    3    3    0    0  0.19903086032E+01  0.11061910842E+00 -0.17534179056E+02  0.17647124414E+02  0.00000000000E+00 0.  1.
         12    1    3    3    0    0 -0.29449876500E+02 -0.57168210727E+02  0.73449767267E+02  0.97623602961E+02  0.00000000000E+00 0. -1.
         13    1    5    5    0    0 -0.13823570789E+02  0.62157614520E+01  0.13661117316E+04  0.13661958095E+04  0.00000000000E+00 0. -1.
        -14    1    5    5    0    0  0.37479661919E+02 -0.87949627981E-01  0.37168952826E+03  0.37357440786E+03  0.00000000000E+00 0.  1.
          5    1    4    4  501    0 -0.48499281306E+02 -0.20074906376E+01  0.37108123571E+02  0.61242922373E+02  0.41800000000E+01 0. -1.
         -5    1    4    4    0  501  0.52302758072E+02  0.52937270433E+02  0.17543054160E+03  0.19060766099E+03  0.41800000000E+01 0. -1.
</event>
<event>
11    1  0.8299058E-009  0.1595355E+03  0.7561462E-02  0.1087515E+00
         22   -1    0    0    0    0  0.00000000000E+00  0.00000000000E+00  0.25566757196E+04  0.25566757196E+04  0.00000000000E+00 0. -1.
         22   -1    0    0    0    0 -0.00000000000E+00 -0.00000000000E+00 -0.74063768629E+03  0.74063768629E+03  0.00000000000E+00 0. -1.
        -24    2    1    2    0    0  0.33818327541E+02 -0.55828684501E+01 -0.72534444835E+03  0.73048685218E+03  0.79445734675E+02 0.  0.
         25    2    1    2    0    0 -0.49117367238E+02 -0.92128136344E+02  0.61288758715E+03  0.63417603008E+03  0.12509169984E+03 0.  0.
         24    2    1    2    0    0  0.15299039696E+02  0.97711004794E+02  0.19284948945E+04  0.19326505236E+04  0.79145355281E+02 0.  0.
        -13    1    5    5    0    0  0.20659225688E+02 -0.48655263733E+00  0.14726216184E+03  0.14870502564E+03  0.00000000000E+00 0.  1.
         14    1    5    5    0    0 -0.53601859917E+01  0.98197557432E+02  0.17812327327E+04  0.17839454980E+04  0.00000000000E+00 0. -1.
         11    1    3    3    0    0  0.51063236679E+02  0.11427372116E+02 -0.62791425510E+03  0.63009074801E+03  0.00000000000E+00 0. -1.
        -12    1    3    3    0    0 -0.17244909137E+02 -0.17010240566E+02 -0.97430193256E+02  0.10039610417E+03  0.00000000000E+00 0.  1.
          5    1    4    4  501    0 -0.11589344142E+02 -0.46544374100E+01 -0.74492750476E+00  0.13191057662E+02  0.41800000000E+01 0.  1.
         -5    1    4    4    0  501 -0.37528023096E+02 -0.87473698934E+02  0.61363251465E+03  0.62098497241E+03  0.41800000000E+01 0.  1.
</event>
<event>
11    1  0.8299058E-009  0.1287992E+03  0.7561462E-02  0.1120753E+00
         22   -1    0    0    0    0  0.00000000000E+00  0.00000000000E+00  0.33627858673E+03  0.33627858673E+03  0.00000000000E+00 0. -1.
         22   -1    0    0    0    0 -0.00000000000E+00 -0.00000000000E+00 -0.12720413291E+04  0.12720413291E+04  0.00000000000E+00 0.  1.
         24    2    1    2    0    0 -0.11623306919E+02  0.58015531232E+01 -0.12063052553E+04  0.12090154992E+04  0.79858304984E+02 0.  0.
         25    2    1    2    0    0  0.39188950681E+02 -0.15668743565E+02  0.18626720699E+02  0.13332574237E+03  0.12509002947E+03 0.  0.
        -24    2    1    2    0    0 -0.27565643762E+02  0.98671904417E+01  0.25191579227E+03  0.26597867429E+03  0.80161478371E+02 0.  0.
        -11    1    3    3    0    0  0.36851581831E+01 -0.15930615523E+02 -0.10709402508E+04  0.10710650707E+04  0.00000000000E+00 0.  1.
         12    1    3    3    0    0 -0.15308465102E+02  0.21732168646E+02 -0.13536500456E+03  0.13795042848E+03  0.00000000000E+00 0. -1.
         11    1    5    5    0    0 -0.54091731009E+02  0.18199103609E+02  0.15588226833E+03  0.16600121782E+03  0.00000000000E+00 0. -1.
        -12    1    5    5    0    0  0.26526087247E+02 -0.83319131674E+01  0.96033523941E+02  0.99977456470E+02  0.00000000000E+00 0.  1.
          5    1    4    4  501    0  0.84204421605E+02 -0.83110831100E+01  0.24600388741E+01  0.84752480268E+02  0.41800000000E+01 0. -1.
         -5    1    4    4    0  501 -0.45015470924E+02 -0.73576604550E+01  0.16166681825E+02  0.48573262101E+02  0.41800000000E+01 0. -1.
</event>
<event>
11    1  0.8299058E-009  0.2184814E+03  0.7561462E-02  0.1042173E+00
         22   -1    0    0    0    0  0.00000000000E+00  0.00000000000E+00  0.30541249122E+03  0.30541249122E+03  0.00000000000E+00 0.  1.
         22   -1    0    0    0    0 -0.00000000000E+00 -0.00000000000E+00 -0.14724162377E+04  0.14724162377E+04  0.00000000000E+00 0.  1.
         24    2    1    2    0    0 -0.69464128326E+02  0.13788199259E+02 -0.11988951116E+04  0.12043578158E+04  0.90071528811E+02 0.  0.
         25    2    1    2    0    0  0.16333146758E+03  0.13416168137E+03 -0.16699944166E+03  0.29700642034E+03  0.12508986833E+03 0.  0.
        -24    2    1    2    0    0 -0.93867339252E+02 -0.14794988063E+03  0.19889080677E+03  0.27646449279E+03  0.78580011455E+02 0.  0.
        -13    1    3    3    0    0 -0.91247773523E+02  0.14348271847E+02 -0.10078671344E+04  0.10120909987E+04  0.00000000000E+00 0.  1.
         14    1    3    3    0    0  0.21783645197E+02 -0.56007258804E+00 -0.19102797720E+03  0.19226681709E+03  0.00000000000E+00 0. -1.
         11    1    5    5    0    0 -0.58944109893E+02 -0.52267253185E+02  0.41640044039E+02  0.89107615355E+02  0.00000000000E+00 0. -1.
        -12    1    5    5    0    0 -0.34923229358E+02 -0.95682627446E+02  0.15725076273E+03  0.18735687743E+03  0.00000000000E+00 0.  1.
          5    1    4    4  501    0 -0.17714649470E+02  0.66492390455E+01  0.39501213170E+00  0.19381682598E+02  0.41800000000E+01 0.  1.
         -5    1    4    4    0  501  0.18104611705E+03  0.12751244233E+03 -0.16739445380E+03  0.27762473774E+03  0.41800000000E+01 0.  1.
</event>
<event>
11    1  0.8299058E-009  0.1358699E+03  0.7561462E-02  0.1112260E+00
         22   -1    0    0    0    0  0.00000000000E+00  0.00000000000E+00  0.13869123494E+03  0.13869123494E+03  0.00000000000E+00 0. -1.
         22   -1    0    0    0    0 -0.00000000000E+00 -0.00000000000E+00 -0.87518834667E+03  0.87518834667E+03  0.00000000000E+00 0. -1.
         24    2    1    2    0    0  0.25768915026E+02  0.47525621615E+02 -0.73085942524E+03  0.73695571436E+03  0.77624118581E+02 0.  0.
         25    2    1    2    0    0  0.50157563942E+01 -0.48316667430E+02 -0.86467766159E+02  0.15963982788E+03  0.12509413215E+03 0.  0.
        -24    2    1    2    0    0 -0.30784671420E+02  0.79104581581E+00  0.80830079662E+02  0.11728403936E+03  0.79206832798E+02 0.  0.
        -13    1    3    3    0    0 -0.26198238833E+02  0.18559562264E+02 -0.17493872300E+03  0.17786051241E+03  0.00000000000E+00 0.  1.
         14    1    3    3    0    0  0.51967153859E+02  0.28966059350E+02 -0.55592070224E+03  0.55909520196E+03  0.00000000000E+00 0. -1.
         11    1    5    5    0    0 -0.24902794338E+02 -0.29413642085E+02  0.77217116370E+02  0.86300605833E+02  0.00000000000E+00 0. -1.
        -12    1    5    5    0    0 -0.58818770828E+01  0.30204687901E+02  0.36129632913E+01  0.30983433525E+02  0.00000000000E+00 0.  1.
          5    1    4    4  501    0 -0.11025495327E+02 -0.81797945740E+02 -0.22650896903E+02  0.85691312308E+02  0.41800000000E+01 0.  1.
         -5    1    4    4    0  501  0.16041251721E+02  0.33481278310E+02 -0.63816869256E+02  0.73948515575E+02  0.41800000000E+01 0.  1.
</event>
<event>
11    1  0.8299058E-009  0.1762169E+03  0.7561462E-02  0.1072745E+00
         22   -1    0    0    0    0  0.00000000000E+00  0.00000000000E+00  0.21149744228E+04  0.21149744228E+04  0.00000000000E+00 0.  1.
         22   -1    0    0    0    0 -0.00000000000E+00 -0.00000000000E+00 -0.43065634217E+03  0.43065634217E+03  0.00000000000E+00 0. -1.
         24    2    1    2    0    0 -0.38262557945E+02 -0.11909426081E+03 -0.40007667295E+03  0.42656886676E+03  0.79070775564E+02 0.  0.
         25    2    1    2    0    0  0.14116510542E+02  0.96064444496E+02  0.37075383745E+03  0.40315318871E+03  0.12508569948E+03 0.  0.
        -24    2    1    2    0    0  0.24146047403E+02  0.23029816318E+02  0.17136409161E+04  0.17159087095E+04  0.81633975093E+02 0.  0.
        -13    1    3    3    0    0 -0.85562494800E+01 -0.77769516476E+02 -0.12991283417E+03  0.15165306321E+03  0.00000000000E+00 0.  1.
         14    1    3    3    0    0 -0.29706308465E+02 -0.41324744338E+02 -0.27016383878E+03  0.27491580355E+03  0.00000000000E+00 0. -1.
         11    1    5    5    0    0  0.26390020189E+02 -0.25122870504E+02  0.50829257434E+03  0.50959683370E+03  0.00000000000E+00 0. -1.
        -12    1    5    5    0    0 -0.22439727860E+01  0.48152686823E+02  0.12053483417E+04  0.12063118758E+04  0.00000000000E+00 0.  1.
          5    1    4    4  501    0  0.41874259302E+02  0.11631136047E+03  0.29369455381E+03  0.31867812837E+03  0.41800000000E+01 0. -1.
         -5    1    4    4    0  501 -0.27757748761E+02 -0.20246915979E+02  0.77059283644E+02  0.84475060335E+02  0.41800000000E+01 0. -1.
</event>
<event>
11    1  0.8299058E-009  0.1477308E+03  0.7561462E-02  0.1099220E+00
         22   -1    0    0    0    0  0.00000000000E+00  0.00000000000E+00  0.85681776646E+03  0.85681776646E+03  0.00000000000E+00 0.  1.
         22   -1    0    0    0    0 -0.00000000000E+00 -0.00000000000E+00 -0.97807789273E+02  0.97807789273E+02  0.00000000000E+00 0.  1.
         24    2    1    2    0    0  0.48707122749E+02 -0.66796296825E+02 -0.36166693518E+02  0.12139808142E+03  0.81211670202E+02 0.  0.
         25    2    1    2    0    0 -0.50492702239E+02  0.22255596793E+02  0.30332771706E+03  0.33271253111E+03  0.12508037359E+03 0.  0.
        -24    2    1    2    0    0  0.17855794903E+01  0.44540700032E+02  0.49184895364E+03  0.50051494319E+03  0.81318834882E+02 0.  0.
        -13    1    3    3    0    0  0.35425196026E+02  0.30569923899E+01 -0.35564997947E+02  0.50290742637E+02  0.00000000000E+00 0.  1.
         14    1    3    3    0    0  0.13281926722E+02 -0.69853289215E+02 -0.60169557140E+00  0.71107338785E+02  0.00000000000E+00 0. -1.
         11    1    5    5    0    0  0.34025517111E+02  0.64769873097E+01  0.10749143129E+03  0.11293402932E+03  0.00000000000E+00 0. -1.
        -12    1    5    5    0    0 -0.32239937621E+02  0.38063712722E+02  0.38435752235E+03  0.38758091387E+03  0.00000000000E+00 0.  1.
          5    1    4    4  501    0  0.15520456813E+02  0.47853969185E+02  0.55902438971E+02  0.75322254542E+02  0.41800000000E+01 0.  1.
         -5    1    4    4    0  501 -0.66013159051E+02 -0.25598372392E+02  0.24742527809E+03  0.25739027657E+03  0.41800000000E+01 0.  1.
</event>
<event>
11    1  0.8299058E-009  0.1450725E+03  0.7561462E-02  0.1102023E+00
         22   -1    0    0    0    0  0.00000000000E+00  0.00000000000E+00  0.78167955295E+03  0.78167955295E+03  0.00000000000E+00 0. -1.
         22   -1    0    0    0    0 -0.00000000000E+00 -0.00000000000E+00 -0.33399636411E+03  0.33399636411E+03  0.00000000000E+00 0.  1.
         24    2    1    2    0    0 -0.80538359587E+01  0.44090632699E+02 -0.25979955959E+03  0.27557536838E+03  0.80231691541E+02 0.  0.
         25    2    1    2    0    0 -0.34448661482E+02  0.19095757864E+02  0.73746906008E+01  0.13134728434E+03  0.12508542999E+03 0.  0.
        -24    2    1    2    0    0  0.42502497440E+02 -0.63186390563E+02  0.70010805783E+03  0.70875326434E+03  0.79880628647E+02 0.  0.
        -11    1    3    3    0    0  0.56074584230E+01  0.40363216110E+02 -0.25811822431E+03  0.26131523209E+03  0.00000000000E+00 0.  1.
         12    1    3    3    0    0 -0.13661294382E+02  0.37274165887E+01 -0.16813352881E+01  0.14260136288E+02  0.00000000000E+00 0. -1.
         11    1    5    5    0    0  0.65948331481E+02 -0.52640994342E+02  0.51460929166E+03  0.52148152391E+03  0.00000000000E+00 0. -1.
        -12    1    5    5    0    0 -0.23445834041E+02 -0.10545396221E+02  0.18549876617E+03  0.18727174043E+03  0.00000000000E+00 0.  1.
          5    1    4    4  501    0  0.16090579424E+02 -0.20875637589E+02 -0.42207238510E+02  0.49936183010E+02  0.41800000000E+01 0. -1.
         -5    1    4    4    0  501 -0.50539240906E+02  0.39971395453E+02  0.49581929111E+02  0.81411101332E+02  0.41800000000E+01 0. -1.
</event>
<event>
11    1  0.8299058E-009  0.1761089E+03  0.7561462E-02  0.1072834E+00
         22   -1    0    0    0    0  0.00000000000E+00  0.00000000000E+00  0.16616570536E+04  0.16616570536E+04  0.00000000000E+00 0.  1.
         22   -1    0    0    0    0 -0.00000000000E+00 -0.00000000000E+00 -0.20265996168E+03  0.20265996168E+03  0.00000000000E+00 0.  1.
         24    2    1    2    0    0  0.66626441172E+00 -0.62300263753E+01 -0.16466426449E+03  0.18355467785E+03  0.80862492075E+02 0.  0.
         25    2    1    2    0    0  0.26352162730E+02  0.12634380197E+03  0.30573506658E+03  0.35465194062E+03  0.12508747047E+03 0.  0.
        -24    2    1    2    0    0 -0.27018427142E+02 -0.12011377560E+03  0.13179262898E+04  0.13261103968E+04  0.80509406996E+02 0.  0.
        -13    1    3    3    0    0  0.36388244170E+02  0.12150369248E+00 -0.41676340499E+02  0.55326634041E+02  0.00000000000E+00 0.  1.
         14    1    3    3    0    0 -0.35721979758E+02 -0.63515300678E+01 -0.12298792399E+03  0.12822804381E+03  0.00000000000E+00 0. -1.
         13    1    5    5    0    0  0.16043902460E+02 -0.96801404460E+02  0.88733743206E+03  0.89274612127E+03  0.00000000000E+00 0. -1.
        -14    1    5    5    0    0 -0.43062329601E+02 -0.23312371139E+02  0.43058885774E+03  0.43336427552E+03  0.00000000000E+00 0.  1.
          5    1    4    4  501    0  0.39148079439E+02  0.46580439994E+02  0.31318184981E+02  0.68560999295E+02  0.41800000000E+01 0.  1.
         -5    1    4    4    0  501 -0.12795916709E+02  0.79763361979E+02  0.27441688160E+03  0.28609094132E+03  0.41800000000E+01 0.  1.
</event>
<event>
11    1  0.8299058E-009  0.2146740E+03  0.7561462E-02  0.1044606E+00
         22   -1    0    0    0    0  0.00000000000E+00  0.00000000000E+00  0.66664813436E+03  0.66664813436E+03  0.00000000000E+00 0.  1.
         22   -1    0    0    0    0 -0.00000000000E+00 -0.00000000000E+00 -0.89071051742E+03  0.89071051742E+03  0.00000000000E+00 0.  1.
        -24    2    1    2    0    0  0.16241590007E+03  0.32617531340E+02 -0.64368545227E+03  0.66950120185E+03  0.80362117077E+02 0.  0.
         25    2    1    2    0    0 -0.21651758685E+03 -0.54355997926E+02 -0.15871668764E+03  0.30111931493E+03  0.12508962772E+03 0.  0.
         24    2    1    2    0    0  0.54101686779E+02  0.21738466585E+02  0.57833975685E+03  0.58673813500E+03  0.79907516977E+02 0.  0.
        -11    1    5    5    0    0  0.39508836122E+02 -0.17384239005E+02  0.44313870594E+03  0.44523597407E+03  0.00000000000E+00 0.  1.
         12    1    5    5    0    0  0.14592850658E+02  0.39122705591E+02  0.13520105091E+03  0.14150216094E+03  0.00000000000E+00 0. -1.
         13    1    3    3    0    0  0.90809434884E+02 -0.15833814971E+02 -0.25049164943E+03  0.26691408654E+03  0.00000000000E+00 0. -1.
        -14    1    3    3    0    0  0.71606465191E+02  0.48451346312E+02 -0.39319380285E+03  0.40258711531E+03  0.00000000000E+00 0.  1.
          5    1    4    4  501    0 -0.55052501351E+02 -0.47316760533E+02 -0.11074035305E+03  0.13247849609E+03  0.41800000000E+01 0.  1.
         -5    1    4    4    0  501 -0.16146508550E+03 -0.70392373925E+01 -0.47976334588E+02  0.16864081884E+03  0.41800000000E+01 0.  1.
</event>
<event>
11    1  0.8299058E-009  0.1355882E+03  0.7561462E-02  0.1112587E+00
         22   -1    0    0    0    0  0.00000000000E+00  0.00000000000E+00  0.33537144222E+04  0.33537144222E+04  0.00000000000E+00 0.  1.
         22   -1    0    0    0    0 -0.00000000000E+00 -0.00000000000E+00 -0.84554587961E+02  0.84554587961E+02  0.00000000000E+00 0. -1.
        -24    2    1    2    0    0  0.27238059157E+02  0.42516153349E+02 -0.39868727183E+02  0.10409489380E+03  0.81833344944E+02 0.  0.
         25    2    1    2    0    0 -0.66701240542E+02 -0.53750143786E+02  0.47186206613E+03  0.49560745280E+03  0.12503921131E+03 0.  0.
         24    2    1    2    0    0  0.39463181385E+02  0.11233990437E+02  0.28371664953E+04  0.28385666636E+04  0.79141874593E+02 0.  0.
        -11    1    5    5    0    0  0.25736954735E+02  0.22530615617E+02  0.27042858408E+04  0.27045021590E+04  0.00000000000E+00 0.  1.
         12    1    5    5    0    0  0.13726226650E+02 -0.11296625180E+02  0.13288065449E+03  0.13406450453E+03  0.00000000000E+00 0. -1.
         11    1    3    3    0    0 -0.23225345949E+02  0.37308165789E+02 -0.27620764109E+02  0.51905900810E+02  0.00000000000E+00 0. -1.
        -12    1    3    3    0    0  0.50463405106E+02  0.52079875601E+01 -0.12247963075E+02  0.52188992985E+02  0.00000000000E+00 0.  1.
          5    1    4    4  501    0 -0.22593941385E+02 -0.37780662551E+02  0.43098209369E+03  0.43324462158E+03  0.41800000000E+01 0. -1.
         -5    1    4    4    0  501 -0.44107299157E+02 -0.15969481235E+02  0.40879972444E+02  0.62362831213E+02  0.41800000000E+01 0. -1.
</event>
<event>
11    1  0.8299058E-009  0.1498288E+03  0.7561462E-02  0.1097054E+00
         22   -1    0    0    0    0  0.00000000000E+00  0.00000000000E+00  0.39863936820E+03  0.39863936820E+03  0.00000000000E+00 0.  1.
         22   -1    0    0    0    0 -0.00000000000E+00 -0.00000000000E+00 -0.61740516997E+03  0.61740516997E+03  0.00000000000E+00 0.  1.
         24    2    1    2    0    0 -0.57846227493E+02  0.58128466392E+02 -0.51442093202E+03  0.52933623630E+03  0.94036435078E+02 0.  0.
         25    2    1    2    0    0  0.18951276144E+02 -0.10149496252E+03 -0.12405583296E+02  0.16266910503E+03  0.12508781296E+03 0.  0.
        -24    2    1    2    0    0  0.38894951349E+02  0.43366496128E+02  0.30806071353E+03  0.32403919684E+03  0.81893391898E+02 0.  0.
        -13    1    3    3    0    0 -0.80558325442E+02  0.31043724439E+02 -0.41315125756E+03  0.42207501495E+03  0.00000000000E+00 0.  1.
         14    1    3    3    0    0  0.22712097949E+02  0.27084741953E+02 -0.10126967446E+03  0.10726122135E+03  0.00000000000E+00 0. -1.
         11    1    5    5    0    0  0.39827706822E+02 -0.14678037882E+02  0.13055605914E+03  0.13728283070E+03  0.00000000000E+00 0. -1.
        -12    1    5    5    0    0 -0.93275547250E+00  0.58044534009E+02  0.17750465439E+03  0.18675636613E+03  0.00000000000E+00 0.  1.
          5    1    4    4  501    0 -0.50924609280E+02 -0.20697854960E+02 -0.76604907200E+00  0.55134166009E+02  0.41800000000E+01 0. -1.
         -5    1    4    4    0  501  0.69875885424E+02 -0.80797107560E+02 -0.11639534224E+02  0.10753493902E+03  0.41800000000E+01 0. -1.
</event>
<event>
11    1  0.8299058E-009  0.1548043E+03  0.7561462E-02  0.1092068E+00
         22   -1    0    0    0    0  0.00000000000E+00  0.00000000000E+00  0.24472426137E+04  0.24472426137E+04  0.00000000000E+00 0. -1.
         22   -1    0    0    0    0 -0.00000000000E+00 -0.00000000000E+00 -0.16036939110E+03  0.16036939110E+03  0.00000000000E+00 0. -1.
         24    2    1    2    0    0 -0.54594021680E+02  0.10790857562E+01 -0.12685886995E+03  0.15882846831E+03  0.78432377455E+02 0.  0.
         25    2    1    2    0    0  0.11811921499E+03  0.58260595182E+02  0.51118979210E+03  0.54250260760E+03  0.12509048647E+03 0.  0.
        -24    2    1    2    0    0 -0.63525193307E+02 -0.59339680939E+02  0.19025423004E+04  0.19062809289E+04  0.81750393972E+02 0.  0.
        -13    1    3    3    0    0  0.14783933865E+02  0.12585738775E+02 -0.85912366731E+01  0.21231459408E+02  0.00000000000E+00 0.  1.
         14    1    3    3    0    0 -0.69377955546E+02 -0.11506653018E+02 -0.11826763327E+03  0.13759700891E+03  0.00000000000E+00 0. -1.
         13    1    5    5    0    0 -0.21635584696E+02 -0.81740715837E+01  0.12850409790E+04  0.12852490932E+04  0.00000000000E+00 0. -1.
        -14    1    5    5    0    0 -0.41889608611E+02 -0.51165609355E+02  0.61750132143E+03  0.62103183563E+03  0.00000000000E+00 0.  1.
          5    1    4    4  501    0  0.93087785144E+02  0.96897427054E+02  0.40369733121E+03  0.42549201490E+03  0.41800000000E+01 0.  1.
         -5    1    4    4    0  501  0.25031429844E+02 -0.38636831872E+02  0.10749246088E+03  0.11701059270E+03  0.41800000000E+01 0.  1.
</event>
<event>
11    1  0.8299058E-009  0.1398891E+03  0.7561462E-02  0.1107682E+00
         22   -1    0    0    0    0  0.00000000000E+00  0.00000000000E+00  0.69122602040E+03  0.69122602040E+03  0.00000000000E+00 0. -1.
         22   -1    0    0    0    0 -0.00000000000E+00 -0.00000000000E+00 -0.16729414973E+04  0.16729414973E+04  0.00000000000E+00 0.  1.
         24    2    1    2    0    0 -0.42959736494E+02 -0.44495215544E+02 -0.15992452772E+04  0.16024686121E+04  0.80590525040E+02 0.  0.
         25    2    1    2    0    0  0.93184502012E+02  0.66517628984E+02  0.37636214270E+02  0.17370399168E+03  0.12509454713E+03 0.  0.
        -24    2    1    2    0    0 -0.50224765519E+02 -0.22022413440E+02  0.57989358604E+03  0.58799491399E+03  0.80336380201E+02 0.  0.
        -11    1    3    3    0    0  0.14142084065E+02 -0.17369589416E+02 -0.92378158564E+03  0.92405309325E+03  0.00000000000E+00 0.  1.
         12    1    3    3    0    0 -0.57101820559E+02 -0.27125626128E+02 -0.67546369158E+03  0.67841551880E+03  0.00000000000E+00 0. -1.
         13    1    5    5    0    0 -0.20188523484E+02 -0.10261266930E+02  0.51527670338E+03  0.51577412801E+03  0.00000000000E+00 0. -1.
        -14    1    5    5    0    0 -0.30036242034E+02 -0.11761146510E+02  0.64616882654E+02  0.72220785974E+02  0.00000000000E+00 0.  1.
          5    1    4    4  501    0  0.12139003884E+03  0.54732246231E+02  0.47301863730E+02  0.14137220030E+03  0.41800000000E+01 0.  1.
         -5    1    4    4    0  501 -0.28205536826E+02  0.11785382754E+02 -0.96656494600E+01  0.32331791379E+02  0.41800000000E+01 0.  1.
</event>
<event>
11    1  0.8299058E-009  0.1432718E+03  0.7561462E-02  0.1103959E+00
         22   -1    0    0    0    0  0.00000000000E+00  0.00000000000E+00  0.22887196971E+03  0.22887196971E+03  0.00000000000E+00 0. -1.
         22   -1    0    0    0    0 -0.00000000000E+00 -0.00000000000E+00 -0.10392799373E+04  0.10392799373E+04  0.00000000000E+00 0.  1.
         24    2    1    2    0    0  0.12216848732E+02 -0.67093972920E+02 -0.86768752685E+03  0.87407107078E+03  0.80422260141E+02 0.  0.
         25    2    1    2    0    0 -0.69489591977E+02  0.22270528308E+02 -0.11725552125E+03  0.18633577908E+03  0.12508950986E+03 0.  0.
        -24    2    1    2    0    0  0.57272743246E+02  0.44823444612E+02  0.17453508050E+03  0.20774505716E+03  0.86059317595E+02 0.  0.
        -11    1    3    3    0    0  0.19270853561E+02 -0.80709545035E+02 -0.81453835549E+03  0.81875401008E+03  0.00000000000E+00 0.  1.
         12    1    3    3    0    0 -0.70540048297E+01  0.13615572115E+02 -0.53149171356E+02  0.55317060696E+02  0.00000000000E+00 0. -1.
         11    1    5    5    0    0  0.37999612664E+02  0.24790797076E+01  0.15076586896E+03  0.15550068695E+03  0.00000000000E+00 0. -1.
        -12    1    5    5    0    0  0.19273130582E+02  0.42344364904E+02  0.23769211536E+02  0.52244370209E+02  0.00000000000E+00 0.  1.
          5    1    4    4  501    0 -0.37836887192E+02  0.73673024522E+01 -0.13941898535E+03  0.14471016915E+03  0.41800000000E+01 0. -1.
         -5    1    4    4    0  501 -0.31652704785E+02  0.14903225856E+02  0.22163464100E+02  0.41625609930E+02  0.41800000000E+01 0. -1.
</event>
<event>
11    1  0.8299058E-009  0.1863890E+03  0.7561462E-02  0.1064589E+00
         22   -1    0    0    0    0  0.00000000000E+00  0.00000000000E+00  0.42432325376E+03  0.42432325376E+03  0.00000000000E+00 0.  1.
         22   -1    0    0    0    0 -0.00000000000E+00 -0.00000000000E+00 -0.11375694253E+04  0.11375694253E+04  0.00000000000E+00 0. -1.
         24    2    1    2    0    0 -0.44478401486E+02 -0.14016246494E+02 -0.10436828165E+04  0.10477293968E+04  0.79298701929E+02 0.  0.
         25    2    1    2    0    0 -0.80835564154E+01  0.14232353272E+03  0.58371338638E+02  0.19843758919E+03  0.12509569049E+03 0.  0.
        -24    2    1    2    0    0  0.52561957901E+02 -0.12830728623E+03  0.27206530631E+03  0.31572569307E+03  0.80235050031E+02 0.  0.
        -11    1    3    3    0    0 -0.33999846605E+02  0.30699334553E+02 -0.56047602692E+03  0.56234492570E+03  0.00000000000E+00 0.  1.
         12    1    3    3    0    0 -0.10478554881E+02 -0.44715581047E+02 -0.48320678957E+03  0.48538447110E+03  0.00000000000E+00 0. -1.
         11    1    5    5    0    0  0.36395847028E+02 -0.17729631235E+02  0.34510391679E+02  0.53197411952E+02  0.00000000000E+00 0. -1.
        -12    1    5    5    0    0  0.16166110874E+02 -0.11057765499E+03  0.23755491463E+03  0.26252828112E+03  0.00000000000E+00 0.  1.
          5    1    4    4  501    0  0.54965605751E+02  0.76687723239E+02  0.91577749571E+01  0.94887101090E+02  0.41800000000E+01 0. -1.
         -5    1    4    4    0  501 -0.63049162166E+02  0.65635809482E+02  0.49213563681E+02  0.10355048810E+03  0.41800000000E+01 0. -1.
</event>
<event>
11    1  0.8299058E-009  0.1292792E+03  0.7561462E-02  0.1120158E+00
         22   -1    0    0    0    0  0.00000000000E+00  0.00000000000E+00  0.81281620465E+03  0.81281620465E+03  0.00000000000E+00 0. -1.
         22   -1    0    0    0    0 -0.00000000000E+00 -0.00000000000E+00 -0.61585227845E+03  0.61585227845E+03  0.00000000000E+00 0. -1.
         24    2    1    2    0    0 -0.19421718750E+02  0.57619496805E+01 -0.50552106586E+03  0.51214815061E+03  0.79585029497E+02 0.  0.
         25    2    1    2    0    0 -0.85198914248E+01  0.12022034407E+02 -0.66561838796E+02  0.14245608699E+03  0.12508453331E+03 0.  0.
        -24    2    1    2    0    0  0.27941610175E+02 -0.17783984087E+02  0.76904683086E+03  0.77406424550E+03  0.81519472763E+02 0.  0.
        -11    1    3    3    0    0 -0.91995358657E+00 -0.34980644672E+02 -0.16279832450E+03  0.16651662463E+03  0.00000000000E+00 0.  1.
         12    1    3    3    0    0 -0.18501765164E+02  0.40742594352E+02 -0.34272274136E+03  0.34563152599E+03  0.00000000000E+00 0. -1.
         13    1    5    5    0    0 -0.76991364052E+01 -0.20142610102E+02  0.63421395940E+03  0.63458045017E+03  0.00000000000E+00 0. -1.
        -14    1    5    5    0    0  0.35640746580E+02  0.23586260141E+01  0.13483287146E+03  0.13948379533E+03  0.00000000000E+00 0.  1.
          5    1    4    4  501    0 -0.23229676093E+01  0.47737620920E+01  0.37384162458E+02  0.37989906367E+02  0.41800000000E+01 0.  1.
         -5    1    4    4    0  501 -0.61969238155E+01  0.72482723150E+01 -0.10394600125E+03  0.10446618062E+03  0.41800000000E+01 0.  1.
</event>
<event>
11    1  0.8299058E-009  0.1478578E+03  0.7561462E-02  0.1099088E+00
         22   -1    0    0    0    0  0.00000000000E+00  0.00000000000E+00  0.14980231661E+03  0.14980231661E+03  0.00000000000E+00 0.  1.
         22   -1    0    0    0    0 -0.00000000000E+00 -0.00000000000E+00 -0.13087886775E+04  0.13087886775E+04  0.00000000000E+00 0. -1.
         24    2    1    2    0    0 -0.56709801949E+02 -0.22421184829E+01 -0.81253097856E+03  0.81857413730E+03  0.81461637646E+02 0.  0.
         25    2    1    2    0    0  0.93179916310E+02 -0.66252410921E+02 -0.45399867711E+03  0.48459633975E+03  0.12508770894E+03 0.  0.
        -24    2    1    2    0    0 -0.36470114361E+02  0.68494529404E+02  0.10754329482E+03  0.15542051702E+03  0.81045709629E+02 0.  0.
        -11    1    3    3    0    0 -0.50080402810E+02  0.68028921451E+01 -0.21209778292E+03  0.21803622545E+03  0.00000000000E+00 0.  1.
         12    1    3    3    0    0 -0.66293991392E+01 -0.90450106280E+01 -0.60043319563E+03  0.60053791185E+03  0.00000000000E+00 0. -1.
         13    1    5    5    0    0 -0.36890388101E+02  0.16663434202E+02  0.53466444864E+01  0.40830838602E+02  0.00000000000E+00 0. -1.
        -14    1    5    5    0    0  0.42027374002E+00  0.51831095202E+02  0.10219665033E+03  0.11458967842E+03  0.00000000000E+00 0.  1.
          5    1    4    4  501    0  0.24347570322E+02  0.36634380171E+02 -0.14881545150E+03  0.15523657107E+03  0.41800000000E+01 0.  1.
         -5    1    4    4    0  501  0.68832345989E+02 -0.10288679109E+03 -0.30518322561E+03  0.32935976868E+03  0.41800000000E+01 0.  1.
</event>
<event>
11    1  0.8299058E-009  0.1480755E+03  0.7561462E-02  0.1098862E+00
         22   -1    0    0    0    0  0.00000000000E+00  0.00000000000E+00  0.71515663105E+02  0.71515663105E+02  0.00000000000E+00 0.  1.
         22   -1    0    0    0    0 -0.00000000000E+00 -0.00000000000E+00 -0.23522498348E+04  0.23522498348E+04  0.00000000000E+00 0. -1.
        -24    2    1    2    0    0  0.66532091616E+02 -0.38801034918E+02 -0.19166221044E+04  0.19198367696E+04  0.80005568977E+02 0.  0.
         25    2    1    2    0    0 -0.86654506003E+02  0.53026015592E+02 -0.38457136195E+03  0.41696994663E+03  0.12509213491E+03 0.  0.
         24    2    1    2    0    0  0.20122414387E+02 -0.14224980675E+02  0.20459294701E+02  0.86958781697E+02  0.80845441051E+02 0.  0.
        -11    1    5    5    0    0  0.45942964433E+02 -0.22006897995E+02  0.29066424283E+02  0.58650801877E+02  0.00000000000E+00 0.  1.
         12    1    5    5    0    0 -0.25820550046E+02  0.77819173198E+01 -0.86071295820E+01  0.28307979820E+02  0.00000000000E+00 0. -1.
         13    1    3    3    0    0  0.59737944495E+02 -0.61783511564E+02 -0.16017820037E+04  0.16040858493E+04  0.00000000000E+00 0. -1.
        -14    1    3    3    0    0  0.67941471205E+01  0.22982476647E+02 -0.31484010069E+03  0.31575092030E+03  0.00000000000E+00 0.  1.
          5    1    4    4  501    0 -0.63854940370E+02 -0.28002447146E+02 -0.23643657030E+03  0.24653866762E+03  0.41800000000E+01 0.  1.
         -5    1    4    4    0  501 -0.22799565632E+02  0.81028462738E+02 -0.14813479166E+03  0.17043127901E+03  0.41800000000E+01 0.  1.
</event>
<event>
11    1  0.8299058E-009  0.1785010E+03  0.7561462E-02  0.1070862E+00
         22   -1    0    0    0    0  0.00000000000E+00  0.00000000000E+00  0.11292875645E+03  0.11292875645E+03  0.00000000000E+00 0.  1.
         22   -1    0    0    0    0 -0.00000000000E+00 -0.00000000000E+00 -0.23501825674E+04  0.23501825674E+04  0.00000000000E+00 0.  1.
        -24    2    1    2    0    0 -0.35449847778E+02 -0.25438019099E+02 -0.18629562514E+04  0.18651608403E+04  0.79468112317E+02 0.  0.
         25    2    1    2    0    0  0.15819668638E+03  0.18164734197E+02 -0.39995821158E+03  0.44829901423E+03  0.12509710625E+03 0.  0.
         24    2    1    2    0    0 -0.12274683860E+03  0.72732849019E+01  0.25660652037E+02  0.14965146937E+03  0.81347441024E+02 0.  0.
        -13    1    5    5    0    0 -0.32364771948E+02 -0.56611533227E+01  0.45592890133E+02  0.56198209498E+02  0.00000000000E+00 0.  1.
         14    1    5    5    0    0 -0.90382066653E+02  0.12934438225E+02 -0.19932238096E+02  0.93453259869E+02  0.00000000000E+00 0. -1.
         11    1    3    3    0    0  0.30441556976E+01 -0.46605135279E+02 -0.93845379287E+03  0.93961525470E+03  0.00000000000E+00 0. -1.
        -12    1    3    3    0    0 -0.38494003476E+02  0.21167116180E+02 -0.92450245857E+03  0.92554558559E+03  0.00000000000E+00 0.  1.
          5    1    4    4  501    0  0.94794578271E+02  0.55760343971E+01 -0.35966911795E+03  0.37201673489E+03  0.41800000000E+01 0.  1.
         -5    1    4    4    0  501  0.63402108108E+02  0.12588699800E+02 -0.40289093632E+02  0.76282279337E+02  0.41800000000E+01 0.  1.
</event>
<event>
11    1  0.8299058E-009  0.1557933E+03  0.7561462E-02  0.1091102E+00
         22   -1    0    0    0    0  0.00000000000E+00  0.00000000000E+00  0.17850862873E+04  0.17850862873E+04  0.00000000000E+00 0. -1.
         22   -1    0    0    0    0 -0.00000000000E+00 -0.00000000000E+00 -0.91756160527E+03  0.91756160527E+03  0.00000000000E+00 0.  1.
        -24    2    1    2    0    0  0.51840190588E+02  0.77434929173E+02 -0.89043565954E+03  0.89886014723E+03  0.79939520064E+02 0.  0.
         25    2    1    2    0    0 -0.49216744281E+02 -0.56387174569E+02  0.22215001585E+03  0.26570702774E+03  0.12509114147E+03 0.  0.
         24    2    1    2    0    0 -0.26234463063E+01 -0.21047754604E+02  0.15358103257E+04  0.15380807176E+04  0.80802517494E+02 0.  0.
        -11    1    5    5    0    0 -0.10578544734E+02 -0.16623743854E+01  0.25918478825E+02  0.28043477707E+02  0.00000000000E+00 0.  1.
         12    1    5    5    0    0  0.79550984278E+01 -0.19385380218E+02  0.15098918469E+04  0.15100372399E+04  0.00000000000E+00 0. -1.
         11    1    3    3    0    0 -0.10017389512E+02  0.72955804063E+01 -0.36206577122E+03  0.36227778882E+03  0.00000000000E+00 0. -1.
        -12    1    3    3    0    0  0.61857580100E+02  0.70139348767E+02 -0.52836988833E+03  0.53658235840E+03  0.00000000000E+00 0.  1.
          5    1    4    4  501    0 -0.17477255008E+01  0.37343203605E+02  0.84470315351E+02  0.92467702336E+02  0.41800000000E+01 0.  1.
         -5    1    4    4    0  501 -0.47469018781E+02 -0.93730378174E+02  0.13767970050E+03  0.17323932541E+03  0.41800000000E+01 0.  1.
</event>
<event>
11    1  0.8299058E-009  0.1295471E+03  0.7561462E-02  0.1119827E+00
         22   -1    0    0    0    0  0.00000000000E+00  0.00000000000E+00  0.18345564006E+03  0.18345564006E+03  0.00000000000E+00 0.  1.
         22   -1    0    0    0    0 -0.00000000000E+00 -0.00000000000E+00 -0.53240142013E+03  0.53240142013E+03  0.00000000000E+00 0. -1.
         24    2    1    2    0    0  0.27692824436E+02 -0.20966131276E+02 -0.45741126137E+03  0.46577682318E+03  0.80724939118E+02 0.  0.
         25    2    1    2    0    0 -0.13827142307E+02  0.75380919211E+01  0.17515041364E+02  0.12728846402E+03  0.12509022226E+03 0.  0.
        -24    2    1    2    0    0 -0.13865682129E+02  0.13428039355E+02  0.90950439939E+02  0.12279177299E+03  0.80207653042E+02 0.  0.
        -11    1    3    3    0    0 -0.10748563363E+02  0.46575103848E+01 -0.84476382827E+01  0.14442527823E+02  0.00000000000E+00 0.  1.
         12    1    3    3    0    0  0.38441387800E+02 -0.25623641660E+02 -0.44896362309E+03  0.45133429536E+03  0.00000000000E+00 0. -1.
         11    1    5    5    0    0 -0.60630755578E+01 -0.30035171086E+02  0.13171911781E+02  0.33352236017E+02  0.00000000000E+00 0. -1.
        -12    1    5    5    0    0 -0.78026065714E+01  0.43463210440E+02  0.77778528158E+02  0.89439536971E+02  0.00000000000E+00 0.  1.
          5    1    4    4  501    0  0.49230750240E+02  0.23278687460E+02  0.27913015121E+02  0.61336554127E+02  0.41800000000E+01 0.  1.
         -5    1    4    4    0  501 -0.63057892547E+02 -0.15740595538E+02 -0.10397973757E+02  0.65951909893E+02  0.41800000000E+01 0.  1.
</event>
<event>
11    1  0.8299058E-009  0.1823138E+03  0.7561462E-02  0.1067786E+00
         22   -1    0    0    0    0  0.00000000000E+00  0.00000000000E+00  0.17564558825E+04  0.17564558825E+04  0.00000000000E+00 0. -1.
         22   -1    0    0    0    0 -0.00000000000E+00 -0.00000000000E+00 -0.22393823152E+03  0.22393823152E+03  0.00000000000E+00 0. -1.
         24    2    1    2    0    0  0.74993861906E+01  0.13345122953E+03 -0.17188750814E+03  0.23205542628E+03  0.80242968258E+02 0.  0.
         25    2    1    2    0    0 -0.45527908076E+02 -0.11669546597E+03  0.35936702586E+03  0.40060588367E+03  0.12509913094E+03 0.  0.
        -24    2    1    2    0    0  0.38028521886E+02 -0.16755763560E+02  0.13450381333E+04  0.13477328041E+04  0.74358638719E+02 0.  0.
        -11    1    3    3    0    0 -0.15279623719E+02 -0.66420515013E+00 -0.36934054419E+01  0.15733699922E+02  0.00000000000E+00 0.  1.
         12    1    3    3    0    0  0.22779009909E+02  0.13411543468E+03 -0.16819410270E+03  0.21632172636E+03  0.00000000000E+00 0. -1.
         11    1    5    5    0    0  0.36245992360E+02 -0.12520279252E+02  0.13411926899E+04  0.13417407950E+04  0.00000000000E+00 0. -1.
        -12    1    5    5    0    0  0.17825295262E+01 -0.42354843071E+01  0.38454433621E+01  0.59920091354E+01  0.00000000000E+00 0.  1.
          5    1    4    4  501    0 -0.14961713364E+02 -0.89970518170E+02  0.90136312791E+02  0.12829876964E+03  0.41800000000E+01 0. -1.
         -5    1    4    4    0  501 -0.30566194712E+02 -0.26724947805E+02  0.26923071306E+03  0.27230711403E+03  0.41800000000E+01 0. -1.
</event>
<event>
11    1  0.8299058E-009  0.1624221E+03  0.7561462E-02  0.1084821E+00
         22   -1    0    0    0    0  0.00000000000E+00  0.00000000000E+00  0.18394632300E+03  0.18394632300E+03  0.00000000000E+00 0. -1.
         22   -1    0    0    0    0 -0.00000000000E+00 -0.00000000000E+00 -0.22532363118E+04  0.22532363118E+04  0.00000000000E+00 0. -1.
        -24    2    1    2    0    0  0.70660725428E+02  0.74445230900E+02 -0.20675015304E+04  0.20715905907E+04  0.79937266175E+02 0.  0.
         25    2    1    2    0    0 -0.29464964801E+02  0.39460555807E+02 -0.11853568426E+03  0.17923121684E+03  0.12509117088E+03 0.  0.
         24    2    1    2    0    0 -0.41195760626E+02 -0.11390578671E+03  0.11674722592E+03  0.18636082724E+03  0.80179949065E+02 0.  0.
        -11    1    5    5    0    0 -0.53952664243E+02 -0.35991589597E+02  0.39683965480E+02  0.76033555861E+02  0.00000000000E+00 0.  1.
         12    1    5    5    0    0  0.12756903617E+02 -0.77914197110E+02  0.77063260441E+02  0.11032727138E+03  0.00000000000E+00 0. -1.
         11    1    3    3    0    0 -0.20844948393E+01  0.16440478485E+02 -0.97316189763E+03  0.97330299160E+03  0.00000000000E+00 0. -1.
        -12    1    3    3    0    0  0.72745220267E+02  0.58004752415E+02 -0.10943396328E+04  0.10982875991E+04  0.00000000000E+00 0.  1.
          5    1    4    4  501    0 -0.29242489385E+02 -0.18429812841E+02 -0.11602382064E+03  0.12113538105E+03  0.41800000000E+01 0. -1.
         -5    1    4    4    0  501 -0.22247541626E+00  0.57890368648E+02 -0.25118636234E+01  0.58095835792E+02  0.41800000000E+01 0. -1.
</event>
<event>
11    1  0.8299058E-009  0.1334595E+03  0.7561462E-02  0.1115090E+00
         22   -1    0    0    0    0  0.00000000000E+00  0.00000000000E+00  0.85743747308E+03  0.85743747308E+03  0.00000000000E+00 0.  1.
         22   -1    0    0    0    0 -0.00000000000E+00 -0.00000000000E+00 -0.69217269208E+03  0.69217269208E+03  0.00000000000E+00 0.  1.
        -24    2    1    2    0    0 -0.23979522307E+02 -0.34815587945E+02 -0.65357454511E+03  0.66007213393E+03  0.82148605112E+02 0.  0.
         25    2    1    2    0    0 -0.93870095826E+01 -0.26993329820E+01  0.89855558046E+02  0.15432838777E+03  0.12509127712E+03 0.  0.
         24    2    1    2    0    0  0.33366531890E+02  0.37514920927E+02  0.72898376806E+03  0.73520964346E+03  0.81210781269E+02 0.  0.
        -11    1    5    5    0    0  0.46986725968E+02  0.54738470441E+02  0.60627062811E+03  0.61054739953E+03  0.00000000000E+00 0.  1.
         12    1    5    5    0    0 -0.13620194078E+02 -0.17223549514E+02  0.12271313995E+03  0.12466224393E+03  0.00000000000E+00 0. -1.
         13    1    3    3    0    0  0.58867039370E+00  0.80655263136E+01 -0.46679455167E+03  0.46686459784E+03  0.00000000000E+00 0. -1.
        -14    1    3    3    0    0 -0.24568192701E+02 -0.42881114259E+02 -0.18677999344E+03  0.19320753609E+03  0.00000000000E+00 0.  1.
          5    1    4    4  501    0 -0.33011295379E+02  0.12244090606E+02 -0.20128055519E+02  0.40770999453E+02  0.41800000000E+01 0.  1.
         -5    1    4    4    0  501  0.23624285796E+02 -0.14943423588E+02  0.10998361357E+03  0.11355738831E+03  0.41800000000E+01 0.  1.
</event>
<event>
11    1  0.8299058E-009  0.1383426E+03  0.7561462E-02  0.1109423E+00
         22   -1    0    0    0    0  0.00000000000E+00  0.00000000000E+00  0.14206700225E+03  0.14206700225E+03  0.00000000000E+00 0. -1.
         22   -1    0    0    0    0 -0.00000000000E+00 -0.00000000000E+00 -0.99501980188E+03  0.99501980188E+03  0.00000000000E+00 0. -1.
        -24    2    1    2    0    0  0.27149541559E+02  0.51943300319E+02 -0.83971692270E+03  0.84582951505E+03  0.82872517831E+02 0.  0.
         25    2    1    2    0    0 -0.22687971130E+02 -0.60723907474E+02 -0.96954835147E+02  0.17103863431E+03  0.12510730353E+03 0.  0.
         24    2    1    2    0    0 -0.44615704286E+01  0.87806071553E+01  0.83718958222E+02  0.12021865477E+03  0.85712638018E+02 0.  0.
        -13    1    5    5    0    0  0.37314574471E+02  0.19428135809E+02  0.31811833839E+02  0.52742987223E+02  0.00000000000E+00 0.  1.
         14    1    5    5    0    0 -0.41776144900E+02 -0.10647528654E+02  0.51907124383E+02  0.67475667547E+02  0.00000000000E+00 0. -1.
         13    1    3    3    0    0  0.10396476882E+01  0.67267365406E+02 -0.45810012341E+03  0.46301371727E+03  0.00000000000E+00 0. -1.
        -14    1    3    3    0    0  0.26109893870E+02 -0.15324065087E+02 -0.38161679930E+03  0.38281579778E+03  0.00000000000E+00 0.  1.
          5    1    4    4  501    0 -0.33130036339E+02  0.32621704102E+02 -0.36514022288E+02  0.59266526050E+02  0.41800000000E+01 0. -1.
         -5    1    4    4    0  501  0.10442065209E+02 -0.93345611576E+02 -0.60440812859E+02  0.11177210826E+03  0.41800000000E+01 0. -1.
</event>
<event>
11    1  0.8299058E-009  0.1514600E+03  0.7561462E-02  0.1095396E+00
         22   -1    0    0    0    0  0.00000000000E+00  0.00000000000E+00  0.14526399913E+03  0.14526399913E+03  0.00000000000E+00 0.  1.
         22   -1    0    0    0    0 -0.00000000000E+00 -0.00000000000E+00 -0.15965854214E+04  0.15965854214E+04  0.00000000000E+00 0.  1.
         24    2    1    2    0    0  0.56608340608E+02 -0.66772198296E+02 -0.10306613913E+04  0.10385990632E+04  0.93605981933E+02 0.  0.
         25    2    1    2    0    0 -0.47990724574E+02  0.64134797823E+02 -0.53911369578E+03  0.55920178439E+03  0.12508667694E+03 0.  0.
        -24    2    1    2    0    0 -0.86176160335E+01  0.26374004729E+01  0.11845366484E+03  0.14404857291E+03  0.81470862616E+02 0.  0.
        -11    1    3    3    0    0  0.26866132249E+02 -0.23273898691E+02 -0.84107713852E+03  0.84182790187E+03  0.00000000000E+00 0.  1.
         12    1    3    3    0    0  0.29742208359E+02 -0.43498299604E+02 -0.18958425279E+03  0.19677116134E+03  0.00000000000E+00 0. -1.
         13    1    5    5    0    0 -0.32924552245E+02 -0.27737332786E+02  0.60906860072E+02  0.74585731708E+02  0.00000000000E+00 0. -1.
        -14    1    5    5    0    0  0.24306936212E+02  0.30374733259E+02  0.57546804770E+02  0.69462841202E+02  0.00000000000E+00 0.  1.
          5    1    4    4  501    0  0.16801528128E+02  0.21369159238E+02 -0.39061800856E+03  0.39158502694E+03  0.41800000000E+01 0.  1.
         -5    1    4    4    0  501 -0.64792252702E+02  0.42765638584E+02 -0.14849568723E+03  0.16761675745E+03  0.41800000000E+01 0.  1.
</event>
<event>
11    1  0.8299058E-009  0.1627486E+03  0.7561462E-02  0.1084520E+00
         22   -1    0    0    0    0  0.00000000000E+00  0.00000000000E+00  0.21812291426E+04  0.21812291426E+04  0.00000000000E+00 0. -1.
         22   -1    0    0    0    0 -0.00000000000E+00 -0.00000000000E+00 -0.27505168582E+03  0.27505168582E+03  0.00000000000E+00 0. -1.
         24    2    1    2    0    0 -0.14004822950E+02  0.48513129315E+01 -0.25616705182E+03  0.26969520270E+03  0.83031762681E+02 0.  0.
         25    2    1    2    0    0  0.62643248760E+02 -0.93801147048E+02  0.76735024038E+03  0.78561882895E+03  0.12509085174E+03 0.  0.
        -24    2    1    2    0    0 -0.48638425811E+02  0.88949834117E+02  0.13949942682E+04  0.14009667967E+04  0.80132314470E+02 0.  0.
        -11    1    3    3    0    0 -0.73114255586E+01 -0.32121041406E+02 -0.48331434429E+02  0.58490561620E+02  0.00000000000E+00 0.  1.
         12    1    3    3    0    0 -0.66933973912E+01  0.36972354337E+02 -0.20783561739E+03  0.21120464108E+03  0.00000000000E+00 0. -1.
         11    1    5    5    0    0 -0.49209361849E+02  0.24241696179E+02  0.91321539752E+03  0.91486151050E+03  0.00000000000E+00 0. -1.
        -12    1    5    5    0    0  0.57093603846E+00  0.64708137937E+02  0.48177887065E+03  0.48610528622E+03  0.00000000000E+00 0.  1.
          5    1    4    4  501    0  0.10554412998E+02  0.31057917919E+02  0.14656421096E+03  0.15024822872E+03  0.41800000000E+01 0.  1.
         -5    1    4    4    0  501  0.52088835762E+02 -0.12485906497E+03  0.62078602941E+03  0.63537060022E+03  0.41800000000E+01 0.  1.
</event>
<event>
11    1  0.8299058E-009  0.1672323E+03  0.7561462E-02  0.1080466E+00
         22   -1    0    0    0    0  0.00000000000E+00  0.00000000000E+00  0.20526339369E+04  0.20526339369E+04  0.00000000000E+00 0.  1.
         22   -1    0    0    0    0 -0.00000000000E+00 -0.00000000000E+00 -0.11999558332E+03  0.11999558332E+03  0.00000000000E+00 0.  1.
        -24    2    1    2    0    0 -0.10878348362E+03 -0.17286097493E+02 -0.59769934182E+02  0.15036968799E+03  0.83102000936E+02 0.  0.
         25    2    1    2    0    0  0.10922958419E+03  0.10847706782E+03  0.83369099520E+03  0.85696338252E+03  0.12508871734E+03 0.  0.
         24    2    1    2    0    0 -0.44610056150E+00 -0.91190970325E+02  0.11587172925E+04  0.11652964497E+04  0.83510834905E+02 0.  0.
        -11    1    5    5    0    0  0.24279722121E+02 -0.27163627759E+02  0.74775714901E+03  0.74864418883E+03  0.00000000000E+00 0.  1.
         12    1    5    5    0    0 -0.24725822682E+02 -0.64027342566E+02  0.41096014352E+03  0.41665226085E+03  0.00000000000E+00 0. -1.
         11    1    3    3    0    0 -0.94839828464E+02 -0.29699325709E+02 -0.13271389678E+02  0.10026351677E+03  0.00000000000E+00 0. -1.
        -12    1    3    3    0    0 -0.13943655160E+02  0.12413228216E+02 -0.46498544505E+02  0.50106171227E+02  0.00000000000E+00 0.  1.
          5    1    4    4  501    0 -0.18651942556E+02  0.24288444116E+01  0.23032671577E+03  0.23113126713E+03  0.41800000000E+01 0. -1.
         -5    1    4    4    0  501  0.12788152674E+03  0.10604822341E+03  0.60336427943E+03  0.62583211540E+03  0.41800000000E+01 0. -1.
</event>
<event>
11    1  0.8299058E-009  0.3658397E+03  0.7561462E-02  0.9756300E-01
         22   -1    0    0    0    0  0.00000000000E+00  0.00000000000E+00  0.30328261812E+03  0.30328261812E+03  0.00000000000E+00 0. -1.
         22   -1    0    0    0    0 -0.00000000000E+00 -0.00000000000E+00 -0.28694446453E+04  0.28694446453E+04  0.00000000000E+00 0. -1.
        -24    2    1    2    0    0  0.65876565898E+02  0.35058650195E+03 -0.25769878774E+04  0.26028231783E+04  0.81063925493E+02 0.  0.
         25    2    1    2    0    0 -0.80301378669E+02 -0.25102153137E+03 -0.17768086909E+03  0.34158187266E+03  0.12509022289E+03 0.  0.
         24    2    1    2    0    0  0.14424812771E+02 -0.99564970576E+02  0.18850671931E+03  0.22832221246E+03  0.80467328066E+02 0.  0.
        -13    1    5    5    0    0 -0.18995348250E+02 -0.37617963069E+01  0.74013419010E+01  0.20730514430E+02  0.00000000000E+00 0.  1.
         14    1    5    5    0    0  0.33420161021E+02 -0.95803174269E+02  0.18110537741E+03  0.20759169803E+03  0.00000000000E+00 0. -1.
         13    1    3    3    0    0  0.42449065581E+02  0.10593867845E+03 -0.61471646138E+03  0.62522096466E+03  0.00000000000E+00 0. -1.
        -14    1    3    3    0    0  0.23427500317E+02  0.24464782350E+03 -0.19622714160E+04  0.19776022136E+04  0.00000000000E+00 0.  1.
          5    1    4    4  501    0  0.12424669057E+02 -0.40741571689E+02  0.11016062853E+02  0.44193598017E+02  0.41800000000E+01 0. -1.
         -5    1    4    4    0  501 -0.92726047726E+02 -0.21027995968E+03 -0.18869693194E+03  0.29738827464E+03  0.41800000000E+01 0. -1.
</event>
<event>
11    1  0.8299058E-009  0.1445613E+03  0.7561462E-02  0.1102569E+00
         22   -1    0    0    0    0  0.00000000000E+00  0.00000000000E+00  0.17032433189E+04  0.17032433189E+04  0.00000000000E+00 0.  1.
         22   -1    0    0    0    0 -0.00000000000E+00 -0.00000000000E+00 -0.12329641687E+03  0.12329641687E+03  0.00000000000E+00 0. -1.
        -24    2    1    2    0    0  0.41060284530E+02  0.23108182188E+02 -0.89512856618E+02  0.12827076560E+03  0.78872699699E+02 0.  0.
         25    2    1    2    0    0 -0.76854916784E+02  0.39335226634E+02  0.46879860667E+03  0.49282192804E+03  0.12508949138E+03 0.  0.
         24    2    1    2    0    0  0.35794632253E+02 -0.62443408822E+02  0.12006611520E+04  0.12054470422E+04  0.79592301829E+02 0.  0.
        -13    1    5    5    0    0 -0.42970628429E+01 -0.54422266554E+02  0.39568083569E+03  0.39942905700E+03  0.00000000000E+00 0.  1.
         14    1    5    5    0    0  0.40091695096E+02 -0.80211422682E+01  0.80498031633E+03  0.80601798517E+03  0.00000000000E+00 0. -1.
         11    1    3    3    0    0  0.13075395635E+02 -0.17206563911E+02 -0.73557558012E+02  0.76666460420E+02  0.00000000000E+00 0. -1.
        -12    1    3    3    0    0  0.27984888895E+02  0.40314746099E+02 -0.15955298606E+02  0.51604305180E+02  0.00000000000E+00 0.  1.
          5    1    4    4  501    0 -0.77136653037E+02  0.11656932748E+02  0.45491510577E+03  0.46157466696E+03  0.41800000000E+01 0.  1.
         -5    1    4    4    0  501  0.28173625294E+00  0.27678293886E+02  0.13883500900E+02  0.31247261080E+02  0.41800000000E+01 0.  1.
</event>
<event>
11    1  0.8299058E-009  0.1608999E+03  0.7561462E-02  0.1086234E+00
         22   -1    0    0    0    0  0.00000000000E+00  0.00000000000E+00  0.67183141810E+03  0.67183141810E+03  0.00000000000E+00 0.  1.
         22   -1    0    0    0    0 -0.00000000000E+00 -0.00000000000E+00 -0.16018392788E+04  0.16018392788E+04  0.00000000000E+00 0. -1.
         24    2    1    2    0    0 -0.28627338110E+02 -0.99140574208E+02 -0.15400560797E+04  0.15455818998E+04  0.80014388153E+02 0.  0.
         25    2    1    2    0    0 -0.23798865357E+02  0.49230582063E+02  0.30378083599E+02  0.13983436727E+03  0.12506312848E+03 0.  0.
        -24    2    1    2    0    0  0.52426203467E+02  0.49909992145E+02  0.57967013540E+03  0.58825442986E+03  0.69183048876E+02 0.  0.
        -13    1    3    3    0    0 -0.11330426618E+02 -0.15605806579E+00 -0.28218696178E+02  0.30408843047E+02  0.00000000000E+00 0.  1.
         14    1    3    3    0    0 -0.17296911492E+02 -0.98984516142E+02 -0.15118373835E+04  0.15151730567E+04  0.00000000000E+00 0. -1.
         13    1    5    5    0    0  0.36120401016E+02 -0.32530707644E+01  0.35320973283E+03  0.35506672782E+03  0.00000000000E+00 0. -1.
        -14    1    5    5    0    0  0.16305802451E+02  0.53163062909E+02  0.22646040257E+03  0.23318770204E+03  0.00000000000E+00 0.  1.
          5    1    4    4  501    0 -0.15010641225E+02 -0.41889080444E+02  0.13185275038E+02  0.46597621058E+02  0.41800000000E+01 0.  1.
         -5    1    4    4    0  501 -0.87882241323E+01  0.91119662507E+02  0.17192808561E+02  0.93236746217E+02  0.41800000000E+01 0.  1.
</event>
<event>
11    1  0.8299058E-009  0.1459188E+03  0.7561462E-02  0.1101123E+00
         22   -1    0    0    0    0  0.00000000000E+00  0.00000000000E+00  0.22165020154E+03  0.22165020154E+03  0.00000000000E+00 0. -1.
         22   -1    0    0    0    0 -0.00000000000E+00 -0.00000000000E+00 -0.30905330874E+03  0.30905330874E+03  0.00000000000E+00 0.  1.
         24    2    1    2    0    0  0.44355554176E+01  0.63139494244E+01 -0.20429173311E+03  0.21949079431E+03  0.79884644696E+02 0.  0.
         25    2    1    2    0    0  0.69214523593E+02  0.14115938677E+02 -0.77435020363E+01  0.14386760473E+03  0.12509202959E+03 0.  0.
        -24    2    1    2    0    0 -0.73650079011E+02 -0.20429888101E+02  0.12463212795E+03  0.16734511124E+03  0.81421769029E+02 0.  0.
        -13    1    3    3    0    0 -0.20501580770E+02  0.24800473915E+02 -0.17088439192E+03  0.17388747431E+03  0.00000000000E+00 0.  1.
         14    1    3    3    0    0  0.24937136188E+02 -0.18486524491E+02 -0.33407341189E+02  0.45603319992E+02  0.00000000000E+00 0. -1.
         11    1    5    5    0    0 -0.83805232937E+02 -0.14592114144E+02  0.12926893299E+03  0.15474722582E+03  0.00000000000E+00 0. -1.
        -12    1    5    5    0    0  0.10155153926E+02 -0.58377739567E+01 -0.46368050391E+01  0.12597885418E+02  0.00000000000E+00 0.  1.
          5    1    4    4  501    0  0.18474173916E+00  0.38963102017E+02 -0.46482898603E+02  0.60797119265E+02  0.41800000000E+01 0.  1.
         -5    1    4    4    0  501  0.69029781854E+02 -0.24847163341E+02  0.38739396567E+02  0.83070485464E+02  0.41800000000E+01 0.  1.
</event>
<event>
11    1  0.8299058E-009  0.1364423E+03  0.7561462E-02  0.1111597E+00
         22   -1    0    0    0    0  0.00000000000E+00  0.00000000000E+00  0.15163665335E+03  0.15163665335E+03  0.00000000000E+00 0. -1.
         22   -1    0    0    0    0 -0.00000000000E+00 -0.00000000000E+00 -0.28604386519E+04  0.28604386519E+04  0.00000000000E+00 0.  1.
        -24    2    1    2    0    0 -0.71802366225E+01  0.55061964111E+02 -0.27441317700E+04  0.27459144664E+04  0.81876185898E+02 0.  0.
         25    2    1    2    0    0 -0.13027609797E+02 -0.64228527146E+01 -0.50942200507E+02  0.13584603358E+03  0.12509222755E+03 0.  0.
         24    2    1    2    0    0  0.20207846419E+02 -0.48639111396E+02  0.86271972004E+02  0.13031480525E+03  0.82249468685E+02 0.  0.
        -11    1    5    5    0    0  0.30836599628E+02  0.12477983964E+02  0.17109021539E+02  0.37407413416E+02  0.00000000000E+00 0.  1.
         12    1    5    5    0    0 -0.10628753209E+02 -0.61117095360E+02  0.69162950464E+02  0.92907391832E+02  0.00000000000E+00 0. -1.
         13    1    3    3    0    0 -0.30392215359E+01 -0.94576799032E+01 -0.48471216729E+02  0.49478716919E+02  0.00000000000E+00 0. -1.
        -14    1    3    3    0    0 -0.41410150867E+01  0.64519644014E+02 -0.26956605533E+04  0.26964357495E+04  0.00000000000E+00 0.  1.
          5    1    4    4  501    0  0.81772470614E+01 -0.18229979061E+02 -0.88560829754E+02  0.90882850268E+02  0.41800000000E+01 0. -1.
         -5    1    4    4    0  501 -0.21204856858E+02  0.11807126346E+02  0.37618629247E+02  0.44963183310E+02  0.41800000000E+01 0. -1.
</event>
<event>
11    1  0.8299058E-009  0.1511054E+03  0.7561462E-02  0.1095755E+00
         22   -1    0    0    0    0  0.00000000000E+00  0.00000000000E+00  0.17936993538E+03  0.17936993538E+03  0.00000000000E+00 0.  1.
         22   -1    0    0    0    0 -0.00000000000E+00 -0.00000000000E+00 -0.15693331192E+04  0.15693331192E+04  0.00000000000E+00 0. -1.
         24    2    1    2    0    0  0.32248907452E+02 -0.53806173792E+02 -0.14192120805E+04  0.14228793126E+04  0.80545096354E+02 0.  0.
         25    2    1    2    0    0 -0.10954587594E+03  0.28232497239E+02 -0.62264125709E+02  0.17981937662E+03  0.12514317409E+03 0.  0.
        -24    2    1    2    0    0  0.77296968485E+02  0.25573676553E+02  0.91513022404E+02  0.14600436530E+03  0.79459468584E+02 0.  0.
        -11    1    3    3    0    0  0.34432629825E+02 -0.31418650187E+02 -0.31424149225E+03  0.31767979638E+03  0.00000000000E+00 0.  1.
         12    1    3    3    0    0 -0.21837223725E+01 -0.22387523605E+02 -0.11049705882E+04  0.11051995162E+04  0.00000000000E+00 0. -1.
         11    1    5    5    0    0  0.37334825300E+02  0.33838963936E+02  0.92334099067E+02  0.10518816716E+03  0.00000000000E+00 0. -1.
        -12    1    5    5    0    0  0.39962143185E+02 -0.82652873836E+01 -0.82107666276E+00  0.40816198137E+02  0.00000000000E+00 0.  1.
          5    1    4    4  501    0 -0.38413407718E+02  0.48788393064E+00  0.37683788304E+02  0.53975626204E+02  0.41800000000E+01 0.  1.
         -5    1    4    4    0  501 -0.71132468220E+02  0.27744613309E+02 -0.99947914012E+02  0.12584375041E+03  0.41800000000E+01 0.  1.
</event>
<event>
11    1  0.8299058E-009  0.2364163E+03  0.7561462E-02  0.1031395E+00
         22   -1    0    0    0    0  0.00000000000E+00  0.00000000000E+00  0.20798341435E+04  0.20798341435E+04  0.00000000000E+00 0.  1.
         22   -1    0    0    0    0 -0.00000000000E+00 -0.00000000000E+00 -0.86194226610E+03  0.86194226610E+03  0.00000000000E+00 0.  1.
        -24    2    1    2    0    0  0.74211518531E+02 -0.18608470496E+03 -0.83011487042E+03  0.85784893717E+03  0.81726580833E+02 0.  0.
         25    2    1    2    0    0 -0.91875164384E+02  0.20017145181E+03  0.96297061964E+03  0.99572586200E+03  0.12509165447E+03 0.  0.
         24    2    1    2    0    0  0.17663645853E+02 -0.14086746848E+02  0.10850361281E+04  0.10882016104E+04  0.79805417502E+02 0.  0.
        -13    1    5    5    0    0 -0.11694367739E+02  0.11393258957E+02  0.83518052571E+03  0.83534009548E+03  0.00000000000E+00 0.  1.
         14    1    5    5    0    0  0.29358013592E+02 -0.25480005805E+02  0.24985560244E+03  0.25286151492E+03  0.00000000000E+00 0. -1.
         13    1    3    3    0    0 -0.11608544225E+02 -0.55343757440E+02 -0.15910969802E+03  0.16885966301E+03  0.00000000000E+00 0. -1.
        -14    1    3    3    0    0  0.85820062756E+02 -0.13074094752E+03 -0.67100517240E+03  0.68898927417E+03  0.00000000000E+00 0.  1.
          5    1    4    4  501    0 -0.12069065511E+03  0.17223179229E+03  0.74869725935E+03  0.77768572255E+03  0.41800000000E+01 0.  1.
         -5    1    4    4    0  501  0.28815490730E+02  0.27939659518E+02  0.21427336029E+03  0.21804013944E+03  0.41800000000E+01 0.  1.
</event>
<event>
11    1  0.8299058E-009  0.1604246E+03  0.7561462E-02  0.1086679E+00
         22   -1    0    0    0    0  0.00000000000E+00  0.00000000000E+00  0.14549257851E+04  0.14549257851E+04  0.00000000000E+00 0.  1.
         22   -1    0    0    0    0 -0.00000000000E+00 -0.00000000000E+00 -0.11551181585E+03  0.11551181585E+03  0.00000000000E+00 0.  1.
        -24    2    1    2    0    0 -0.63459236679E+02 -0.27384277299E+02 -0.31996197898E+02  0.11463546214E+03  0.85677063080E+02 0.  0.
         25    2    1    2    0    0 -0.21478456412E+02 -0.35844388253E+02  0.73384029951E+02  0.15092839507E+03  0.12509204742E+03 0.  0.
         24    2    1    2    0    0  0.84937693091E+02  0.63228665552E+02  0.12980261372E+04  0.13048737437E+04  0.81310260201E+02 0.  0.
        -13    1    5    5    0    0  0.64543508893E+02  0.75145303701E+02  0.11983434702E+04  0.12024307688E+04  0.00000000000E+00 0.  1.
         14    1    5    5    0    0  0.20394184198E+02 -0.11916638149E+02  0.99682666952E+02  0.10244297489E+03  0.00000000000E+00 0. -1.
         13    1    3    3    0    0 -0.28251013753E+02  0.28067631777E+02 -0.28283815569E+02  0.48845531574E+02  0.00000000000E+00 0. -1.
        -14    1    3    3    0    0 -0.35208222926E+02 -0.55451909076E+02 -0.37123823290E+01  0.65789930569E+02  0.00000000000E+00 0.  1.
          5    1    4    4  501    0  0.30314834617E+02 -0.64544378425E+02  0.30359840609E+02  0.77615451464E+02  0.41800000000E+01 0. -1.
         -5    1    4    4    0  501 -0.51793291029E+02  0.28699990172E+02  0.43024189343E+02  0.73312943605E+02  0.41800000000E+01 0. -1.
</event>
<event>
11    1  0.8299058E-009  0.1541702E+03  0.7561462E-02  0.1092692E+00
         22   -1    0    0    0    0  0.00000000000E+00  0.00000000000E+00  0.11631243224E+04  0.11631243224E+04  0.00000000000E+00 0.  1.
         22   -1    0    0    0    0 -0.00000000000E+00 -0.00000000000E+00 -0.94948090350E+03  0.94948090350E+03  0.00000000000E+00 0. -1.
         24    2    1    2    0    0 -0.21199973389E+02  0.92101335191E+02 -0.91168334848E+03  0.92020822685E+03  0.81759146594E+02 0.  0.
         25    2    1    2    0    0  0.36824836593E+02  0.72107299110E+01  0.11496947194E+03  0.17399405336E+03  0.12509151814E+03 0.  0.
        -24    2    1    2    0    0 -0.15624863203E+02 -0.99312065102E+02  0.10103572954E+04  0.10184029457E+04  0.78839537752E+02 0.  0.
        -11    1    3    3    0    0 -0.28458471059E+02  0.35187781503E+01 -0.11246836664E+03  0.11606635977E+03  0.00000000000E+00 0.  1.
         12    1    3    3    0    0  0.72584976697E+01  0.88582557041E+02 -0.79921498184E+03  0.80414186709E+03  0.00000000000E+00 0. -1.
         13    1    5    5    0    0  0.15922685867E+02  0.56857902756E+01  0.19027422637E+03  0.19102392876E+03  0.00000000000E+00 0. -1.
        -14    1    5    5    0    0 -0.31547549071E+02 -0.10499785538E+03  0.82008306905E+03  0.82737901692E+03  0.00000000000E+00 0.  1.
          5    1    4    4  501    0  0.70497810296E+02  0.18441573738E+02  0.24946193196E+02  0.77135062412E+02  0.41800000000E+01 0.  1.
         -5    1    4    4    0  501 -0.33672973703E+02 -0.11230843827E+02  0.90023278746E+02  0.96858990947E+02  0.41800000000E+01 0.  1.
</event>
<event>
11    1  0.8299058E-009  0.1632216E+03  0.7561462E-02  0.1084086E+00
         22   -1    0    0    0    0  0.00000000000E+00  0.00000000000E+00  0.66625819933E+03  0.66625819933E+03  0.00000000000E+00 0.  1.
         22   -1    0    0    0    0 -0.00000000000E+00 -0.00000000000E+00 -0.16200824626E+04  0.16200824626E+04  0.00000000000E+00 0.  1.
         24    2    1    2    0    0  0.90809994483E+02 -0.33643996334E+02 -0.11660403048E+04  0.11728369289E+04  0.80734724447E+02 0.  0.
         25    2    1    2    0    0 -0.15957008291E+03  0.28659703214E+02 -0.42390502020E+03  0.47077273122E+03  0.12509000103E+03 0.  0.
        -24    2    1    2    0    0  0.68760088427E+02  0.49842931203E+01  0.63612106179E+03  0.64273100179E+03  0.60830440323E+02 0.  0.
        -11    1    3    3    0    0  0.62349805377E+02  0.17190262536E+02 -0.74196946242E+03  0.74478297947E+03  0.00000000000E+00 0.  1.
         12    1    3    3    0    0  0.28460189106E+02 -0.50834258870E+02 -0.42407084239E+03  0.42805394941E+03  0.00000000000E+00 0. -1.
         11    1    5    5    0    0  0.69915625803E+01 -0.97616731437E+01  0.32362474659E+03  0.32384741595E+03  0.00000000000E+00 0. -1.
        -12    1    5    5    0    0  0.61768525846E+02  0.14745966264E+02  0.31249631520E+03  0.31888358584E+03  0.00000000000E+00 0.  1.
          5    1    4    4  501    0 -0.10620844699E+03  0.22946531551E+02 -0.39495868963E+03  0.40965426452E+03  0.41800000000E+01 0.  1.
         -5    1    4    4    0  501 -0.53361635915E+02  0.57131716628E+01 -0.28946330571E+02  0.61118466698E+02  0.41800000000E+01 0.  1.
</event>
<event>
11    1  0.8299058E-009  0.1422528E+03  0.7561462E-02  0.1105069E+00
         22   -1    0    0    0    0  0.00000000000E+00  0.00000000000E+00  0.42936029462E+03  0.42936029462E+03  0.00000000000E+00 0. -1.
         22   -1    0    0    0    0 -0.00000000000E+00 -0.00000000000E+00 -0.37343672786E+03  0.37343672786E+03  0.00000000000E+00 0. -1.
        -24    2    1    2    0    0 -0.26762791434E+01 -0.23521698306E+02 -0.24708566974E+03  0.26074782868E+03  0.79860310586E+02 0.  0.
         25    2    1    2    0    0 -0.62032764669E+02  0.42607630217E+02 -0.64627484850E+02  0.15965057659E+03  0.12509244887E+03 0.  0.
         24    2    1    2    0    0  0.64709043812E+02 -0.19085931911E+02  0.36763672135E+03  0.38239861721E+03  0.80749058267E+02 0.  0.
        -11    1    5    5    0    0  0.57179778868E+02 -0.56246380375E+01  0.10824327079E+03  0.12254700867E+03  0.00000000000E+00 0.  1.
         12    1    5    5    0    0  0.75292649449E+01 -0.13461293873E+02  0.25939345057E+03  0.25985160854E+03  0.00000000000E+00 0. -1.
         13    1    3    3    0    0  0.20347973865E+02 -0.33536394074E+02 -0.58104777246E+02  0.70106311461E+02  0.00000000000E+00 0. -1.
        -14    1    3    3    0    0 -0.23024253008E+02  0.10014695768E+02 -0.18898089249E+03  0.19064151721E+03  0.00000000000E+00 0.  1.
          5    1    4    4  501    0  0.93166102608E+01  0.58904357441E+02  0.30774622266E+01  0.59862055812E+02  0.41800000000E+01 0.  1.
         -5    1    4    4    0  501 -0.71349374930E+02 -0.16296727225E+02 -0.67704947077E+02  0.99788520782E+02  0.41800000000E+01 0.  1.
</event>
<event>
11    1  0.8299058E-009  0.1442905E+03  0.7561462E-02  0.1102860E+00
         22   -1    0    0    0    0  0.00000000000E+00  0.00000000000E+00  0.83732288077E+03  0.83732288077E+03  0.00000000000E+00 0.  1.
         22   -1    0    0    0    0 -0.00000000000E+00 -0.00000000000E+00 -0.75136919755E+03  0.75136919755E+03  0.00000000000E+00 0.  1.
         24    2    1    2    0    0 -0.59948818430E+02 -0.40505995504E+02 -0.62997110764E+03  0.64023042457E+03  0.88299510681E+02 0.  0.
         25    2    1    2    0    0  0.93783510373E+02 -0.24234064614E+02 -0.56765948415E+02  0.16808451613E+03  0.12508954775E+03 0.  0.
        -24    2    1    2    0    0 -0.33834691943E+02  0.64740060118E+02  0.77269073927E+03  0.78037713763E+03  0.81249225345E+02 0.  0.
        -13    1    3    3    0    0  0.83220778871E+01 -0.19791567236E+02 -0.37073519843E+03  0.37135636587E+03  0.00000000000E+00 0.  1.
         14    1    3    3    0    0 -0.68270896317E+02 -0.20714428268E+02 -0.25923590920E+03  0.26887405870E+03  0.00000000000E+00 0. -1.
         13    1    5    5    0    0 -0.13515134550E+02  0.57709798598E+02  0.23852641647E+03  0.24578024955E+03  0.00000000000E+00 0. -1.
        -14    1    5    5    0    0 -0.20319557393E+02  0.70302615204E+01  0.53416432281E+03  0.53459688808E+03  0.00000000000E+00 0.  1.
          5    1    4    4  501    0 -0.28170076889E+02 -0.22279996807E+02 -0.12196483745E+02  0.38159901800E+02  0.41800000000E+01 0.  1.
         -5    1    4    4    0  501  0.12195358726E+03 -0.19540678071E+01 -0.44569464670E+02  0.12992461433E+03  0.41800000000E+01 0.  1.
</event>
<event>
11    1  0.8299058E-009  0.2373692E+03  0.7561462E-02  0.1030852E+00
         22   -1    0    0    0    0  0.00000000000E+00  0.00000000000E+00  0.60642471983E+03  0.60642471983E+03  0.00000000000E+00 0.  1.
         22   -1    0    0    0    0 -0.00000000000E+00 -0.00000000000E+00 -0.12888340461E+04  0.12888340461E+04  0.00000000000E+00 0. -1.
         24    2    1    2    0    0  0.36814999937E+01 -0.64989355449E+02 -0.10699418321E+04  0.10746431350E+04  0.76453737125E+02 0.  0.
         25    2    1    2    0    0  0.19118504599E+03  0.11182511277E+03 -0.11066914297E+03  0.27740308036E+03  0.12509289401E+03 0.  0.
        -24    2    1    2    0    0 -0.19486654598E+03 -0.46835757324E+02  0.49820164879E+03  0.54321255050E+03  0.81905025802E+02 0.  0.
        -11    1    3    3    0    0  0.37159058435E+02 -0.18562559537E+02 -0.35729207664E+03  0.35969847411E+03  0.00000000000E+00 0.  1.
         12    1    3    3    0    0 -0.33477558441E+02 -0.46426795912E+02 -0.71264975542E+03  0.71494466094E+03  0.00000000000E+00 0. -1.
         11    1    5    5    0    0 -0.73675861269E+02 -0.44695656453E+02  0.13350233760E+03  0.15889842159E+03  0.00000000000E+00 0. -1.
        -12    1    5    5    0    0 -0.12119068471E+03 -0.21401008709E+01  0.36469931119E+03  0.38431412891E+03  0.00000000000E+00 0.  1.
          5    1    4    4  501    0 -0.10683329853E+02 -0.83640198556E+01 -0.22144504111E+02  0.26304787154E+02  0.41800000000E+01 0. -1.
         -5    1    4    4    0  501  0.20186837584E+03  0.12018913263E+03 -0.88524638858E+02  0.25109829321E+03  0.41800000000E+01 0. -1.
</event>
<event>
11    1  0.8299058E-009  0.1411538E+03  0.7561462E-02  0.1106277E+00
         22   -1    0    0    0    0  0.00000000000E+00  0.00000000000E+00  0.16850048535E+04  0.16850048535E+04  0.00000000000E+00 0. -1.
         22   -1    0    0    0    0 -0.00000000000E+00 -0.00000000000E+00 -0.81452169054E+03  0.81452169054E+03  0.00000000000E+00 0.  1.
        -24    2    1    2    0    0  0.57926192290E+01  0.59805819711E+01 -0.75712795517E+03  0.76148615354E+03  0.80926508211E+02 0.  0.
         25    2    1    2    0    0 -0.16556976466E+02 -0.70269135190E+02  0.44032836013E+02  0.15099042374E+03  0.12508929844E+03 0.  0.
         24    2    1    2    0    0  0.10764357236E+02  0.64288553218E+02  0.15835782821E+04  0.15870499668E+04  0.82210290992E+02 0.  0.
        -13    1    5    5    0    0 -0.33392739502E+02  0.10090122408E+02  0.49155595127E+03  0.49279218627E+03  0.00000000000E+00 0.  1.
         14    1    5    5    0    0  0.44157096739E+02  0.54198430810E+02  0.10920223309E+04  0.10942577805E+04  0.00000000000E+00 0. -1.
         13    1    3    3    0    0  0.26921451269E+02  0.29046406986E+02 -0.22644691918E+03  0.22988402620E+03  0.00000000000E+00 0. -1.
        -14    1    3    3    0    0 -0.21128832040E+02 -0.23065825015E+02 -0.53068103599E+03  0.53160212733E+03  0.00000000000E+00 0.  1.
          5    1    4    4  501    0  0.29512869499E+02 -0.75344213111E+02 -0.77180896531E+01  0.81392881896E+02  0.41800000000E+01 0. -1.
         -5    1    4    4    0  501 -0.46069845965E+02  0.50750779217E+01  0.51750925666E+02  0.69597541842E+02  0.41800000000E+01 0. -1.
</event>
<event>
11    1  0.8299058E-009  0.4338494E+03  0.7561462E-02  0.9554846E-01
         22   -1    0    0    0    0  0.00000000000E+00  0.00000000000E+00  0.38576872689E+03  0.38576872689E+03  0.00000000000E+00 0.  1.
         22   -1    0    0    0    0 -0.00000000000E+00 -0.00000000000E+00 -0.25139840938E+04  0.25139840938E+04  0.00000000000E+00 0.  1.
         24    2    1    2    0    0  0.10938163042E+03 -0.40789571754E+03 -0.23248402911E+04  0.23641282311E+04  0.76659354281E+02 0.  0.
         25    2    1    2    0    0 -0.66133490092E+02  0.33097856266E+03  0.79848933035E+02  0.36870470756E+03  0.12508741669E+03 0.  0.
        -24    2    1    2    0    0 -0.43248140324E+02  0.76917154878E+02  0.11677599112E+03  0.16691988204E+03  0.80243158977E+02 0.  0.
        -11    1    3    3    0    0  0.29677255446E+02 -0.67512851106E+02 -0.27630503511E+03  0.28597761622E+03  0.00000000000E+00 0.  1.
         12    1    3    3    0    0  0.79704374971E+02 -0.34038286643E+03 -0.20485352560E+04  0.20781506149E+04  0.00000000000E+00 0. -1.
         13    1    5    5    0    0  0.75282678926E+00  0.62180186208E+02  0.99642494178E+02  0.11745453993E+03  0.00000000000E+00 0. -1.
        -14    1    5    5    0    0 -0.44000967113E+02  0.14736968670E+02  0.17133496946E+02  0.49465342110E+02  0.00000000000E+00 0.  1.
          5    1    4    4  501    0  0.36518198883E+02  0.11550606972E+03  0.24661835557E+02  0.12369684525E+03  0.41800000000E+01 0. -1.
         -5    1    4    4    0  501 -0.10265168898E+03  0.21547249294E+03  0.55187097477E+02  0.24500786231E+03  0.41800000000E+01 0. -1.
</event>
<event>
11    1  0.8299058E-009  0.1493796E+03  0.7561462E-02  0.1097514E+00
         22   -1    0    0    0    0  0.00000000000E+00  0.00000000000E+00  0.10766174490E+04  0.10766174490E+04  0.00000000000E+00 0. -1.
         22   -1    0    0    0    0 -0.00000000000E+00 -0.00000000000E+00 -0.29176921744E+03  0.29176921744E+03  0.00000000000E+00 0.  1.
         24    2    1    2    0    0 -0.68716456826E+02 -0.34744011100E+02 -0.22279958329E+03  0.24806748227E+03  0.77257515491E+02 0.  0.
         25    2    1    2    0    0  0.13380646606E+03  0.57809002013E+02  0.12052531455E+03  0.22676022761E+03  0.12509115997E+03 0.  0.
        -24    2    1    2    0    0 -0.65090009235E+02 -0.23064990913E+02  0.88712250028E+03  0.89355895654E+03  0.81808160959E+02 0.  0.
        -11    1    3    3    0    0 -0.63157446657E+02 -0.31604729115E+02 -0.22871100417E+03  0.23936675918E+03  0.00000000000E+00 0.  1.
         12    1    3    3    0    0 -0.55590101692E+01 -0.31392819850E+01  0.59114208827E+01  0.87007230904E+01  0.00000000000E+00 0. -1.
         11    1    5    5    0    0 -0.37519253560E+01 -0.40907416888E+02  0.43693446830E+03  0.43886128023E+03  0.00000000000E+00 0. -1.
        -12    1    5    5    0    0 -0.61338083879E+02  0.17842425974E+02  0.45018803198E+03  0.45469767631E+03  0.00000000000E+00 0.  1.
          5    1    4    4  501    0  0.10668126844E+03  0.14359254361E+02  0.14187164396E+02  0.10865463292E+03  0.41800000000E+01 0. -1.
         -5    1    4    4    0  501  0.27125197622E+02  0.43449747652E+02  0.10633815016E+03  0.11810559469E+03  0.41800000000E+01 0. -1.
</event>
<event>
11    1  0.8299058E-009  0.1632805E+03  0.7561462E-02  0.1084032E+00
         22   -1    0    0    0    0  0.00000000000E+00  0.00000000000E+00  0.15639426580E+04  0.15639426580E+04  0.00000000000E+00 0.  1.
         22   -1    0    0    0    0 -0.00000000000E+00 -0.00000000000E+00 -0.56465584023E+03  0.56465584023E+03  0.00000000000E+00 0.  1.
        -24    2    1    2    0    0 -0.36514636742E+02 -0.98865497982E+02 -0.53222316570E+03  0.54863363677E+03  0.81422748040E+02 0.  0.
         25    2    1    2    0    0  0.94853076742E+02  0.56636555293E+02  0.29648828918E+03  0.34023876339E+03  0.12510917206E+03 0.  0.
         24    2    1    2    0    0 -0.58338440000E+02  0.42228942690E+02  0.12350216943E+04  0.12397260981E+04  0.80346472720E+02 0.  0.
        -13    1    5    5    0    0 -0.43975495545E+02  0.13654552802E+01  0.98486284604E+03  0.98584508630E+03  0.00000000000E+00 0.  1.
         14    1    5    5    0    0 -0.14362944456E+02  0.40863487409E+02  0.25015884824E+03  0.25388101176E+03  0.00000000000E+00 0. -1.
         11    1    3    3    0    0  0.19602083790E+02 -0.32661461590E+02 -0.86142077078E+02  0.94188482340E+02  0.00000000000E+00 0. -1.
        -12    1    3    3    0    0 -0.56116720532E+02 -0.66204036392E+02 -0.44608108862E+03  0.45444515443E+03  0.00000000000E+00 0.  1.
          5    1    4    4  501    0  0.36764904891E+02  0.71222687023E+02  0.25481358730E+03  0.26715494765E+03  0.41800000000E+01 0. -1.
         -5    1    4    4    0  501  0.58088171851E+02 -0.14586131731E+02  0.41674701874E+02  0.73083815747E+02  0.41800000000E+01 0. -1.
</event>
<event>
11    1  0.8299058E-009  0.1475742E+03  0.7561462E-02  0.1099384E+00
         22   -1    0    0    0    0  0.00000000000E+00  0.00000000000E+00  0.30954908402E+04  0.30954908402E+04  0.00000000000E+00 0.  1.
         22   -1    0    0    0    0 -0.00000000000E+00 -0.00000000000E+00 -0.14164378207E+03  0.14164378207E+03  0.00000000000E+00 0. -1.
         24    2    1    2    0    0 -0.71695930598E+02 -0.81876173035E+01 -0.91154741523E+02  0.14184427481E+03  0.81260493798E+02 0.  0.
         25    2    1    2    0    0 -0.58725202056E+01  0.32019612573E+02  0.14955760370E+03  0.19767296125E+03  0.12508949078E+03 0.  0.
        -24    2    1    2    0    0  0.77568450804E+02 -0.23831995270E+02  0.28954441960E+04  0.28976173862E+04  0.77489331123E+02 0.  0.
        -13    1    3    3    0    0 -0.19431400708E+02  0.81039749793E+01  0.12597546533E+02  0.24534708529E+02  0.00000000000E+00 0.  1.
         14    1    3    3    0    0 -0.52264529890E+02 -0.16291592283E+02 -0.10375228806E+03  0.11730956628E+03  0.00000000000E+00 0. -1.
         13    1    5    5    0    0  0.17667176837E+02 -0.36991465886E+01  0.11114770848E+03  0.11260384506E+03  0.00000000000E+00 0. -1.
        -14    1    5    5    0    0  0.59901273967E+02 -0.20132848681E+02  0.27842964875E+04  0.27850135412E+04  0.00000000000E+00 0.  1.
          5    1    4    4  501    0 -0.18391686085E+01 -0.39812313043E+02  0.10634276361E+03  0.11364267941E+03  0.41800000000E+01 0. -1.
         -5    1    4    4    0  501 -0.40333515971E+01  0.71831925616E+02  0.43214840084E+02  0.84030281841E+02  0.41800000000E+01 0. -1.
</event>
<event>
11    1  0.8299058E-009  0.1436327E+03  0.7561462E-02  0.1103568E+00
         22   -1    0    0    0    0  0.00000000000E+00  0.00000000000E+00  0.80516847936E+02  0.80516847936E+02  0.00000000000E+00 0.  1.
         22   -1    0    0    0    0 -0.00000000000E+00 -0.00000000000E+00 -0.21566365351E+04  0.21566365351E+04  0.00000000000E+00 0. -1.
        -24    2    1    2    0    0 -0.18406607337E+01  0.10845828944E+02 -0.13321788463E+04  0.13346453928E+04  0.80354377093E+02 0.  0.
         25    2    1    2    0    0  0.34771061984E+02 -0.72710137217E+02 -0.77665840578E+03  0.79078589113E+03  0.12509298756E+03 0.  0.
         24    2    1    2    0    0 -0.32930401250E+02  0.61864308273E+02  0.32717564847E+02  0.11172209919E+03  0.80621240583E+02 0.  0.
        -11    1    5    5    0    0 -0.54570480609E+02  0.39483748835E+02  0.41824755140E+02  0.79285647620E+02  0.00000000000E+00 0.  1.
         12    1    5    5    0    0  0.21640079358E+02  0.22380559437E+02 -0.91071902929E+01  0.32436451569E+02  0.00000000000E+00 0. -1.
         11    1    3    3    0    0  0.30343187727E+02  0.18023667983E+02 -0.10422594998E+04  0.10428568581E+04  0.00000000000E+00 0. -1.
        -12    1    3    3    0    0 -0.32183848461E+02 -0.71778390393E+01 -0.28991934649E+03  0.29178853463E+03  0.00000000000E+00 0.  1.
          5    1    4    4  501    0  0.75745630302E+01  0.19770771401E+02 -0.44118442762E+03  0.44171192986E+03  0.41800000000E+01 0. -1.
         -5    1    4    4    0  501  0.27196498954E+02 -0.92480908618E+02 -0.33547397816E+03  0.34907396127E+03  0.41800000000E+01 0. -1.
</event>
<event>
11    1  0.8299058E-009  0.1394962E+03  0.7561462E-02  0.1108122E+00
         22   -1    0    0    0    0  0.00000000000E+00  0.00000000000E+00  0.10085568603E+03  0.10085568603E+03  0.00000000000E+00 0.  1.
         22   -1    0    0    0    0 -0.00000000000E+00 -0.00000000000E+00 -0.15410652966E+04  0.15410652966E+04  0.00000000000E+00 0.  1.
         24    2    1    2    0    0 -0.36389944073E+02  0.74270209710E+01 -0.13627049630E+04  0.13657172101E+04  0.82700019268E+02 0.  0.
         25    2    1    2    0    0  0.21992541139E+00  0.49118074876E+02 -0.10542102330E+03  0.17080471224E+03  0.12509206179E+03 0.  0.
        -24    2    1    2    0    0  0.36170018662E+02 -0.56545095847E+02  0.27916375699E+02  0.10539906029E+03  0.76315265594E+02 0.  0.
        -11    1    3    3    0    0 -0.38982001746E+02 -0.12085743430E+02 -0.12818904922E+04  0.12825400172E+04  0.00000000000E+00 0.  1.
         12    1    3    3    0    0  0.25920576726E+01  0.19512764401E+02 -0.80814470807E+02  0.83177192964E+02  0.00000000000E+00 0. -1.
         13    1    5    5    0    0  0.17293359718E+02  0.17407504268E+02  0.12484748316E+02  0.27530899653E+02  0.00000000000E+00 0. -1.
        -14    1    5    5    0    0  0.18876658944E+02 -0.73952600116E+02  0.15431627383E+02  0.77868160634E+02  0.00000000000E+00 0.  1.
          5    1    4    4  501    0 -0.48881902239E+02  0.65715159740E+02 -0.70720759870E+02  0.10829044678E+03  0.41800000000E+01 0. -1.
         -5    1    4    4    0  501  0.49101827650E+02 -0.16597084864E+02 -0.34700263426E+02  0.62514265463E+02  0.41800000000E+01 0. -1.
</event>
<event>
11    1  0.8299058E-009  0.1298144E+03  0.7561462E-02  0.1119497E+00
         22   -1    0    0    0    0  0.00000000000E+00  0.00000000000E+00  0.57594977577E+03  0.57594977577E+03  0.00000000000E+00 0. -1.
         22   -1    0    0    0    0 -0.00000000000E+00 -0.00000000000E+00 -0.95804250011E+02  0.95804250011E+02  0.00000000000E+00 0.  1.
         24    2    1    2    0    0 -0.14814391183E+02 -0.31733690704E+02 -0.10871762578E+02  0.92665695966E+02  0.85101367061E+02 0.  0.
         25    2    1    2    0    0  0.26447130000E+02  0.24143194527E+02  0.65559105562E+02  0.14570125221E+03  0.12509402083E+03 0.  0.
        -24    2    1    2    0    0 -0.11632738817E+02  0.75904961770E+01  0.42545818277E+03  0.43338707760E+03  0.81343453934E+02 0.  0.
        -11    1    3    3    0    0 -0.84572182140E+01 -0.61235480934E+02 -0.61923571031E+01  0.62126113282E+02  0.00000000000E+00 0.  1.
         12    1    3    3    0    0 -0.63571729688E+01  0.29501790230E+02 -0.46794054747E+01  0.30539582684E+02  0.00000000000E+00 0. -1.
         13    1    5    5    0    0 -0.29372813471E+02  0.37565848578E+02  0.24392710758E+03  0.24854454120E+03  0.00000000000E+00 0. -1.
        -14    1    5    5    0    0  0.17740074654E+02 -0.29975352401E+02  0.18153107520E+03  0.18484253640E+03  0.00000000000E+00 0.  1.
          5    1    4    4  501    0 -0.42528992337E+02  0.44316867159E+01 -0.70589217414E+01  0.43539129671E+02  0.41800000000E+01 0.  1.
         -5    1    4    4    0  501  0.68976122337E+02  0.19711507811E+02  0.72618027303E+02  0.10216212254E+03  0.41800000000E+01 0.  1.
</event>
<event>
11    1  0.8299058E-009  0.1415649E+03  0.7561462E-02  0.1105823E+00
         22   -1    0    0    0    0  0.00000000000E+00  0.00000000000E+00  0.98681050579E+03  0.98681050579E+03  0.00000000000E+00 0.  1.
         22   -1    0    0    0    0 -0.00000000000E+00 -0.00000000000E+00 -0.10261339404E+03  0.10261339404E+03  0.00000000000E+00 0.  1.
         24    2    1    2    0    0 -0.30660217376E+02  0.20205536634E+01 -0.41210342817E+02  0.97639959982E+02  0.83012877698E+02 0.  0.
         25    2    1    2    0    0 -0.38840457276E+02 -0.12537922822E+02  0.12179243553E+03  0.17929345123E+03  0.12508782383E+03 0.  0.
        -24    2    1    2    0    0  0.69500674652E+02  0.10517369159E+02  0.80361501903E+03  0.81249048862E+03  0.96967708279E+02 0.  0.
        -13    1    3    3    0    0 -0.53367713970E+02 -0.16154352840E+02 -0.13286952740E+02  0.57320320334E+02  0.00000000000E+00 0.  1.
         14    1    3    3    0    0  0.22707496594E+02  0.18174906504E+02 -0.27923390077E+02  0.40319639648E+02  0.00000000000E+00 0. -1.
         11    1    5    5    0    0  0.43697932675E+02  0.12087421877E+02  0.11833804802E+03  0.12672611687E+03  0.00000000000E+00 0. -1.
        -12    1    5    5    0    0  0.25802741977E+02 -0.15700527183E+01  0.68527697101E+03  0.68576437175E+03  0.00000000000E+00 0.  1.
          5    1    4    4  501    0 -0.48689726573E+02 -0.62996589475E+02  0.79485612239E+02  0.11258194665E+03  0.41800000000E+01 0.  1.
         -5    1    4    4    0  501  0.98492692969E+01  0.50458666652E+02  0.42306823291E+02  0.66711504577E+02  0.41800000000E+01 0.  1.
</event>
<event>
11    1  0.8299058E-009  0.1535299E+03  0.7561462E-02  0.1093326E+00
         22   -1    0    0    0    0  0.00000000000E+00  0.00000000000E+00  0.43982719453E+03  0.43982719453E+03  0.00000000000E+00 0. -1.
         22   -1    0    0    0    0 -0.00000000000E+00 -0.00000000000E+00 -0.32522323092E+03  0.32522323092E+03  0.00000000000E+00 0.  1.
         24    2    1    2    0    0  0.11990077287E+02  0.42876824224E+00 -0.21614526622E+03  0.23125459009E+03  0.81338573476E+02 0.  0.
         25    2    1    2    0    0 -0.66062654299E+02 -0.70237845778E+02 -0.24434057751E+02  0.15981908731E+03  0.12508992052E+03 0.  0.
        -24    2    1    2    0    0  0.54072577013E+02  0.69809077536E+02  0.35518328757E+03  0.37397674806E+03  0.76852387232E+02 0.  0.
        -11    1    3    3    0    0  0.45893388935E+02 -0.82583843781E+01 -0.13693585450E+03  0.14465763826E+03  0.00000000000E+00 0.  1.
         12    1    3    3    0    0 -0.33903311648E+02  0.86871526204E+01 -0.79209411720E+02  0.86596951831E+02  0.00000000000E+00 0. -1.
         13    1    5    5    0    0  0.34022046405E+02  0.16112531465E+02  0.26116536721E+03  0.26386447723E+03  0.00000000000E+00 0. -1.
        -14    1    5    5    0    0  0.20050530608E+02  0.53696546071E+02  0.94017920360E+02  0.11011227083E+03  0.00000000000E+00 0.  1.
          5    1    4    4  501    0 -0.91247409479E+02 -0.81577892242E+02 -0.38719861341E+02  0.12844353741E+03  0.41800000000E+01 0.  1.
         -5    1    4    4    0  501  0.25184755179E+02  0.11340046464E+02  0.14285803591E+02  0.31375549899E+02  0.41800000000E+01 0.  1.
</event>
<event>
11    1  0.8299058E-009  0.1632833E+03  0.7561462E-02  0.1084029E+00
         22   -1    0    0    0    0  0.00000000000E+00  0.00000000000E+00  0.13698035901E+03  0.13698035901E+03  0.00000000000E+00 0.  1.
         22   -1    0    0    0    0 -0.00000000000E+00 -0.00000000000E+00 -0.13394890818E+04  0.13394890818E+04  0.00000000000E+00 0. -1.
         24    2    1    2    0    0  0.19726221975E+02 -0.10796007473E+03 -0.11831461402E+04  0.11909796706E+04  0.80952362060E+02 0.  0.
         25    2    1    2    0    0  0.29661387798E+01  0.60175255977E+02 -0.90115734780E+02  0.16552357248E+03  0.12508935998E+03 0.  0.
        -24    2    1    2    0    0 -0.22692360755E+02  0.47784818756E+02  0.70753152278E+02  0.11996619774E+03  0.81163710506E+02 0.  0.
        -11    1    3    3    0    0 -0.18679133045E+02  0.44255047971E+00 -0.26520387224E+03  0.26586124146E+03  0.00000000000E+00 0.  1.
         12    1    3    3    0    0  0.38405355020E+02 -0.10840262521E+03 -0.91794226801E+03  0.92511842909E+03  0.00000000000E+00 0. -1.
         13    1    5    5    0    0 -0.64438251555E+01 -0.17437990571E+01 -0.16796186039E+02  0.18074168950E+02  0.00000000000E+00 0. -1.
        -14    1    5    5    0    0 -0.16248535599E+02  0.49528617814E+02  0.87549338317E+02  0.10189202879E+03  0.00000000000E+00 0.  1.
          5    1    4    4  501    0  0.14477174228E+02  0.26059262528E+02  0.28524032907E+02  0.41470068609E+02  0.41800000000E+01 0.  1.
         -5    1    4    4    0  501 -0.11511035448E+02  0.34115993449E+02 -0.11863976769E+03  0.12405350387E+03  0.41800000000E+01 0.  1.
</event>
<event>
11    1  0.8299058E-009  0.1503402E+03  0.7561462E-02  0.1096532E+00
         22   -1    0    0    0    0  0.00000000000E+00  0.00000000000E+00  0.70788035052E+03  0.70788035052E+03  0.00000000000E+00 0.  1.
         22   -1    0    0    0    0 -0.00000000000E+00 -0.00000000000E+00 -0.63235416063E+03  0.63235416063E+03  0.00000000000E+00 0. -1.
        -24    2    1    2    0    0  0.35576961780E+02  0.39247701774E+02 -0.43992965557E+03  0.45039129476E+03  0.80672884183E+02 0.  0.
         25    2    1    2    0    0  0.45546438250E+02 -0.61167621621E+02 -0.15269446585E+03  0.21161122224E+03  0.12509098090E+03 0.  0.
         24    2    1    2    0    0 -0.81123400030E+02  0.21919919847E+02  0.66815031132E+03  0.67823199415E+03  0.80698887588E+02 0.  0.
        -11    1    5    5    0    0 -0.72689685119E+02 -0.13563587813E+02  0.33344979904E+03  0.34155018623E+03  0.00000000000E+00 0.  1.
         12    1    5    5    0    0 -0.84337149107E+01  0.35483507660E+02  0.33470051228E+03  0.33668180792E+03  0.00000000000E+00 0. -1.
         13    1    3    3    0    0  0.26304036728E+02  0.13361590661E+01 -0.36461106409E+03  0.36556109712E+03  0.00000000000E+00 0. -1.
        -14    1    3    3    0    0  0.92729250520E+01  0.37911542708E+02 -0.75318591475E+02  0.84830197638E+02  0.00000000000E+00 0.  1.
          5    1    4    4  501    0 -0.13914987198E+02 -0.39054969248E+02  0.46295261710E+01  0.41926392693E+02  0.41800000000E+01 0. -1.
         -5    1    4    4    0  501  0.59461425448E+02 -0.22112652373E+02 -0.15732399202E+03  0.16968482954E+03  0.41800000000E+01 0. -1.
</event>
<event>
11    1  0.8299058E-009  0.1266245E+03  0.7561462E-02  0.1123487E+00
         22   -1    0    0    0    0  0.00000000000E+00  0.00000000000E+00  0.69397806973E+03  0.69397806973E+03  0.00000000000E+00 0. -1.
         22   -1    0    0    0    0 -0.00000000000E+00 -0.00000000000E+00 -0.74951085449E+03  0.74951085449E+03  0.00000000000E+00 0. -1.
         24    2    1    2    0    0  0.16378382803E+02  0.22691726840E+02 -0.67315384051E+03  0.67811228262E+03  0.76922096689E+02 0.  0.
         25    2    1    2    0    0 -0.21010051143E+02 -0.40724559548E+02 -0.83666312475E+01  0.13348028306E+03  0.12508826263E+03 0.  0.
        -24    2    1    2    0    0  0.46316683404E+01  0.18032832707E+02  0.62598768700E+03  0.63189635853E+03  0.84177124198E+02 0.  0.
        -11    1    3    3    0    0  0.29460118701E+02 -0.20622809225E+02 -0.25643703293E+03  0.25894623131E+03  0.00000000000E+00 0.  1.
         12    1    3    3    0    0 -0.13081735898E+02  0.43314536066E+02 -0.41671680759E+03  0.41916605131E+03  0.00000000000E+00 0. -1.
         11    1    5    5    0    0  0.45167147348E-01 -0.10660292787E+02  0.55618544872E+03  0.55628760299E+03  0.00000000000E+00 0. -1.
        -12    1    5    5    0    0  0.45865011931E+01  0.28693125494E+02  0.69802238284E+02  0.75608755533E+02  0.00000000000E+00 0.  1.
          5    1    4    4  501    0 -0.17437229120E+02 -0.56300025740E+02 -0.57011942719E+02  0.82107148716E+02  0.41800000000E+01 0. -1.
         -5    1    4    4    0  501 -0.35728220235E+01  0.15575466193E+02  0.48645311472E+02  0.51373134346E+02  0.41800000000E+01 0. -1.
</event>
<event>
11    1  0.8299058E-009  0.1733042E+03  0.7561462E-02  0.1075191E+00
         22   -1    0    0    0    0  0.00000000000E+00  0.00000000000E+00  0.22923351029E+04  0.22923351029E+04  0.00000000000E+00 0.  1.
         22   -1    0    0    0    0 -0.00000000000E+00 -0.00000000000E+00 -0.23156389907E+03  0.23156389907E+03  0.00000000000E+00 0. -1.
         24    2    1    2    0    0  0.31517937515E+02 -0.27793851656E+02 -0.17432369726E+03  0.19902346219E+03  0.86346444637E+02 0.  0.
         25    2    1    2    0    0  0.59234024933E+02  0.10664478507E+03  0.13756482195E+03  0.22238555355E+03  0.12509785888E+03 0.  0.
        -24    2    1    2    0    0 -0.90751962447E+02 -0.78850933410E+02  0.20975300791E+04  0.21024899862E+04  0.79864390709E+02 0.  0.
        -11    1    3    3    0    0  0.83861551422E+01  0.15032932525E+02 -0.13596639316E+03  0.13705173011E+03  0.00000000000E+00 0.  1.
         12    1    3    3    0    0  0.23131782372E+02 -0.42826784181E+02 -0.38357304101E+02  0.61971732079E+02  0.00000000000E+00 0. -1.
         13    1    5    5    0    0 -0.53823714320E+02 -0.21298559891E+01  0.55378321665E+03  0.55639678248E+03  0.00000000000E+00 0. -1.
        -14    1    5    5    0    0 -0.36928248127E+02 -0.76721077421E+02  0.15437468625E+04  0.15460932038E+04  0.00000000000E+00 0.  1.
          5    1    4    4  501    0  0.86780635359E+02  0.10863413615E+03  0.85438203325E+02  0.16324647989E+03  0.41800000000E+01 0. -1.
         -5    1    4    4    0  501 -0.27546610427E+02 -0.19893510809E+01  0.52126618622E+02  0.59139073654E+02  0.41800000000E+01 0. -1.
</event>
<event>
11    1  0.8299058E-009  0.1667289E+03  0.7561462E-02  0.1080914E+00
         22   -1    0    0    0    0  0.00000000000E+00  0.00000000000E+00  0.20991799044E+04  0.20991799044E+04  0.00000000000E+00 0.  1.
         22   -1    0    0    0    0 -0.00000000000E+00 -0.00000000000E+00 -0.14849661803E+03  0.14849661803E+03  0.00000000000E+00 0. -1.
         24    2    1    2    0    0  0.21582024586E+02  0.10716157092E+03 -0.10239322848E+03  0.17069297967E+03  0.81867783671E+02 0.  0.
         25    2    1    2    0    0 -0.22625670949E+02 -0.12951370789E+03  0.77614181786E+03  0.79707523529E+03  0.12508831985E+03 0.  0.
        -24    2    1    2    0    0  0.10436463626E+01  0.22352136973E+02  0.12769346969E+04  0.12799083074E+04  0.84275428963E+02 0.  0.
        -11    1    3    3    0    0  0.20381159757E+02  0.13947136920E+02  0.82268871608E+01  0.26030673707E+02  0.00000000000E+00 0.  1.
         12    1    3    3    0    0  0.12008648297E+01  0.93214433997E+02 -0.11062011564E+03  0.14466230596E+03  0.00000000000E+00 0. -1.
         13    1    5    5    0    0 -0.34799593807E+01 -0.31910086680E+02  0.55116182689E+03  0.55209575543E+03  0.00000000000E+00 0. -1.
        -14    1    5    5    0    0  0.45236057433E+01  0.54262223653E+02  0.72577287006E+03  0.72781255200E+03  0.00000000000E+00 0.  1.
          5    1    4    4  501    0  0.28890031410E+02 -0.28748498986E+02  0.64038133596E+02  0.76022793051E+02  0.41800000000E+01 0.  1.
         -5    1    4    4    0  501 -0.51515702359E+02 -0.10076520890E+03  0.71210368426E+03  0.72105244224E+03  0.41800000000E+01 0.  1.
</event>
<event>
11    1  0.8299058E-009  0.2707199E+03  0.7561462E-02  0.1013406E+00
         22   -1    0    0    0    0  0.00000000000E+00  0.00000000000E+00  0.10074221303E+04  0.10074221303E+04  0.00000000000E+00 0.  1.
         22   -1    0    0    0    0 -0.00000000000E+00 -0.00000000000E+00 -0.90934212463E+03  0.90934212463E+03  0.00000000000E+00 0.  1.
        -24    2    1    2    0    0 -0.55913246522E+02 -0.20622116896E+02 -0.46209551876E+03  0.47342762252E+03  0.83963578233E+02 0.  0.
         25    2    1    2    0    0  0.13593648270E+03  0.24542958795E+03 -0.36931953546E+03  0.48037796405E+03  0.12510659097E+03 0.  0.
         24    2    1    2    0    0 -0.80023236182E+02 -0.22480747105E+03  0.92949505989E+03  0.96295866835E+03  0.79913786239E+02 0.  0.
        -11    1    5    5    0    0 -0.84799734237E+02 -0.12502175381E+03  0.59371074828E+03  0.61262866932E+03  0.00000000000E+00 0.  1.
         12    1    5    5    0    0  0.47764980551E+01 -0.99785717242E+02  0.33578431161E+03  0.35032999903E+03  0.00000000000E+00 0. -1.
         13    1    3    3    0    0 -0.38696007721E+01  0.23175888430E+02 -0.44440333914E+02  0.50269661756E+02  0.00000000000E+00 0. -1.
        -14    1    3    3    0    0 -0.52043645749E+02 -0.43798005326E+02 -0.41765518484E+03  0.42315796077E+03  0.00000000000E+00 0.  1.
          5    1    4    4  501    0  0.13522294768E+03  0.21152434876E+03 -0.36885500039E+03  0.44620542288E+03  0.41800000000E+01 0.  1.
         -5    1    4    4    0  501  0.71353502865E+00  0.33905239195E+02 -0.46453506386E+00  0.34172541169E+02  0.41800000000E+01 0.  1.
</event>
<event>
11    1  0.8299058E-009  0.1681254E+03  0.7561462E-02  0.1079675E+00
         22   -1    0    0    0    0  0.00000000000E+00  0.00000000000E+00  0.20767340416E+04  0.20767340416E+04  0.00000000000E+00 0.  1.
         22   -1    0    0    0    0 -0.00000000000E+00 -0.00000000000E+00 -0.11829284666E+03  0.11829284666E+03  0.00000000000E+00 0.  1.
        -24    2    1    2    0    0 -0.14658984665E+00  0.56712413414E+02 -0.70192177005E+02  0.12080625959E+03  0.80317440942E+02 0.  0.
         25    2    1    2    0    0 -0.26044907114E+01  0.62841881293E+02  0.22669402551E+03  0.26644738868E+03  0.12509254300E+03 0.  0.
         24    2    1    2    0    0  0.27510805581E+01 -0.11955429471E+03  0.18019393464E+04  0.18077732400E+04  0.82206332991E+02 0.  0.
        -13    1    5    5    0    0  0.20207491367E+02 -0.94816112774E+02  0.87764207653E+03  0.88298021068E+03  0.00000000000E+00 0.  1.
         14    1    5    5    0    0 -0.17456410809E+02 -0.24738181933E+02  0.92429726989E+03  0.92479302931E+03  0.00000000000E+00 0. -1.
         13    1    3    3    0    0  0.32640408226E+02  0.36299029958E+02 -0.10858033213E+02  0.50009126270E+02  0.00000000000E+00 0. -1.
        -14    1    3    3    0    0 -0.32786998072E+02  0.20413383455E+02 -0.59334143792E+02  0.70797133320E+02  0.00000000000E+00 0.  1.
          5    1    4    4  501    0 -0.48592711942E+02  0.75147869669E+02  0.17110969100E+03  0.19314360648E+03  0.41800000000E+01 0.  1.
         -5    1    4    4    0  501  0.45988221231E+02 -0.12305988376E+02  0.55584334512E+02  0.73303782201E+02  0.41800000000E+01 0.  1.
</event>
<event>
11    1  0.8299058E-009  0.1299860E+03  0.7561462E-02  0.1119286E+00
         22   -1    0    0    0    0  0.00000000000E+00  0.00000000000E+00  0.60409871327E+02  0.60409871327E+02  0.00000000000E+00 0.  1.
         22   -1    0    0    0    0 -0.00000000000E+00 -0.00000000000E+00 -0.65431975541E+03  0.65431975541E+03  0.00000000000E+00 0. -1.
         24    2    1    2    0    0  0.38705057868E+02  0.84392267059E+01 -0.38571701623E+03  0.39653878566E+03  0.83042699077E+02 0.  0.
         25    2    1    2    0    0 -0.20844178719E+02 -0.50636014426E+00 -0.19604073220E+03  0.23348361891E+03  0.12509154821E+03 0.  0.
        -24    2    1    2    0    0 -0.17860879149E+02 -0.79328665616E+01 -0.12152135662E+02  0.84707222168E+02  0.81521148854E+02 0.  0.
        -13    1    3    3    0    0  0.22887425384E+02 -0.16772396703E+02 -0.37366412647E+02  0.46919040122E+02  0.00000000000E+00 0.  1.
         14    1    3    3    0    0  0.15817632484E+02  0.25211623409E+02 -0.34835060358E+03  0.34961974553E+03  0.00000000000E+00 0. -1.
         11    1    5    5    0    0  0.28872074517E+02 -0.17078472434E+02 -0.15535254483E+02  0.36967756754E+02  0.00000000000E+00 0. -1.
        -12    1    5    5    0    0 -0.46732953666E+02  0.91456058721E+01  0.33831188215E+01  0.47739465414E+02  0.00000000000E+00 0.  1.
          5    1    4    4  501    0 -0.54798984547E+02 -0.83027363163E+00 -0.19118375003E+03  0.19892791845E+03  0.41800000000E+01 0.  1.
         -5    1    4    4    0  501  0.33954805828E+02  0.32391348738E+00 -0.48569821613E+01  0.34555700463E+02  0.41800000000E+01 0.  1.
</event>
<event>
11    1  0.8299058E-009  0.2264579E+03  0.7561462E-02  0.1037246E+00
         22   -1    0    0    0    0  0.00000000000E+00  0.00000000000E+00  0.12891974832E+04  0.12891974832E+04  0.00000000000E+00 0.  1.
         22   -1    0    0    0    0 -0.00000000000E+00 -0.00000000000E+00 -0.50216943267E+03  0.50216943267E+03  0.00000000000E+00 0.  1.
        -24    2    1    2    0    0  0.54294407502E+02 -0.24662611617E+02 -0.37463502779E+03  0.38673586296E+03  0.75213672627E+02 0.  0.
         25    2    1    2    0    0 -0.23344339181E+03  0.68401912286E+02  0.53916031538E+02  0.27879918968E+03  0.12508961156E+03 0.  0.
         24    2    1    2    0    0  0.17914898431E+03 -0.43739300670E+02  0.11077470467E+04  0.11258318632E+04  0.79914827353E+02 0.  0.
        -11    1    5    5    0    0  0.16862786049E+03 -0.29563615635E+02  0.82721658216E+03  0.84474649245E+03  0.00000000000E+00 0.  1.
         12    1    5    5    0    0  0.10521123818E+02 -0.14175685035E+02  0.28053046458E+03  0.28108537075E+03  0.00000000000E+00 0. -1.
         11    1    3    3    0    0 -0.68097270183E+01 -0.17773668190E+02 -0.23422498288E+02  0.30180939168E+02  0.00000000000E+00 0. -1.
        -12    1    3    3    0    0  0.61104134520E+02 -0.68889434261E+01 -0.35121252951E+03  0.35655492379E+03  0.00000000000E+00 0.  1.
          5    1    4    4  501    0 -0.17288615426E+03 -0.83870077656E+01  0.52430457127E+02  0.18090436553E+03  0.41800000000E+01 0.  1.
         -5    1    4    4    0  501 -0.60557237556E+02  0.76788920052E+02  0.14855744109E+01  0.97894824146E+02  0.41800000000E+01 0.  1.
</event>
<event>
11    1  0.8299058E-009  0.1263308E+03  0.7561462E-02  0.1123861E+00
         22   -1    0    0    0    0  0.00000000000E+00  0.00000000000E+00  0.37237032004E+03  0.37237032004E+03  0.00000000000E+00 0.  1.
         22   -1    0    0    0    0 -0.00000000000E+00 -0.00000000000E+00 -0.59666281777E+03  0.59666281777E+03  0.00000000000E+00 0.  1.
        -24    2    1    2    0    0  0.19796110640E+02 -0.22414196887E+02 -0.55611632218E+03  0.56170355384E+03  0.73152145424E+02 0.  0.
         25    2    1    2    0    0 -0.33498532387E+02  0.20712028410E+02  0.11017764615E+03  0.17128227570E+03  0.12508942588E+03 0.  0.
         24    2    1    2    0    0  0.13702421748E+02  0.17021684765E+01  0.22164617830E+03  0.23604730827E+03  0.80004060172E+02 0.  0.
        -13    1    5    5    0    0  0.29444735943E+02 -0.32214858050E+02  0.12650578474E+03  0.13382265550E+03  0.00000000000E+00 0.  1.
         14    1    5    5    0    0 -0.15742314195E+02  0.33917026526E+02  0.95140393563E+02  0.10222465276E+03  0.00000000000E+00 0. -1.
         13    1    3    3    0    0  0.41040046895E+02 -0.12564991712E+02 -0.18773659402E+03  0.19258035518E+03  0.00000000000E+00 0. -1.
        -14    1    3    3    0    0 -0.21243936255E+02 -0.98492051747E+01 -0.36837972816E+03  0.36912319866E+03  0.00000000000E+00 0.  1.
          5    1    4    4  501    0  0.15078426577E+02 -0.33876236694E+02  0.86745309986E+02  0.94430818938E+02  0.41800000000E+01 0. -1.
         -5    1    4    4    0  501 -0.48576958964E+02  0.54588265105E+02  0.23432336159E+02  0.76851456767E+02  0.41800000000E+01 0. -1.
</event>
<event>
11    1  0.8299058E-009  0.1503462E+03  0.7561462E-02  0.1096526E+00
         22   -1    0    0    0    0  0.00000000000E+00  0.00000000000E+00  0.73269478792E+02  0.73269478792E+02  0.00000000000E+00 0. -1.
         22   -1    0    0    0    0 -0.00000000000E+00 -0.00000000000E+00 -0.13719990333E+04  0.13719990333E+04  0.00000000000E+00 0.  1.
         24    2    1    2    0    0 -0.62258210890E+02  0.56947650683E+02 -0.11864232458E+04  0.11921857603E+04  0.81164334978E+02 0.  0.
         25    2    1    2    0    0  0.55397349400E+02 -0.39037016185E+02 -0.56579544364E+02  0.15310371030E+03  0.12508695501E+03 0.  0.
        -24    2    1    2    0    0  0.68608614900E+01 -0.17910634499E+02 -0.55726764352E+02  0.99979041449E+02  0.80761836380E+02 0.  0.
        -13    1    3    3    0    0 -0.67414833000E+02  0.88933582841E+01 -0.62596870136E+03  0.62965122617E+03  0.00000000000E+00 0.  1.
         14    1    3    3    0    0  0.51566221109E+01  0.48054292399E+02 -0.56045454441E+03  0.56253453416E+03  0.00000000000E+00 0. -1.
         11    1    5    5    0    0  0.72968680511E+01  0.24791287574E+02 -0.50794962386E+02  0.56991055673E+02  0.00000000000E+00 0. -1.
        -12    1    5    5    0    0 -0.43600656114E+00 -0.42701922073E+02 -0.49318019658E+01  0.42987985776E+02  0.00000000000E+00 0.  1.
          5    1    4    4  501    0 -0.11478388850E+01 -0.70703725819E+02 -0.65770580752E+01  0.71141158774E+02  0.41800000000E+01 0. -1.
         -5    1    4    4    0  501  0.56545188285E+02  0.31666709634E+02 -0.50002486288E+02  0.81962551523E+02  0.41800000000E+01 0. -1.
</event>
<event>
11    1  0.8299058E-009  0.2738455E+03  0.7561462E-02  0.1011911E+00
         22   -1    0    0    0    0  0.00000000000E+00  0.00000000000E+00  0.77345241336E+03  0.77345241336E+03  0.00000000000E+00 0. -1.
         22   -1    0    0    0    0 -0.00000000000E+00 -0.00000000000E+00 -0.13764628143E+04  0.13764628143E+04  0.00000000000E+00 0. -1.
        -24    2    1    2    0    0  0.99822762663E+02 -0.11672553830E+03 -0.95009353491E+03  0.96595802531E+03  0.82509068266E+02 0.  0.
         25    2    1    2    0    0 -0.26125665060E+03  0.28757508209E+03 -0.28969502130E+03  0.50052470785E+03  0.12508921808E+03 0.  0.
         24    2    1    2    0    0  0.16143388794E+03 -0.17084954379E+03  0.63677815528E+03  0.68343249450E+03  0.79643510131E+02 0.  0.
        -13    1    5    5    0    0  0.21822711040E+02 -0.76586716516E+02  0.19583088384E+03  0.21140362090E+03  0.00000000000E+00 0.  1.
         14    1    5    5    0    0  0.13961117690E+03 -0.94262827276E+02  0.44094727144E+03  0.47202887360E+03  0.00000000000E+00 0. -1.
         13    1    3    3    0    0  0.10076048588E+03 -0.12788201988E+03 -0.87235916361E+03  0.88742154406E+03  0.00000000000E+00 0. -1.
        -14    1    3    3    0    0 -0.93772321443E+00  0.11156481582E+02 -0.77734371303E+02  0.78536481255E+02  0.00000000000E+00 0.  1.
          5    1    4    4  501    0 -0.43963624504E+02  0.13116446044E+03 -0.12266013894E+03  0.18493214444E+03  0.41800000000E+01 0. -1.
         -5    1    4    4    0  501 -0.21729302609E+03  0.15641062165E+03 -0.16703488236E+03  0.31559256341E+03  0.41800000000E+01 0. -1.
</event>
<event>
11    1  0.8299058E-009  0.1855757E+03  0.7561462E-02  0.1065220E+00
         22   -1    0    0    0    0  0.00000000000E+00  0.00000000000E+00  0.14930193440E+03  0.14930193440E+03  0.00000000000E+00 0. -1.
         22   -1    0    0    0    0 -0.00000000000E+00 -0.00000000000E+00 -0.56058790067E+03  0.56058790067E+03  0.00000000000E+00 0.  1.
        -24    2    1    2    0    0 -0.13714222979E+03  0.33173388320E+02 -0.40178145380E+03  0.43354111027E+03  0.81370097640E+02 0.  0.
         25    2    1    2    0    0  0.11821313362E+03 -0.25164581147E+02 -0.52848886186E+02  0.18178324674E+03  0.12507814726E+03 0.  0.
         24    2    1    2    0    0  0.18929096174E+02 -0.80088071730E+01  0.43344373720E+02  0.94565478063E+02  0.81495050364E+02 0.  0.
        -13    1    5    5    0    0  0.22073858647E+02  0.23815702133E+01 -0.20250844005E+02  0.30050354327E+02  0.00000000000E+00 0.  1.
         14    1    5    5    0    0 -0.31447624728E+01 -0.10390377386E+02  0.63595217725E+02  0.64515123736E+02  0.00000000000E+00 0. -1.
         13    1    3    3    0    0 -0.74231087981E+01 -0.39537553490E+01 -0.12840580748E+03  0.12868094700E+03  0.00000000000E+00 0. -1.
        -14    1    3    3    0    0 -0.12971912099E+03  0.37127143669E+02 -0.27337564632E+03  0.30486016327E+03  0.00000000000E+00 0.  1.
          5    1    4    4  501    0  0.12416054968E+02  0.18704197909E+02  0.31909332356E+02  0.39238798807E+02  0.41800000000E+01 0. -1.
         -5    1    4    4    0  501  0.10579707865E+03 -0.43868779057E+02 -0.84758218542E+02  0.14254444793E+03  0.41800000000E+01 0. -1.
</event>
<event>
11    1  0.8299058E-009  0.1292791E+03  0.7561462E-02  0.1120158E+00
         22   -1    0    0    0    0  0.00000000000E+00  0.00000000000E+00  0.18269839643E+04  0.18269839643E+04  0.00000000000E+00 0.  1.
         22   -1    0    0    0    0 -0.00000000000E+00 -0.00000000000E+00 -0.35662559491E+03  0.35662559491E+03  0.00000000000E+00 0.  1.
        -24    2    1    2    0    0 -0.64671082891E+00 -0.83927712693E+01 -0.33337781429E+03  0.34308567088E+03  0.80598719918E+02 0.  0.
         25    2    1    2    0    0  0.14973581364E+02 -0.21606528090E+02  0.21970548799E+03  0.25416495064E+03  0.12505307069E+03 0.  0.
         24    2    1    2    0    0 -0.14326870535E+02  0.29999299359E+02  0.15840306957E+04  0.15863589377E+04  0.79222579600E+02 0.  0.
        -11    1    5    5    0    0 -0.30554746152E+02  0.46944072165E+02  0.13484473055E+04  0.13496101193E+04  0.00000000000E+00 0.  1.
         12    1    5    5    0    0  0.16227875618E+02 -0.16944772805E+02  0.23558339019E+03  0.23674881838E+03  0.00000000000E+00 0. -1.
         13    1    3    3    0    0  0.20356814577E+02 -0.20714202398E+02 -0.44221044386E+02  0.52905376355E+02  0.00000000000E+00 0. -1.
        -14    1    3    3    0    0 -0.21003525406E+02  0.12321431128E+02 -0.28915676991E+03  0.29018029452E+03  0.00000000000E+00 0.  1.
          5    1    4    4  501    0 -0.16222650446E+02 -0.47249814655E+02  0.20491154201E+03  0.21095480991E+03  0.41800000000E+01 0. -1.
         -5    1    4    4    0  501  0.31196231810E+02  0.25643286565E+02  0.14793945972E+02  0.43210140736E+02  0.41800000000E+01 0. -1.
</event>
<event>
11    1  0.8299058E-009  0.2027150E+03  0.7561462E-02  0.1052620E+00
         22   -1    0    0    0    0  0.00000000000E+00  0.00000000000E+00  0.11457898535E+04  0.11457898535E+04  0.00000000000E+00 0. -1.
         22   -1    0    0    0    0 -0.00000000000E+00 -0.00000000000E+00 -0.52679301954E+03  0.52679301954E+03  0.00000000000E+00 0.  1.
         24    2    1    2    0    0  0.79730133076E+01  0.78960395283E+01 -0.37299641755E+03  0.38178054040E+03  0.80648230852E+02 0.  0.
         25    2    1    2    0    0  0.12062778580E+03  0.87452247108E+02 -0.74881758394E+02  0.20845612335E+03  0.12509084455E+03 0.  0.
        -24    2    1    2    0    0 -0.12860079911E+03 -0.95348286636E+02  0.10668750099E+04  0.10823462093E+04  0.87301596260E+02 0.  0.
        -13    1    3    3    0    0  0.30928891081E+02  0.68091977611E+01 -0.34055177927E+03  0.34202116286E+03  0.00000000000E+00 0.  1.
         14    1    3    3    0    0 -0.22955877773E+02  0.10868417672E+01 -0.32444638283E+02  0.39759377544E+02  0.00000000000E+00 0. -1.
         13    1    5    5    0    0 -0.10428772541E+03 -0.95719221794E+02  0.10175952718E+04  0.10273939052E+04  0.00000000000E+00 0. -1.
        -14    1    5    5    0    0 -0.24313073701E+02  0.37093515791E+00  0.49279738102E+02  0.54952304165E+02  0.00000000000E+00 0.  1.
          5    1    4    4  501    0 -0.16767671874E+02  0.38456517779E+02 -0.40648056420E+02  0.58564455692E+02  0.41800000000E+01 0.  1.
         -5    1    4    4    0  501  0.13739545767E+03  0.48995729330E+02 -0.34233701973E+02  0.14989166766E+03  0.41800000000E+01 0.  1.
</event>
<event>
11    1  0.8299058E-009  0.1524711E+03  0.7561462E-02  0.1094380E+00
         22   -1    0    0    0    0  0.00000000000E+00  0.00000000000E+00  0.16362763764E+03  0.16362763764E+03  0.00000000000E+00 0.  1.
         22   -1    0    0    0    0 -0.00000000000E+00 -0.00000000000E+00 -0.74800991037E+03  0.74800991037E+03  0.00000000000E+00 0.  1.
         24    2    1    2    0    0  0.86891120655E+02 -0.17182882380E+02 -0.60795505886E+03  0.61953663284E+03  0.79818340885E+02 0.  0.
         25    2    1    2    0    0 -0.75403932485E+02  0.11630538515E+02 -0.72346487488E+02  0.16340700074E+03  0.12508721429E+03 0.  0.
        -24    2    1    2    0    0 -0.11487188170E+02  0.55523438655E+01  0.95919273628E+02  0.12869391442E+03  0.84845934151E+02 0.  0.
        -13    1    3    3    0    0  0.68031490131E+02  0.21793094606E+02 -0.29112472230E+03  0.29976128262E+03  0.00000000000E+00 0.  1.
         14    1    3    3    0    0  0.18859630524E+02 -0.38975976986E+02 -0.31683033656E+03  0.31977535022E+03  0.00000000000E+00 0. -1.
         11    1    5    5    0    0  0.16199460276E+02  0.12472810182E+02 -0.72175989117E+01  0.21681495362E+02  0.00000000000E+00 0. -1.
        -12    1    5    5    0    0 -0.27686648446E+02 -0.69204663170E+01  0.10313687254E+03  0.10701241906E+03  0.00000000000E+00 0.  1.
          5    1    4    4  501    0 -0.76741442578E+02 -0.99018985906E+01 -0.10099693431E+03  0.12729944912E+03  0.41800000000E+01 0.  1.
         -5    1    4    4    0  501  0.13375100930E+01  0.21532437105E+02  0.28650446827E+02  0.36107551624E+02  0.41800000000E+01 0.  1.
</event>
<event>
11    1  0.8299058E-009  0.2225338E+03  0.7561462E-02  0.1039642E+00
         22   -1    0    0    0    0  0.00000000000E+00  0.00000000000E+00  0.48569952458E+03  0.48569952458E+03  0.00000000000E+00 0.  1.
         22   -1    0    0    0    0 -0.00000000000E+00 -0.00000000000E+00 -0.56717298975E+03  0.56717298975E+03  0.00000000000E+00 0.  1.
         24    2    1    2    0    0 -0.17496642920E+03  0.65688292847E+02 -0.39420445373E+03  0.44368406239E+03  0.80809607801E+02 0.  0.
         25    2    1    2    0    0  0.17573286857E+03 -0.26087413230E+02 -0.60480622408E+02  0.22553976684E+03  0.12509071315E+03 0.  0.
        -24    2    1    2    0    0 -0.76643936952E+00 -0.39600879617E+02  0.37321161097E+03  0.38364868510E+03  0.79565004393E+02 0.  0.
        -11    1    3    3    0    0 -0.17757887583E+03  0.74051966473E+02 -0.35790610922E+03  0.40634312335E+03  0.00000000000E+00 0.  1.
         12    1    3    3    0    0  0.26124466290E+01 -0.83636736257E+01 -0.36298344510E+02  0.37340939036E+02  0.00000000000E+00 0. -1.
         13    1    5    5    0    0  0.72684450239E+01 -0.42974541136E+02  0.87023764074E+02  0.97328192177E+02  0.00000000000E+00 0. -1.
        -14    1    5    5    0    0 -0.80348843935E+01  0.33736615188E+01  0.28618784689E+03  0.28632049293E+03  0.00000000000E+00 0.  1.
          5    1    4    4  501    0  0.18726891746E+03 -0.10685789970E+01 -0.41606413370E+02  0.19188370265E+03  0.41800000000E+01 0.  1.
         -5    1    4    4    0  501 -0.11536048890E+02 -0.25018834233E+02 -0.18874209038E+02  0.33656064196E+02  0.41800000000E+01 0.  1.
</event>
<event>
11    1  0.8299058E-009  0.1600070E+03  0.7561462E-02  0.1087071E+00
         22   -1    0    0    0    0  0.00000000000E+00  0.00000000000E+00  0.14861079938E+04  0.14861079938E+04  0.00000000000E+00 0.  1.
         22   -1    0    0    0    0 -0.00000000000E+00 -0.00000000000E+00 -0.26541233974E+03  0.26541233974E+03  0.00000000000E+00 0.  1.
         24    2    1    2    0    0 -0.95914426193E+01 -0.52934096550E+02 -0.19125781598E+03  0.21071565012E+03  0.70196286832E+02 0.  0.
         25    2    1    2    0    0  0.80763873664E+02 -0.18977814179E+02  0.30257533813E+02  0.15312643632E+03  0.12509686818E+03 0.  0.
        -24    2    1    2    0    0 -0.71172431044E+02  0.71911910729E+02  0.13816959363E+04  0.13876782471E+04  0.79563932956E+02 0.  0.
        -13    1    3    3    0    0 -0.34250610228E+02 -0.41993471769E+02 -0.82825775257E+02  0.98978103736E+02  0.00000000000E+00 0.  1.
         14    1    3    3    0    0  0.24659167609E+02 -0.10940624781E+02 -0.10843204072E+03  0.11173754639E+03  0.00000000000E+00 0. -1.
         11    1    5    5    0    0 -0.87287410598E+01  0.34091160238E+02  0.16099313205E+03  0.16479437701E+03  0.00000000000E+00 0. -1.
        -12    1    5    5    0    0 -0.62443689985E+02  0.37820750491E+02  0.12207028042E+04  0.12228838701E+04  0.00000000000E+00 0.  1.
          5    1    4    4  501    0  0.25056706462E+02 -0.56741089033E+02  0.53278675101E+02  0.81874778435E+02  0.41800000000E+01 0.  1.
         -5    1    4    4    0  501  0.55707167201E+02  0.37763274854E+02 -0.23021141288E+02  0.71251657886E+02  0.41800000000E+01 0.  1.
</event>
<event>
11    1  0.8299058E-009  0.2381528E+03  0.7561462E-02  0.1030407E+00
         22   -1    0    0    0    0  0.00000000000E+00  0.00000000000E+00  0.43472130367E+03  0.43472130367E+03  0.00000000000E+00 0.  1.
         22   -1    0    0    0    0 -0.00000000000E+00 -0.00000000000E+00 -0.21384256782E+04  0.21384256782E+04  0.00000000000E+00 0. -1.
        -24    2    1    2    0    0 -0.79966191895E+02  0.17310750394E+03 -0.16148296024E+04  0.16280471621E+04  0.80635707429E+02 0.  0.
         25    2    1    2    0    0  0.24521740187E+03 -0.24486989556E+03 -0.42015629323E+03  0.55881293489E+03  0.12509094907E+03 0.  0.
         24    2    1    2    0    0 -0.16525120997E+03  0.71762391617E+02  0.33128152111E+03  0.38628688492E+03  0.83739524592E+02 0.  0.
        -11    1    5    5    0    0 -0.13453462549E+03  0.39802756722E+02  0.30245423930E+03  0.33341024544E+03  0.00000000000E+00 0.  1.
         12    1    5    5    0    0 -0.30716584484E+02  0.31959634895E+02  0.28827281817E+02  0.52876639473E+02  0.00000000000E+00 0. -1.
         13    1    3    3    0    0 -0.88490345384E+02  0.11271161646E+03 -0.12452787232E+04  0.12534965290E+04  0.00000000000E+00 0. -1.
        -14    1    3    3    0    0  0.85241534894E+01  0.60395887478E+02 -0.36955087921E+03  0.37455063308E+03  0.00000000000E+00 0.  1.
          5    1    4    4  501    0  0.57620247623E+02 -0.11378159147E+03 -0.86400817105E+02  0.15410683661E+03  0.41800000000E+01 0. -1.
         -5    1    4    4    0  501  0.18759715424E+03 -0.13108830409E+03 -0.33375547612E+03  0.40470609829E+03  0.41800000000E+01 0. -1.
</event>
<event>
11    1  0.8299058E-009  0.1363167E+03  0.7561462E-02  0.1111743E+00
         22   -1    0    0    0    0  0.00000000000E+00  0.00000000000E+00  0.42139359122E+03  0.42139359122E+03  0.00000000000E+00 0. -1.
         22   -1    0    0    0    0 -0.00000000000E+00 -0.00000000000E+00 -0.12421473251E+04  0.12421473251E+04  0.00000000000E+00 0. -1.
        -24    2    1    2    0    0  0.24653584001E+02 -0.15387479663E+02 -0.10909287618E+04  0.10943595262E+04  0.81563689797E+02 0.  0.
         25    2    1    2    0    0 -0.56321315573E+02 -0.28431207690E+02 -0.10918355034E+03  0.17762514215E+03  0.12509683969E+03 0.  0.
         24    2    1    2    0    0  0.31667731572E+02  0.43818687353E+02  0.37935857824E+03  0.39155624802E+03  0.80501191900E+02 0.  0.
        -13    1    5    5    0    0  0.16276949045E+02  0.16396851156E+02  0.19236634391E+02  0.30063996752E+02  0.00000000000E+00 0.  1.
         14    1    5    5    0    0  0.15390782527E+02  0.27421836197E+02  0.36012194385E+03  0.36149225127E+03  0.00000000000E+00 0. -1.
         13    1    3    3    0    0  0.31308937891E+02 -0.49175030332E+01 -0.10664090763E+04  0.10668799133E+04  0.00000000000E+00 0. -1.
        -14    1    3    3    0    0 -0.66553538892E+01 -0.10469976630E+02 -0.24519685465E+02  0.27479612831E+02  0.00000000000E+00 0.  1.
          5    1    4    4  501    0 -0.91900147408E+02 -0.20137218197E+02 -0.10431103554E+03  0.14053259118E+03  0.41800000000E+01 0. -1.
         -5    1    4    4    0  501  0.35578831834E+02 -0.82939894925E+01 -0.48725148034E+01  0.37092550962E+02  0.41800000000E+01 0. -1.
</event>
<event>
11    1  0.1335480E-008  0.1610229E+03  0.7561462E-02  0.1086119E+00
         22   -1    0    0    0    0  0.00000000000E+00  0.00000000000E+00  0.10605192732E+04  0.10605192732E+04  0.00000000000E+00 0.  1.
         22   -1    0    0    0    0 -0.00000000000E+00 -0.00000000000E+00 -0.10968314036E+04  0.10968314036E+04  0.00000000000E+00 0. -1.
        -24    2    1    2    0    0  0.28604269642E+02  0.26724976107E+02 -0.10032623904E+04  0.10073409235E+04  0.81657110412E+02 0.  0.
         25    2    1    2    0    0 -0.47162132599E+02 -0.12488630268E+03  0.86364082032E+01  0.18315606686E+03  0.12510276548E+03 0.  0.
         24    2    1    2    0    0  0.18557862957E+02  0.98161326576E+02  0.95831385175E+03  0.96685368646E+03  0.80377685073E+02 0.  0.
        -11    1    5    5    0    0  0.70563437728E+01  0.51119524514E+02  0.79075349577E+03  0.79243554239E+03  0.00000000000E+00 0.  1.
         12    1    5    5    0    0  0.11501519184E+02  0.47041802063E+02  0.16756035598E+03  0.17441814407E+03  0.00000000000E+00 0. -1.
         11    1    3    3    0    0  0.26283777828E+01  0.24224763401E+02 -0.91443487612E+03  0.91475947122E+03  0.00000000000E+00 0. -1.
        -12    1    3    3    0    0  0.25975891859E+02  0.25002127065E+01 -0.88827514244E+02  0.92581452290E+02  0.00000000000E+00 0.  1.
          5    1    4    4  501    0  0.42436605691E+01 -0.83897293603E+02  0.56849422671E+02  0.10151893315E+03  0.41800000000E+01 0.  1.
         -5    1    4    4    0  501 -0.51405793168E+02 -0.40989009081E+02 -0.48213014468E+02  0.81637133712E+02  0.41800000000E+01 0.  1.
</event>
<event>
11    1  0.8299058E-009  0.1461400E+03  0.7561462E-02  0.1100889E+00
         22   -1    0    0    0    0  0.00000000000E+00  0.00000000000E+00  0.10371122254E+03  0.10371122254E+03  0.00000000000E+00 0. -1.
         22   -1    0    0    0    0 -0.00000000000E+00 -0.00000000000E+00 -0.29542317181E+03  0.29542317181E+03  0.00000000000E+00 0. -1.
        -24    2    1    2    0    0  0.68891494024E+01 -0.19938911229E+02 -0.90185044011E+02  0.12149785743E+03  0.78634385835E+02 0.  0.
         25    2    1    2    0    0 -0.62351554362E+02  0.60599327279E+02 -0.67324324664E+02  0.16655529598E+03  0.12509239437E+03 0.  0.
         24    2    1    2    0    0  0.55462404960E+02 -0.40660416050E+02 -0.34202580598E+02  0.11108124094E+03  0.80248849034E+02 0.  0.
        -13    1    5    5    0    0 -0.19936422221E+01  0.13526643517E+02 -0.28846017564E+02  0.31922365568E+02  0.00000000000E+00 0.  1.
         14    1    5    5    0    0  0.57456047182E+02 -0.54187059567E+02 -0.53565630337E+01  0.79158875369E+02  0.00000000000E+00 0. -1.
         13    1    3    3    0    0  0.29449065189E+02 -0.35923706187E+02 -0.79056302451E+02  0.91693287998E+02  0.00000000000E+00 0. -1.
        -14    1    3    3    0    0 -0.22559915787E+02  0.15984794957E+02 -0.11128741560E+02  0.29804569429E+02  0.00000000000E+00 0.  1.
          5    1    4    4  501    0 -0.45637670624E+02  0.83238931357E+02 -0.89461201125E+02  0.13050783724E+03  0.41800000000E+01 0.  1.
         -5    1    4    4    0  501 -0.16713883738E+02 -0.22639604078E+02  0.22136876462E+02  0.36047458744E+02  0.41800000000E+01 0.  1.
</event>
<event>
11    1  0.8299058E-009  0.1442950E+03  0.7561462E-02  0.1102855E+00
         22   -1    0    0    0    0  0.00000000000E+00  0.00000000000E+00  0.32820677658E+02  0.32820677658E+02  0.00000000000E+00 0. -1.
         22   -1    0    0    0    0 -0.00000000000E+00 -0.00000000000E+00 -0.20616913371E+04  0.20616913371E+04  0.00000000000E+00 0. -1.
        -24    2    1    2    0    0  0.64742420358E+02  0.34716886391E+02 -0.12159060956E+04  0.12203679852E+04  0.73983395308E+02 0.  0.
         25    2    1    2    0    0 -0.79762266870E+02  0.16778246342E+02 -0.73600863169E+03  0.75099871883E+03  0.12508733349E+03 0.  0.
         24    2    1    2    0    0  0.15019846512E+02 -0.51495132732E+02 -0.76955932207E+02  0.12314531078E+03  0.79782251044E+02 0.  0.
        -11    1    5    5    0    0  0.26559941788E+02  0.48973116507E+01 -0.55487058845E+02  0.61710840769E+02  0.00000000000E+00 0.  1.
         12    1    5    5    0    0 -0.11540095276E+02 -0.56392444383E+02 -0.21468873362E+02  0.61434470014E+02  0.00000000000E+00 0. -1.
         13    1    3    3    0    0  0.71856139045E+02  0.29708177176E+02 -0.11973666290E+04  0.11998886301E+04  0.00000000000E+00 0. -1.
        -14    1    3    3    0    0 -0.71137186869E+01  0.50087092143E+01 -0.18539466613E+02  0.20479355064E+02  0.00000000000E+00 0.  1.
          5    1    4    4  501    0 -0.65403208158E+02  0.62656561416E+02 -0.33341140833E+03  0.34551999064E+03  0.41800000000E+01 0. -1.
         -5    1    4    4    0  501 -0.14359058712E+02 -0.45878315074E+02 -0.40259722335E+03  0.40547872819E+03  0.41800000000E+01 0. -1.
</event>
<event>
11    1  0.8299058E-009  0.1482590E+03  0.7561462E-02  0.1098671E+00
         22   -1    0    0    0    0  0.00000000000E+00  0.00000000000E+00  0.89671433977E+02  0.89671433977E+02  0.00000000000E+00 0.  1.
         22   -1    0    0    0    0 -0.00000000000E+00 -0.00000000000E+00 -0.19809046233E+04  0.19809046233E+04  0.00000000000E+00 0.  1.
         24    2    1    2    0    0  0.58376742356E+02 -0.42478394308E+02 -0.71755509899E+03  0.72541498500E+03  0.78289988800E+02 0.  0.
         25    2    1    2    0    0 -0.49551612029E+02  0.77460043233E+02 -0.12299797690E+04  0.12397374154E+04  0.12507280529E+03 0.  0.
        -24    2    1    2    0    0 -0.88251303270E+01 -0.34981648925E+02  0.56301678615E+02  0.10542365685E+03  0.81502574946E+02 0.  0.
        -11    1    3    3    0    0  0.71019580331E+02 -0.50577335187E+02 -0.66709105787E+03  0.67276468926E+03  0.00000000000E+00 0.  1.
         12    1    3    3    0    0 -0.12642837975E+02  0.80989408785E+01 -0.50464041115E+02  0.52650295736E+02  0.00000000000E+00 0. -1.
         11    1    5    5    0    0  0.19537397911E+02 -0.16649787527E+02 -0.12671361725E+02  0.28626713919E+02  0.00000000000E+00 0. -1.
        -12    1    5    5    0    0 -0.28362528238E+02 -0.18331861398E+02  0.68973040340E+02  0.76796942935E+02  0.00000000000E+00 0.  1.
          5    1    4    4  501    0  0.32712250654E+02 -0.57373476952E+01 -0.42118917134E+03  0.42251721735E+03  0.41800000000E+01 0. -1.
         -5    1    4    4    0  501 -0.82263862683E+02  0.83197390928E+02 -0.80879059761E+03  0.81722019808E+03  0.41800000000E+01 0. -1.
</event>
<event>
11    1  0.8299058E-009  0.7532411E+03  0.7561462E-02  0.8957326E-01
         22   -1    0    0    0    0  0.00000000000E+00  0.00000000000E+00  0.24168803988E+03  0.24168803988E+03  0.00000000000E+00 0. -1.
         22   -1    0    0    0    0 -0.00000000000E+00 -0.00000000000E+00 -0.29794456981E+04  0.29794456981E+04  0.00000000000E+00 0. -1.
        -24    2    1    2    0    0  0.93947058303E+02  0.50716468056E+02 -0.22411572326E+03  0.26121946776E+03  0.81299096111E+02 0.  0.
         25    2    1    2    0    0 -0.10149207273E+03 -0.75832607395E+03 -0.85271672259E+03  0.11524463236E+04  0.12509054504E+03 0.  0.
         24    2    1    2    0    0  0.75450144289E+01  0.70760960589E+03 -0.16609252124E+04  0.18074679466E+04  0.86599858677E+02 0.  0.
        -11    1    5    5    0    0  0.30591242492E+02  0.52339599458E+03 -0.11505142613E+04  0.12643426184E+04  0.00000000000E+00 0.  1.
         12    1    5    5    0    0 -0.23046228063E+02  0.18421361131E+03 -0.51041095106E+03  0.54312532824E+03  0.00000000000E+00 0. -1.
         13    1    3    3    0    0  0.27970834647E+02  0.49257405237E+02 -0.15781880321E+03  0.16767657621E+03  0.00000000000E+00 0. -1.
        -14    1    3    3    0    0  0.65976223655E+02  0.14590628192E+01 -0.66296920050E+02  0.93542891554E+02  0.00000000000E+00 0.  1.
          5    1    4    4  501    0 -0.82946839340E+01 -0.32997206738E+03 -0.44243953381E+03  0.55201501837E+03  0.41800000000E+01 0. -1.
         -5    1    4    4    0  501 -0.93197388798E+02 -0.42835400657E+03 -0.41027718878E+03  0.60043130519E+03  0.41800000000E+01 0. -1.
</event>
<event>
11    1  0.8299058E-009  0.2153289E+03  0.7561462E-02  0.1044184E+00
         22   -1    0    0    0    0  0.00000000000E+00  0.00000000000E+00  0.85894809562E+02  0.85894809562E+02  0.00000000000E+00 0.  1.
         22   -1    0    0    0    0 -0.00000000000E+00 -0.00000000000E+00 -0.84982750202E+03  0.84982750202E+03  0.00000000000E+00 0.  1.
         24    2    1    2    0    0 -0.52879358077E+02  0.33437646003E+02 -0.22971284121E+03  0.25098455869E+03  0.79441529455E+02 0.  0.
         25    2    1    2    0    0  0.24812603879E+02  0.15297547260E+03 -0.37641406258E+03  0.42585497790E+03  0.12509098756E+03 0.  0.
        -24    2    1    2    0    0  0.28066754198E+02 -0.18641311860E+03 -0.15780578866E+03  0.25888277498E+03  0.81117388833E+02 0.  0.
        -11    1    3    3    0    0 -0.28985716478E+02  0.58957529518E+02 -0.16103715169E+03  0.17392275950E+03  0.00000000000E+00 0.  1.
         12    1    3    3    0    0 -0.23893641599E+02 -0.25519883515E+02 -0.68675689522E+02  0.77061799193E+02  0.00000000000E+00 0. -1.
         13    1    5    5    0    0 -0.28119595273E+02 -0.47619117559E+02 -0.37703764790E+02  0.66931800176E+02  0.00000000000E+00 0. -1.
        -14    1    5    5    0    0  0.56186349471E+02 -0.13879400104E+03 -0.12010202387E+03  0.19195097481E+03  0.00000000000E+00 0.  1.
          5    1    4    4  501    0 -0.67241686832E+01  0.14238530453E+03 -0.36252217865E+03  0.38956205128E+03  0.41800000000E+01 0.  1.
         -5    1    4    4    0  501  0.31536772562E+02  0.10590168070E+02 -0.13891883938E+02  0.36292926621E+02  0.41800000000E+01 0.  1.
</event>
<event>
11    1  0.8299058E-009  0.1523913E+03  0.7561462E-02  0.1094460E+00
         22   -1    0    0    0    0  0.00000000000E+00  0.00000000000E+00  0.53413836311E+03  0.53413836311E+03  0.00000000000E+00 0.  1.
         22   -1    0    0    0    0 -0.00000000000E+00 -0.00000000000E+00 -0.33922535347E+03  0.33922535347E+03  0.00000000000E+00 0. -1.
         24    2    1    2    0    0  0.20157123072E+01 -0.82976014074E+02 -0.24474256641E+03  0.26937472262E+03  0.75991679563E+02 0.  0.
         25    2    1    2    0    0  0.40843735585E+02  0.12131825488E+03  0.28477437017E+02  0.18122948084E+03  0.12508729194E+03 0.  0.
        -24    2    1    2    0    0 -0.42859447892E+02 -0.38342240802E+02  0.41117813903E+03  0.42275951312E+03  0.79693689934E+02 0.  0.
        -11    1    3    3    0    0 -0.12330601728E+02 -0.39934612679E+02 -0.34214183207E+02  0.54013214692E+02  0.00000000000E+00 0.  1.
         12    1    3    3    0    0  0.14346314036E+02 -0.43041401395E+02 -0.21052838321E+03  0.21536150793E+03  0.00000000000E+00 0. -1.
         13    1    5    5    0    0 -0.51394439798E+01 -0.41980516267E+02  0.91019325046E+02  0.10036580674E+03  0.00000000000E+00 0. -1.
        -14    1    5    5    0    0 -0.37720003912E+02  0.36382754655E+01  0.32015881399E+03  0.32239370638E+03  0.00000000000E+00 0.  1.
          5    1    4    4  501    0  0.22444292271E+01  0.90263102411E+01  0.57928694604E+02  0.58819365839E+02  0.41800000000E+01 0.  1.
         -5    1    4    4    0  501  0.38599306358E+02  0.11229194464E+03 -0.29451257587E+02  0.12241011500E+03  0.41800000000E+01 0.  1.
</event>
<event>
11    1  0.8299058E-009  0.6749232E+03  0.7561462E-02  0.9070097E-01
         22   -1    0    0    0    0  0.00000000000E+00  0.00000000000E+00  0.84409359554E+03  0.84409359554E+03  0.00000000000E+00 0.  1.
         22   -1    0    0    0    0 -0.00000000000E+00 -0.00000000000E+00 -0.13027014474E+04  0.13027014474E+04  0.00000000000E+00 0. -1.
        -24    2    1    2    0    0  0.12127217605E+03  0.33262730875E+03 -0.51848684819E+03  0.63416789620E+03  0.89400456415E+02 0.  0.
         25    2    1    2    0    0  0.57469467640E+03 -0.29746664583E+03 -0.30048909500E+03  0.72436433586E+03  0.12509843480E+03 0.  0.
         24    2    1    2    0    0 -0.69596685244E+03 -0.35160662918E+02  0.36036809129E+03  0.78826281094E+03  0.76726566292E+02 0.  0.
        -13    1    5    5    0    0 -0.39630651127E+03 -0.25475344636E+02  0.24732230961E+03  0.46784203412E+03  0.00000000000E+00 0.  1.
         14    1    5    5    0    0 -0.29966034117E+03 -0.96853182815E+01  0.11304578168E+03  0.32042077681E+03  0.00000000000E+00 0. -1.
         13    1    3    3    0    0  0.93215371303E+02  0.17045128079E+03 -0.33840035711E+03  0.39020193012E+03  0.00000000000E+00 0. -1.
        -14    1    3    3    0    0  0.28056804743E+02  0.16217602796E+03 -0.18008649108E+03  0.24396596608E+03  0.00000000000E+00 0.  1.
          5    1    4    4  501    0  0.23315604815E+03 -0.53637939450E+02 -0.11657384707E+03  0.26616856606E+03  0.41800000000E+01 0.  1.
         -5    1    4    4    0  501  0.34153862824E+03 -0.24382870638E+03 -0.18391524793E+03  0.45819576980E+03  0.41800000000E+01 0.  1.
</event>
<event>
11    1  0.8299058E-009  0.3927388E+03  0.7561462E-02  0.9671429E-01
         22   -1    0    0    0    0  0.00000000000E+00  0.00000000000E+00  0.10689707428E+04  0.10689707428E+04  0.00000000000E+00 0. -1.
         22   -1    0    0    0    0 -0.00000000000E+00 -0.00000000000E+00 -0.22010503255E+03  0.22010503255E+03  0.00000000000E+00 0. -1.
         24    2    1    2    0    0  0.25660551594E+01 -0.52175651563E+01 -0.39442463772E+02  0.89543492032E+02  0.80178060537E+02 0.  0.
         25    2    1    2    0    0 -0.16554018665E+03  0.33762194577E+03  0.29193094262E+03  0.49220660092E+03  0.12510607927E+03 0.  0.
        -24    2    1    2    0    0  0.16297413149E+03 -0.33240438061E+03  0.59637723141E+03  0.70732568240E+03  0.87123929279E+02 0.  0.
        -11    1    3    3    0    0 -0.21734786053E+02  0.12069987419E+02  0.13861154559E+02  0.28464313215E+02  0.00000000000E+00 0.  1.
         12    1    3    3    0    0  0.24300841213E+02 -0.17287552576E+02 -0.53303618331E+02  0.61079178817E+02  0.00000000000E+00 0. -1.
         11    1    5    5    0    0  0.16527082708E+03 -0.32950129617E+03  0.59860654082E+03  0.70300451007E+03  0.00000000000E+00 0. -1.
        -12    1    5    5    0    0 -0.22966955893E+01 -0.29030844397E+01 -0.22293094088E+01  0.43211723333E+01  0.00000000000E+00 0.  1.
          5    1    4    4  501    0 -0.11792194694E+03  0.18898073427E+03  0.24044996131E+03  0.32780018272E+03  0.41800000000E+01 0.  1.
         -5    1    4    4    0  501 -0.47618239707E+02  0.14864121150E+03  0.51480981305E+02  0.16440641820E+03  0.41800000000E+01 0.  1.
</event>
<event>
11    1  0.8299058E-009  0.1257205E+03  0.7561462E-02  0.1124642E+00
         22   -1    0    0    0    0  0.00000000000E+00  0.00000000000E+00  0.13026847545E+03  0.13026847545E+03  0.00000000000E+00 0. -1.
         22   -1    0    0    0    0 -0.00000000000E+00 -0.00000000000E+00 -0.89979592569E+03  0.89979592569E+03  0.00000000000E+00 0.  1.
         24    2    1    2    0    0  0.11637017807E+02 -0.13557932647E+02 -0.56647178806E+03  0.57298775514E+03  0.84293790690E+02 0.  0.
         25    2    1    2    0    0  0.46700954692E+01 -0.60527169463E+01 -0.30232793709E+03  0.32727337176E+03  0.12508890095E+03 0.  0.
        -24    2    1    2    0    0 -0.16307113276E+02  0.19610649593E+02  0.99272274916E+02  0.12980327424E+03  0.79645501548E+02 0.  0.
        -11    1    3    3    0    0 -0.31439044703E+02 -0.11599223744E+02 -0.38532565147E+03  0.38678005792E+03  0.00000000000E+00 0.  1.
         12    1    3    3    0    0  0.43076062510E+02 -0.19587089032E+01 -0.18114613660E+03  0.18620769722E+03  0.00000000000E+00 0. -1.
         11    1    5    5    0    0 -0.41235092619E+02  0.17264858881E+02  0.94182173510E+02  0.10425300966E+03  0.00000000000E+00 0. -1.
        -12    1    5    5    0    0  0.24927979343E+02  0.23457907122E+01  0.50901014060E+01  0.25550264588E+02  0.00000000000E+00 0.  1.
          5    1    4    4  501    0  0.51235233581E+02 -0.34202454995E+02 -0.22000247211E+03  0.22850255408E+03  0.41800000000E+01 0. -1.
         -5    1    4    4    0  501 -0.46565138112E+02  0.28149738048E+02 -0.82325464984E+02  0.98770817676E+02  0.41800000000E+01 0. -1.
</event>
<event>
11    1  0.8299058E-009  0.1090212E+04  0.7561462E-02  0.8597647E-01
         22   -1    0    0    0    0  0.00000000000E+00  0.00000000000E+00  0.21233535866E+04  0.21233535866E+04  0.00000000000E+00 0. -1.
         22   -1    0    0    0    0 -0.00000000000E+00 -0.00000000000E+00 -0.10096470624E+04  0.10096470624E+04  0.00000000000E+00 0. -1.
        -24    2    1    2    0    0 -0.37352543564E+03 -0.40086900345E+02 -0.29264234907E+03  0.48350758937E+03  0.83736693636E+02 0.  0.
         25    2    1    2    0    0 -0.71644919384E+03 -0.51777081686E+03  0.17221413067E+03  0.90922552036E+03  0.12508906402E+03 0.  0.
         24    2    1    2    0    0  0.10899746295E+04  0.55785771720E+03  0.12341347427E+04  0.17402675392E+04  0.78693198587E+02 0.  0.
        -11    1    5    5    0    0  0.36822271314E+03  0.23072721421E+03  0.43650262815E+03  0.61592009078E+03  0.00000000000E+00 0.  1.
         12    1    5    5    0    0  0.72175191634E+03  0.32713050299E+03  0.79763211450E+03  0.11243474484E+04  0.00000000000E+00 0. -1.
         11    1    3    3    0    0 -0.27662724612E+03 -0.10816031072E+02 -0.17155800815E+03  0.32568661315E+03  0.00000000000E+00 0. -1.
        -12    1    3    3    0    0 -0.96898189519E+02 -0.29270869273E+02 -0.12108434091E+03  0.15782097622E+03  0.00000000000E+00 0.  1.
          5    1    4    4  501    0  0.39094347602E+01 -0.92921942357E+01  0.36464328125E+01  0.11506408046E+02  0.41800000000E+01 0. -1.
         -5    1    4    4    0  501 -0.72035862860E+03 -0.50847862262E+03  0.16856769786E+03  0.89771911232E+03  0.41800000000E+01 0. -1.
</event>
<event>
11    1  0.8299058E-009  0.1371406E+03  0.7561462E-02  0.1110794E+00
         22   -1    0    0    0    0  0.00000000000E+00  0.00000000000E+00  0.90314948263E+03  0.90314948263E+03  0.00000000000E+00 0. -1.
         22   -1    0    0    0    0 -0.00000000000E+00 -0.00000000000E+00 -0.71770631338E+02  0.71770631338E+02  0.00000000000E+00 0. -1.
         24    2    1    2    0    0  0.38806796816E+02  0.33045679154E+02  0.69056271261E+01  0.88313718385E+02  0.71788862500E+02 0.  0.
         25    2    1    2    0    0 -0.59756466284E+02 -0.48976846633E+02  0.16250592400E+03  0.21914553610E+03  0.12508806454E+03 0.  0.
        -24    2    1    2    0    0  0.20949669468E+02  0.15931167478E+02  0.66196730017E+03  0.66746085948E+03  0.81305606821E+02 0.  0.
        -11    1    3    3    0    0  0.75269751215E+01  0.21776295423E+02  0.36921699550E+02  0.43520963851E+02  0.00000000000E+00 0.  1.
         12    1    3    3    0    0  0.31279821695E+02  0.11269383731E+02 -0.30016072424E+02  0.44792754533E+02  0.00000000000E+00 0. -1.
         13    1    5    5    0    0 -0.69593217988E+01  0.22003015544E+02  0.58351366872E+03  0.58396983349E+03  0.00000000000E+00 0. -1.
        -14    1    5    5    0    0  0.27908991267E+02 -0.60718480658E+01  0.78453631453E+02  0.83491025989E+02  0.00000000000E+00 0.  1.
          5    1    4    4  501    0 -0.19353724531E+01 -0.75138558009E+02  0.51500126773E+02  0.91210109219E+02  0.41800000000E+01 0.  1.
         -5    1    4    4    0  501 -0.57821093831E+02  0.26161711376E+02  0.11100579722E+03  0.12793542688E+03  0.41800000000E+01 0.  1.
</event>
<event>
11    1  0.8299058E-009  0.2024470E+03  0.7561462E-02  0.1052807E+00
         22   -1    0    0    0    0  0.00000000000E+00  0.00000000000E+00  0.70648069334E+03  0.70648069334E+03  0.00000000000E+00 0. -1.
         22   -1    0    0    0    0 -0.00000000000E+00 -0.00000000000E+00 -0.32920795532E+04  0.32920795532E+04  0.00000000000E+00 0. -1.
         24    2    1    2    0    0  0.85039033733E+01  0.16578608212E+03 -0.30420905639E+04  0.30476451515E+04  0.79174673972E+02 0.  0.
         25    2    1    2    0    0  0.10561593742E+03 -0.77030372455E+02 -0.20250301157E+03  0.27155657995E+03  0.12508837636E+03 0.  0.
        -24    2    1    2    0    0 -0.11411984080E+03 -0.88755709665E+02  0.65899471562E+03  0.67935851509E+03  0.79705976904E+02 0.  0.
        -11    1    3    3    0    0 -0.23248602832E+02  0.39965406709E+02 -0.46593494312E+03  0.46822334680E+03  0.00000000000E+00 0.  1.
         12    1    3    3    0    0  0.31752506205E+02  0.12582067541E+03 -0.25761556208E+04  0.25794218047E+04  0.00000000000E+00 0. -1.
         13    1    5    5    0    0 -0.62620242834E+02 -0.61676333215E+02  0.53762702192E+03  0.54476424221E+03  0.00000000000E+00 0. -1.
        -14    1    5    5    0    0 -0.51499597962E+02 -0.27079376450E+02  0.12136769369E+03  0.13459427288E+03  0.00000000000E+00 0.  1.
          5    1    4    4  501    0 -0.19546673731E+02 -0.22254137669E+02 -0.88981996427E+02  0.93875381147E+02  0.41800000000E+01 0.  1.
         -5    1    4    4    0  501  0.12516261115E+03 -0.54776234785E+02 -0.11352101514E+03  0.17768119880E+03  0.41800000000E+01 0.  1.
</event>
<event>
11    1  0.8299058E-009  0.1708027E+03  0.7561462E-02  0.1077335E+00
         22   -1    0    0    0    0  0.00000000000E+00  0.00000000000E+00  0.90764299300E+03  0.90764299300E+03  0.00000000000E+00 0. -1.
         22   -1    0    0    0    0 -0.00000000000E+00 -0.00000000000E+00 -0.85707624782E+03  0.85707624782E+03  0.00000000000E+00 0. -1.
         24    2    1    2    0    0  0.93806895157E+02 -0.71001938989E+02 -0.36445873541E+03  0.39135361788E+03  0.80538658369E+02 0.  0.
         25    2    1    2    0    0 -0.72242495103E+02  0.91789618836E+02 -0.46181246754E+03  0.49250665160E+03  0.12509090483E+03 0.  0.
        -24    2    1    2    0    0 -0.21564400054E+02 -0.20787679848E+02  0.87683794812E+03  0.88085897134E+03  0.78553097565E+02 0.  0.
        -11    1    3    3    0    0  0.24817681648E+02  0.11022452109E+02 -0.31602341714E+02  0.41666770629E+02  0.00000000000E+00 0.  1.
         12    1    3    3    0    0  0.68989213509E+02 -0.82024391098E+02 -0.33285639369E+03  0.34968684725E+03  0.00000000000E+00 0. -1.
         13    1    5    5    0    0 -0.20643047898E+02 -0.32046058410E+01  0.83749876042E+03  0.83775926055E+03  0.00000000000E+00 0. -1.
        -14    1    5    5    0    0 -0.92135215542E+00 -0.17583074007E+02  0.39339187700E+02  0.43099710790E+02  0.00000000000E+00 0.  1.
          5    1    4    4  501    0 -0.70906354940E+02  0.17742927374E+02 -0.35495813692E+03  0.36242968147E+03  0.41800000000E+01 0.  1.
         -5    1    4    4    0  501 -0.13361401626E+01  0.74046691462E+02 -0.10685433062E+03  0.13007697013E+03  0.41800000000E+01 0.  1.
</event>
<event>
11    1  0.8299058E-009  0.5486409E+03  0.7561462E-02  0.9290952E-01
         22   -1    0    0    0    0  0.00000000000E+00  0.00000000000E+00  0.47894303915E+03  0.47894303915E+03  0.00000000000E+00 0.  1.
         22   -1    0    0    0    0 -0.00000000000E+00 -0.00000000000E+00 -0.82551554581E+03  0.82551554581E+03  0.00000000000E+00 0. -1.
        -24    2    1    2    0    0  0.34105406663E+03 -0.34644573273E+03 -0.53252932108E+03  0.72516011240E+03  0.76988237494E+02 0.  0.
         25    2    1    2    0    0 -0.22842101435E+03  0.26414932936E+03  0.61689325960E+02  0.37603221861E+03  0.12507449180E+03 0.  0.
         24    2    1    2    0    0 -0.11263305227E+03  0.82296403368E+02  0.12426748846E+03  0.20326625395E+03  0.80099056402E+02 0.  0.
        -11    1    5    5    0    0 -0.11744817706E+03  0.50405068274E+02  0.90736894747E+02  0.15674160032E+03  0.00000000000E+00 0.  1.
         12    1    5    5    0    0  0.48151247898E+01  0.31891335094E+02  0.33530593712E+02  0.46524653631E+02  0.00000000000E+00 0. -1.
         11    1    3    3    0    0  0.31068476663E+03 -0.31383338416E+03 -0.51187965505E+03  0.67604526363E+03  0.00000000000E+00 0. -1.
        -12    1    3    3    0    0  0.30369299999E+02 -0.32612348574E+02 -0.20649666027E+02  0.49114848762E+02  0.00000000000E+00 0.  1.
          5    1    4    4  501    0 -0.98261787818E+02  0.63343620501E+02  0.70407110614E+02  0.13653727267E+03  0.41800000000E+01 0. -1.
         -5    1    4    4    0  501 -0.13015922653E+03  0.20080570886E+03 -0.87177846541E+01  0.23949494594E+03  0.41800000000E+01 0. -1.
</event>
<event>
11    1  0.8299058E-009  0.1286432E+03  0.7561462E-02  0.1120947E+00
         22   -1    0    0    0    0  0.00000000000E+00  0.00000000000E+00  0.27683192245E+03  0.27683192245E+03  0.00000000000E+00 0.  1.
         22   -1    0    0    0    0 -0.00000000000E+00 -0.00000000000E+00 -0.17397658042E+04  0.17397658042E+04  0.00000000000E+00 0.  1.
         24    2    1    2    0    0 -0.72329311634E+01  0.10794916885E+03 -0.15258557486E+04  0.15317609307E+04  0.79689680048E+02 0.  0.
         25    2    1    2    0    0  0.22985933883E+02 -0.11265730276E+02 -0.17367262308E+03  0.21555893136E+03  0.12509277775E+03 0.  0.
        -24    2    1    2    0    0 -0.15753002719E+02 -0.96683438578E+02  0.23659448988E+03  0.26927786459E+03  0.83293284990E+02 0.  0.
        -13    1    3    3    0    0 -0.40721647156E+02  0.59009738408E+02 -0.10013790487E+04  0.10039424291E+04  0.00000000000E+00 0.  1.
         14    1    3    3    0    0  0.33488715993E+02  0.48939430446E+02 -0.52447669982E+03  0.52781850158E+03  0.00000000000E+00 0. -1.
         13    1    5    5    0    0 -0.20391109686E+02  0.77296639812E+01  0.62785026796E+02  0.66464311094E+02  0.00000000000E+00 0. -1.
        -14    1    5    5    0    0  0.46381069666E+01 -0.10441310256E+03  0.17380946309E+03  0.20281355349E+03  0.00000000000E+00 0.  1.
          5    1    4    4  501    0  0.30150093151E+02  0.31423491109E+02 -0.82551378807E+01  0.44520597614E+02  0.41800000000E+01 0. -1.
         -5    1    4    4    0  501 -0.71641592682E+01 -0.42689221385E+02 -0.16541748520E+03  0.17103833375E+03  0.41800000000E+01 0. -1.
</event>
<event>
11    1  0.8299058E-009  0.1261659E+03  0.7561462E-02  0.1124072E+00
         22   -1    0    0    0    0  0.00000000000E+00  0.00000000000E+00  0.15003907216E+04  0.15003907216E+04  0.00000000000E+00 0. -1.
         22   -1    0    0    0    0 -0.00000000000E+00 -0.00000000000E+00 -0.51903460604E+02  0.51903460604E+02  0.00000000000E+00 0. -1.
         24    2    1    2    0    0 -0.19811019695E+02 -0.89035485979E+01 -0.17716978158E+01  0.82576300049E+02  0.79648959426E+02 0.  0.
         25    2    1    2    0    0  0.59652963197E+00  0.12627100306E+02  0.48959093288E+03  0.50547562468E+03  0.12508607464E+03 0.  0.
        -24    2    1    2    0    0  0.19214490063E+02 -0.37235517083E+01  0.96066802595E+03  0.96424225750E+03  0.80604054499E+02 0.  0.
        -11    1    3    3    0    0 -0.17786937409E+02  0.22108469610E+02  0.27766313971E+02  0.39700475594E+02  0.00000000000E+00 0.  1.
         12    1    3    3    0    0 -0.20240822860E+01 -0.31012018208E+02 -0.29538011787E+02  0.42875824455E+02  0.00000000000E+00 0. -1.
         11    1    5    5    0    0 -0.57695523375E+01 -0.14318315265E+02  0.85518467152E+03  0.85532398791E+03  0.00000000000E+00 0. -1.
        -12    1    5    5    0    0  0.24984042401E+02  0.10594763557E+02  0.10548335443E+03  0.10891826959E+03  0.00000000000E+00 0.  1.
          5    1    4    4  501    0  0.55378862019E+02  0.15074793816E+02  0.13660506868E+03  0.14823118753E+03  0.41800000000E+01 0.  1.
         -5    1    4    4    0  501 -0.54782332387E+02 -0.24476935093E+01  0.35298586420E+03  0.35724443715E+03  0.41800000000E+01 0.  1.
</event>
<event>
11    1  0.8299058E-009  0.1503586E+03  0.7561462E-02  0.1096513E+00
         22   -1    0    0    0    0  0.00000000000E+00  0.00000000000E+00  0.58839505166E+03  0.58839505166E+03  0.00000000000E+00 0. -1.
         22   -1    0    0    0    0 -0.00000000000E+00 -0.00000000000E+00 -0.28885546295E+03  0.28885546295E+03  0.00000000000E+00 0.  1.
         24    2    1    2    0    0  0.38010274791E+02  0.43879304878E+02 -0.22097121045E+03  0.24475464025E+03  0.87786010797E+02 0.  0.
         25    2    1    2    0    0 -0.76267500715E+02 -0.10910043276E+03  0.12421478562E+03  0.22090053560E+03  0.12509235616E+03 0.  0.
        -24    2    1    2    0    0  0.38257225923E+02  0.65221127880E+02  0.39629601355E+03  0.41159533875E+03  0.81503261712E+02 0.  0.
        -13    1    3    3    0    0  0.57093827057E+01  0.24557324345E+02 -0.20016745734E+03  0.20174902778E+03  0.00000000000E+00 0.  1.
         14    1    3    3    0    0  0.32300892086E+02  0.19321980533E+02 -0.20803753110E+02  0.43005612479E+02  0.00000000000E+00 0. -1.
         13    1    5    5    0    0 -0.25757721390E+01  0.26249821783E+02  0.29039762519E+03  0.29159298425E+03  0.00000000000E+00 0. -1.
        -14    1    5    5    0    0  0.40832998062E+02  0.38971306097E+02  0.10589838836E+03  0.12000235450E+03  0.00000000000E+00 0.  1.
          5    1    4    4  501    0 -0.71195474412E+02 -0.21689264970E+01  0.27171209165E+02  0.76349504428E+02  0.41800000000E+01 0.  1.
         -5    1    4    4    0  501 -0.50720263025E+01 -0.10693150626E+03  0.97043576454E+02  0.14455103117E+03  0.41800000000E+01 0.  1.
</event>
<event>
11    1  0.8299058E-009  0.1316912E+03  0.7561462E-02  0.1117208E+00
         22   -1    0    0    0    0  0.00000000000E+00  0.00000000000E+00  0.70062721197E+03  0.70062721197E+03  0.00000000000E+00 0.  1.
         22   -1    0    0    0    0 -0.00000000000E+00 -0.00000000000E+00 -0.23359297745E+03  0.23359297745E+03  0.00000000000E+00 0.  1.
        -24    2    1    2    0    0 -0.16789829102E+00  0.40699867409E+02 -0.20099209574E+03  0.22024919342E+03  0.80345362386E+02 0.  0.
         25    2    1    2    0    0 -0.10063387818E+02 -0.52773368322E+02  0.22183770779E+03  0.26028127694E+03  0.12509226335E+03 0.  0.
         24    2    1    2    0    0  0.10231286109E+02  0.12073500913E+02  0.44618862247E+03  0.45368971905E+03  0.80620256218E+02 0.  0.
        -13    1    5    5    0    0  0.35598162897E+02  0.35171553484E+01  0.38791578538E+03  0.38956162045E+03  0.00000000000E+00 0.  1.
         14    1    5    5    0    0 -0.25366876788E+02  0.85563455644E+01  0.58272837090E+02  0.64128098599E+02  0.00000000000E+00 0. -1.
         13    1    3    3    0    0 -0.52579907278E+00  0.54392833072E+02 -0.70526532945E+02  0.89066540314E+02  0.00000000000E+00 0. -1.
        -14    1    3    3    0    0  0.35790078176E+00 -0.13692965662E+02 -0.13046556279E+03  0.13118265311E+03  0.00000000000E+00 0.  1.
          5    1    4    4  501    0  0.10875341798E+02 -0.44965935405E+02  0.10369096119E+02  0.47594106362E+02  0.41800000000E+01 0.  1.
         -5    1    4    4    0  501 -0.20938729616E+02 -0.78074329171E+01  0.21146861167E+03  0.21268717058E+03  0.41800000000E+01 0.  1.
</event>
<event>
11    1  0.8299058E-009  0.2006042E+03  0.7561462E-02  0.1054097E+00
         22   -1    0    0    0    0  0.00000000000E+00  0.00000000000E+00  0.13781197549E+04  0.13781197549E+04  0.00000000000E+00 0.  1.
         22   -1    0    0    0    0 -0.00000000000E+00 -0.00000000000E+00 -0.12803680363E+04  0.12803680363E+04  0.00000000000E+00 0.  1.
        -24    2    1    2    0    0  0.15839381274E+03  0.28609947266E+02 -0.11706050728E+04  0.11842876493E+04  0.79459869531E+02 0.  0.
         25    2    1    2    0    0 -0.89926453032E+02 -0.95938070509E+02 -0.17626567264E+02  0.18234652052E+03  0.12509467352E+03 0.  0.
         24    2    1    2    0    0 -0.68467359704E+02  0.67328123244E+02  0.12859833586E+04  0.12918536214E+04  0.76887742405E+02 0.  0.
        -13    1    5    5    0    0 -0.32334566906E+02  0.78730627360E+02  0.89859688756E+03  0.90261863610E+03  0.00000000000E+00 0.  1.
         14    1    5    5    0    0 -0.36132792798E+02 -0.11402504116E+02  0.38738647105E+03  0.38923498529E+03  0.00000000000E+00 0. -1.
         13    1    3    3    0    0  0.16585701221E+02  0.29468078173E+02 -0.14300023454E+03  0.14694393555E+03  0.00000000000E+00 0. -1.
        -14    1    3    3    0    0  0.14180811152E+03 -0.85813090694E+00 -0.10276048382E+04  0.10373437138E+04  0.00000000000E+00 0.  1.
          5    1    4    4  501    0 -0.89452385177E+02 -0.87843071627E+02 -0.59964245578E+02  0.13903710870E+03  0.41800000000E+01 0. -1.
         -5    1    4    4    0  501 -0.47406785508E+00 -0.80949988818E+01  0.42337678314E+02  0.43309411821E+02  0.41800000000E+01 0. -1.
</event>
<event>
11    1  0.8299058E-009  0.1439023E+03  0.7561462E-02  0.1103277E+00
         22   -1    0    0    0    0  0.00000000000E+00  0.00000000000E+00  0.23479288604E+04  0.23479288604E+04  0.00000000000E+00 0. -1.
         22   -1    0    0    0    0 -0.00000000000E+00 -0.00000000000E+00 -0.31060837607E+03  0.31060837607E+03  0.00000000000E+00 0.  1.
         24    2    1    2    0    0 -0.27724754356E+01  0.35747178768E+02 -0.16945103561E+03  0.19200133972E+03  0.82857187828E+02 0.  0.
         25    2    1    2    0    0 -0.68170655880E+02 -0.39661446601E+02 -0.86055088869E+02  0.17113264459E+03  0.12514245904E+03 0.  0.
        -24    2    1    2    0    0  0.70943131316E+02  0.39142678324E+01  0.22928266088E+04  0.22954032521E+04  0.82304207411E+02 0.  0.
        -11    1    3    3    0    0 -0.21972245242E+02 -0.17385214614E+02 -0.91751600596E+02  0.95934255926E+02  0.00000000000E+00 0.  1.
         12    1    3    3    0    0  0.19199769806E+02  0.53132393382E+02 -0.77699435017E+02  0.96067083796E+02  0.00000000000E+00 0. -1.
         11    1    5    5    0    0  0.39665184287E+02  0.18676050928E+02  0.20088281702E+04  0.20093065319E+04  0.00000000000E+00 0. -1.
        -12    1    5    5    0    0  0.31277947029E+02 -0.14761783096E+02  0.28399843861E+03  0.28609672026E+03  0.00000000000E+00 0.  1.
          5    1    4    4  501    0 -0.79175337331E+02 -0.37382297137E+02 -0.35156777243E+01  0.87726863450E+02  0.41800000000E+01 0. -1.
         -5    1    4    4    0  501  0.11004681452E+02 -0.22791494631E+01 -0.82539411145E+02  0.83405781144E+02  0.41800000000E+01 0. -1.
</event>
<event>
11    1  0.8299058E-009  0.1463551E+03  0.7561462E-02  0.1100662E+00
         22   -1    0    0    0    0  0.00000000000E+00  0.00000000000E+00  0.13100744290E+04  0.13100744290E+04  0.00000000000E+00 0. -1.
         22   -1    0    0    0    0 -0.00000000000E+00 -0.00000000000E+00 -0.51662365856E+03  0.51662365856E+03  0.00000000000E+00 0. -1.
         24    2    1    2    0    0 -0.80714873749E+02  0.26778303876E+02 -0.49335138644E+03  0.50699099320E+03  0.80076889764E+02 0.  0.
         25    2    1    2    0    0 -0.43088752083E+01 -0.58982150736E+02  0.37149068769E+03  0.39641196294E+03  0.12505859751E+03 0.  0.
        -24    2    1    2    0    0  0.85023748957E+02  0.32203846859E+02  0.91531146916E+03  0.92329513139E+03  0.80079263428E+02 0.  0.
        -13    1    3    3    0    0 -0.31038124315E+02 -0.39439524230E+01 -0.44749364259E+02  0.54602431478E+02  0.00000000000E+00 0.  1.
         14    1    3    3    0    0 -0.49676749434E+02  0.30722256299E+02 -0.44860202218E+03  0.45238856172E+03  0.00000000000E+00 0. -1.
         13    1    5    5    0    0  0.83611780635E+02  0.52321716851E+02  0.81731574492E+03  0.82324572201E+03  0.00000000000E+00 0. -1.
        -14    1    5    5    0    0  0.14119683219E+01 -0.20117869992E+02  0.97995724245E+02  0.10004940938E+03  0.00000000000E+00 0.  1.
          5    1    4    4  501    0  0.17424877062E+02  0.33334910710E+02  0.61512444886E+02  0.72222544185E+02  0.41800000000E+01 0. -1.
         -5    1    4    4    0  501 -0.21733752270E+02 -0.92317061446E+02  0.30997824280E+03  0.32418941876E+03  0.41800000000E+01 0. -1.
</event>
<event>
11    1  0.8299058E-009  0.2932013E+03  0.7561462E-02  0.1003110E+00
         22   -1    0    0    0    0  0.00000000000E+00  0.00000000000E+00  0.23514756837E+04  0.23514756837E+04  0.00000000000E+00 0.  1.
         22   -1    0    0    0    0 -0.00000000000E+00 -0.00000000000E+00 -0.84525295926E+03  0.84525295926E+03  0.00000000000E+00 0. -1.
        -24    2    1    2    0    0  0.74616997337E+02 -0.25421075709E+03 -0.76526436570E+03  0.81435232272E+03  0.85728354627E+02 0.  0.
         25    2    1    2    0    0 -0.50352501204E+02  0.26568733498E+03  0.35260860273E+03  0.46163402063E+03  0.12509199791E+03 0.  0.
         24    2    1    2    0    0 -0.24264496133E+02 -0.11476577894E+02  0.19188784874E+04  0.19207422996E+04  0.80223777168E+02 0.  0.
        -13    1    5    5    0    0 -0.30853755673E+02  0.11877519687E+02  0.17294407682E+04  0.17297567460E+04  0.00000000000E+00 0.  1.
         14    1    5    5    0    0  0.65892595404E+01 -0.23354097581E+02  0.18943771927E+03  0.19098555363E+03  0.00000000000E+00 0. -1.
         11    1    3    3    0    0  0.92559944029E+02 -0.19221017357E+03 -0.60886167629E+03  0.64515473719E+03  0.00000000000E+00 0. -1.
        -12    1    3    3    0    0 -0.17942946692E+02 -0.62000583517E+02 -0.15640268941E+03  0.16919758552E+03  0.00000000000E+00 0.  1.
          5    1    4    4  501    0 -0.44046041457E+02  0.19310258744E+03  0.15674533861E+03  0.25261677818E+03  0.41800000000E+01 0. -1.
         -5    1    4    4    0  501 -0.63064597470E+01  0.72584747545E+02  0.19586326412E+03  0.20901724245E+03  0.41800000000E+01 0. -1.
</event>
<event>
11    1  0.8299058E-009  0.9863184E+03  0.7561462E-02  0.8692137E-01
         22   -1    0    0    0    0  0.00000000000E+00  0.00000000000E+00  0.68343101755E+03  0.68343101755E+03  0.00000000000E+00 0.  1.
         22   -1    0    0    0    0 -0.00000000000E+00 -0.00000000000E+00 -0.17607539890E+04  0.17607539890E+04  0.00000000000E+00 0.  1.
         24    2    1    2    0    0 -0.24290559426E+02  0.28729272432E+01 -0.10038593927E+03  0.13725122539E+03  0.90345321298E+02 0.  0.
         25    2    1    2    0    0 -0.90916906760E+03 -0.31936215596E+03 -0.88386429336E+03  0.13135617099E+04  0.12509075342E+03 0.  0.
        -24    2    1    2    0    0  0.93345962703E+03  0.31648922872E+03 -0.93072738869E+02  0.99337207126E+03  0.81321768615E+02 0.  0.
        -11    1    3    3    0    0 -0.56320236042E+00 -0.11052759028E+01  0.17192214602E+02  0.17236910241E+02  0.00000000000E+00 0.  1.
         12    1    3    3    0    0 -0.23727357066E+02  0.39782031460E+01 -0.11757815387E+03  0.12001431515E+03  0.00000000000E+00 0. -1.
         13    1    5    5    0    0  0.63264128798E+03  0.22966424826E+03 -0.28229460108E+02  0.67363014229E+03  0.00000000000E+00 0. -1.
        -14    1    5    5    0    0  0.30081833905E+03  0.86824980455E+02 -0.64843278760E+02  0.31974192897E+03  0.00000000000E+00 0.  1.
          5    1    4    4  501    0 -0.80820349641E+03 -0.26626430291E+03 -0.82462540994E+03  0.11849532099E+04  0.41800000000E+01 0. -1.
         -5    1    4    4    0  501 -0.10096557119E+03 -0.53097853053E+02 -0.59238883429E+02  0.12860850001E+03  0.41800000000E+01 0. -1.
</event>
<event>
11    1  0.8299058E-009  0.1446228E+03  0.7561462E-02  0.1102503E+00
         22   -1    0    0    0    0  0.00000000000E+00  0.00000000000E+00  0.24203717335E+04  0.24203717335E+04  0.00000000000E+00 0.  1.
         22   -1    0    0    0    0 -0.00000000000E+00 -0.00000000000E+00 -0.42702973480E+03  0.42702973480E+03  0.00000000000E+00 0. -1.
         24    2    1    2    0    0 -0.20771474804E+02  0.75789462688E+01 -0.29867324694E+03  0.31015229232E+03  0.80621593891E+02 0.  0.
         25    2    1    2    0    0  0.20751654586E+02  0.65084424843E+02 -0.79526247849E+02  0.16321153462E+03  0.12508783878E+03 0.  0.
        -24    2    1    2    0    0  0.19820218156E-01 -0.72663371111E+02  0.23715414935E+04  0.23740376414E+04  0.81029015538E+02 0.  0.
        -11    1    3    3    0    0 -0.23003179650E+01  0.32644017173E+02 -0.51446748103E+02  0.60972872742E+02  0.00000000000E+00 0.  1.
         12    1    3    3    0    0 -0.18471156839E+02 -0.25065070904E+02 -0.24722649883E+03  0.24917941958E+03  0.00000000000E+00 0. -1.
         11    1    5    5    0    0 -0.27232182972E+02 -0.62695959623E+02  0.10747366968E+04  0.10769082332E+04  0.00000000000E+00 0. -1.
        -12    1    5    5    0    0  0.27252003190E+02 -0.99674114882E+01  0.12968047967E+04  0.12971294082E+04  0.00000000000E+00 0.  1.
          5    1    4    4  501    0  0.43708240760E+02  0.47321395923E+02  0.13259676604E+02  0.65901564822E+02  0.41800000000E+01 0. -1.
         -5    1    4    4    0  501 -0.22956586174E+02  0.17763028920E+02 -0.92785924453E+02  0.97309969797E+02  0.41800000000E+01 0. -1.
</event>
<event>
11    1  0.8299058E-009  0.1392882E+03  0.7561462E-02  0.1108356E+00
         22   -1    0    0    0    0  0.00000000000E+00  0.00000000000E+00  0.83163012431E+03  0.83163012431E+03  0.00000000000E+00 0.  1.
         22   -1    0    0    0    0 -0.00000000000E+00 -0.00000000000E+00 -0.14132672588E+03  0.14132672588E+03  0.00000000000E+00 0.  1.
        -24    2    1    2    0    0 -0.46981632643E+02  0.16827359716E+02 -0.86245031583E+02  0.12768791852E+03  0.79847136591E+02 0.  0.
         25    2    1    2    0    0  0.37457666746E+02  0.46409636333E+02  0.12942275587E+03  0.18961915052E+03  0.12509293091E+03 0.  0.
         24    2    1    2    0    0  0.95239658976E+01 -0.63236996050E+02  0.64712567415E+03  0.65564978116E+03  0.83757828262E+02 0.  0.
        -13    1    5    5    0    0 -0.12228500346E+02 -0.78081144655E+02  0.48973922933E+03  0.49607531093E+03  0.00000000000E+00 0.  1.
         14    1    5    5    0    0  0.21752466244E+02  0.14844148605E+02  0.15738644482E+03  0.15957447022E+03  0.00000000000E+00 0. -1.
         11    1    3    3    0    0  0.18089395351E+02 -0.97796947251E-01 -0.45755405110E+02  0.49201553687E+02  0.00000000000E+00 0. -1.
        -12    1    3    3    0    0 -0.65071027995E+02  0.16925156664E+02 -0.40489626472E+02  0.78486364830E+02  0.00000000000E+00 0.  1.
          5    1    4    4  501    0 -0.22809627032E+02  0.32105916785E+02  0.12057087592E+03  0.12690893388E+03  0.41800000000E+01 0.  1.
         -5    1    4    4    0  501  0.60267293778E+02  0.14303719548E+02  0.88518799505E+01  0.62710216639E+02  0.41800000000E+01 0.  1.
</event>
<event>
11    1  0.8299058E-009  0.1264084E+03  0.7561462E-02  0.1123762E+00
         22   -1    0    0    0    0  0.00000000000E+00  0.00000000000E+00  0.34009023239E+04  0.34009023239E+04  0.00000000000E+00 0.  1.
         22   -1    0    0    0    0 -0.00000000000E+00 -0.00000000000E+00 -0.93556303204E+02  0.93556303204E+02  0.00000000000E+00 0. -1.
        -24    2    1    2    0    0  0.37329893346E+00 -0.31667027438E+01 -0.65463320049E+02  0.10415994248E+03  0.80954802122E+02 0.  0.
         25    2    1    2    0    0  0.17827877711E+02  0.48374352716E+01  0.48164314436E+03  0.49796237169E+03  0.12508065840E+03 0.  0.
         24    2    1    2    0    0 -0.18201176645E+02 -0.16707325279E+01  0.28911661964E+04  0.28923363130E+04  0.80207841500E+02 0.  0.
        -11    1    5    5    0    0 -0.32813053262E+01  0.25466921761E+02  0.24280799120E+04  0.24282156803E+04  0.00000000000E+00 0.  1.
         12    1    5    5    0    0 -0.14919871318E+02 -0.27137654288E+02  0.46308628438E+03  0.46412063261E+03  0.00000000000E+00 0. -1.
         13    1    3    3    0    0  0.21523633313E+02  0.15440678583E+02 -0.70706672625E+02  0.75505727596E+02  0.00000000000E+00 0. -1.
        -14    1    3    3    0    0 -0.21150334380E+02 -0.18607381326E+02  0.52433525760E+01  0.28654214881E+02  0.00000000000E+00 0.  1.
          5    1    4    4  501    0 -0.22898589124E+02  0.53321192084E+02  0.29904507305E+03  0.30465213445E+03  0.41800000000E+01 0.  1.
         -5    1    4    4    0  501  0.40726466836E+02 -0.48483756812E+02  0.18259807131E+03  0.19331023724E+03  0.41800000000E+01 0.  1.
</event>
<event>
11    1  0.9558187E-009  0.2428590E+03  0.7561462E-02  0.1027774E+00
         22   -1    0    0    0    0  0.00000000000E+00  0.00000000000E+00  0.11443027742E+04  0.11443027742E+04  0.00000000000E+00 0.  1.
         22   -1    0    0    0    0 -0.00000000000E+00 -0.00000000000E+00 -0.68119154618E+03  0.68119154618E+03  0.00000000000E+00 0. -1.
         24    2    1    2    0    0 -0.19241529110E+03  0.20965292375E+02 -0.46360822042E+03  0.50892282648E+03  0.81281446441E+02 0.  0.
         25    2    1    2    0    0  0.29499417917E+03 -0.18124722363E+02 -0.55456186166E+02  0.32568974130E+03  0.12509335594E+03 0.  0.
        -24    2    1    2    0    0 -0.10257888807E+03 -0.28405700114E+01  0.98217563465E+03  0.99088175263E+03  0.81530198633E+02 0.  0.
        -11    1    3    3    0    0 -0.55681813656E+02 -0.29677305895E+02 -0.11787828268E+03  0.13370301562E+03  0.00000000000E+00 0.  1.
         12    1    3    3    0    0 -0.13673347744E+03  0.50642598269E+02 -0.34572993774E+03  0.37521981087E+03  0.00000000000E+00 0. -1.
         11    1    5    5    0    0 -0.19814976092E+02 -0.26776922607E+02  0.12414412115E+03  0.12853559693E+03  0.00000000000E+00 0. -1.
        -12    1    5    5    0    0 -0.82763911976E+02  0.23936352595E+02  0.85803151350E+03  0.86234615570E+03  0.00000000000E+00 0.  1.
          5    1    4    4  501    0  0.17049895634E+03 -0.65219369100E+02 -0.60688483549E+02  0.19241627960E+03  0.41800000000E+01 0. -1.
         -5    1    4    4    0  501  0.12449522283E+03  0.47094646737E+02  0.52322973836E+01  0.13327346170E+03  0.41800000000E+01 0. -1.
</event>
<event>
11    1  0.8299058E-009  0.3514643E+03  0.7561462E-02  0.9804928E-01
         22   -1    0    0    0    0  0.00000000000E+00  0.00000000000E+00  0.22370011517E+03  0.22370011517E+03  0.00000000000E+00 0.  1.
         22   -1    0    0    0    0 -0.00000000000E+00 -0.00000000000E+00 -0.23391166561E+04  0.23391166561E+04  0.00000000000E+00 0. -1.
        -24    2    1    2    0    0 -0.69384745533E+01  0.82565483706E+02 -0.36118510189E+03  0.37920032472E+03  0.80454999300E+02 0.  0.
         25    2    1    2    0    0 -0.18676329808E+03 -0.34210226451E+03 -0.18010036934E+04  0.18469384803E+04  0.12511178035E+03 0.  0.
         24    2    1    2    0    0  0.19370177263E+03  0.25953678080E+03  0.46772254350E+02  0.33667796624E+03  0.79276048476E+02 0.  0.
        -11    1    5    5    0    0  0.63811816659E+02  0.15083267729E+03  0.29670171142E+02  0.16644147181E+03  0.00000000000E+00 0.  1.
         12    1    5    5    0    0  0.12988995598E+03  0.10870410351E+03  0.17102083207E+02  0.17023649442E+03  0.00000000000E+00 0. -1.
         13    1    3    3    0    0  0.32158507289E+02  0.50415159845E+02 -0.13890917946E+03  0.15123365390E+03  0.00000000000E+00 0. -1.
        -14    1    3    3    0    0 -0.39096981842E+02  0.32150323861E+02 -0.22227592244E+03  0.22796667083E+03  0.00000000000E+00 0.  1.
          5    1    4    4  501    0 -0.10239373745E+03 -0.28135395139E+03 -0.14610440249E+04  0.14914126319E+04  0.41800000000E+01 0. -1.
         -5    1    4    4    0  501 -0.84369560632E+02 -0.60748313114E+02 -0.33995966847E+03  0.35552584842E+03  0.41800000000E+01 0. -1.
</event>
<event>
11    1  0.8299058E-009  0.1375662E+03  0.7561462E-02  0.1110307E+00
         22   -1    0    0    0    0  0.00000000000E+00  0.00000000000E+00  0.27450043065E+03  0.27450043065E+03  0.00000000000E+00 0. -1.
         22   -1    0    0    0    0 -0.00000000000E+00 -0.00000000000E+00 -0.37441583494E+03  0.37441583494E+03  0.00000000000E+00 0. -1.
         24    2    1    2    0    0 -0.33419978482E+02 -0.30193621448E+02 -0.26126860415E+03  0.27680855528E+03  0.79581046886E+02 0.  0.
         25    2    1    2    0    0  0.49637901992E+02  0.80472256976E+02 -0.27914203987E+02  0.15926764150E+03  0.12508906182E+03 0.  0.
        -24    2    1    2    0    0 -0.16217923509E+02 -0.50278635528E+02  0.18926740386E+03  0.21284006881E+03  0.81778863366E+02 0.  0.
        -11    1    3    3    0    0 -0.31398333246E+02 -0.53557581246E+02 -0.13789657094E+03  0.15122742514E+03  0.00000000000E+00 0.  1.
         12    1    3    3    0    0 -0.20216452362E+01  0.23363959798E+02 -0.12337203322E+03  0.12558113014E+03  0.00000000000E+00 0. -1.
         11    1    5    5    0    0 -0.60015523740E+01 -0.44244140666E+02  0.19472593005E+03  0.19977925430E+03  0.00000000000E+00 0. -1.
        -12    1    5    5    0    0 -0.10216371135E+02 -0.60344948621E+01 -0.54585261933E+01  0.13060814508E+02  0.00000000000E+00 0.  1.
          5    1    4    4  501    0 -0.61532273935E+01  0.92686895212E+02  0.51767588858E+01  0.93128910570E+02  0.41800000000E+01 0.  1.
         -5    1    4    4    0  501  0.55791129385E+02 -0.12214638236E+02 -0.33090962873E+02  0.66138730931E+02  0.41800000000E+01 0.  1.
</event>
<event>
11    1  0.8299058E-009  0.1304104E+03  0.7561462E-02  0.1118766E+00
         22   -1    0    0    0    0  0.00000000000E+00  0.00000000000E+00  0.24677313810E+03  0.24677313810E+03  0.00000000000E+00 0. -1.
         22   -1    0    0    0    0 -0.00000000000E+00 -0.00000000000E+00 -0.10492717099E+04  0.10492717099E+04  0.00000000000E+00 0.  1.
         24    2    1    2    0    0  0.35753110228E+02  0.69267065098E+01 -0.98425992817E+03  0.98866450218E+03  0.85811581572E+02 0.  0.
         25    2    1    2    0    0 -0.62024435841E+02  0.18631154292E+02  0.53269823072E+02  0.15059740803E+03  0.12509098570E+03 0.  0.
        -24    2    1    2    0    0  0.26271325613E+02 -0.25557860802E+02  0.12849153324E+03  0.15678293784E+03  0.82020903940E+02 0.  0.
        -11    1    3    3    0    0  0.39407944375E+01 -0.28078113912E+02 -0.69373861281E+03  0.69431777540E+03  0.00000000000E+00 0.  1.
         12    1    3    3    0    0  0.31812315791E+02  0.35004820422E+02 -0.29052131536E+03  0.29434672678E+03  0.00000000000E+00 0. -1.
         11    1    5    5    0    0  0.40666583499E+02 -0.26254011421E+02  0.13311879371E+03  0.14164624022E+03  0.00000000000E+00 0. -1.
        -12    1    5    5    0    0 -0.14395257886E+02  0.69615061921E+00 -0.46272604679E+01  0.15136697617E+02  0.00000000000E+00 0.  1.
          5    1    4    4  501    0 -0.18487207946E+02 -0.14559715086E+02 -0.37526346467E+02  0.44491136648E+02  0.41800000000E+01 0. -1.
         -5    1    4    4    0  501 -0.43537227895E+02  0.33190869378E+02  0.90796169539E+02  0.10610627138E+03  0.41800000000E+01 0. -1.
</event>
<event>
11    1  0.8299058E-009  0.2110272E+03  0.7561462E-02  0.1046989E+00
         22   -1    0    0    0    0  0.00000000000E+00  0.00000000000E+00  0.77132498669E+03  0.77132498669E+03  0.00000000000E+00 0.  1.
         22   -1    0    0    0    0 -0.00000000000E+00 -0.00000000000E+00 -0.31577266542E+03  0.31577266542E+03  0.00000000000E+00 0. -1.
        -24    2    1    2    0    0 -0.21831975452E+02 -0.84826330063E+02 -0.74123759182E+02  0.14176486936E+03  0.83251456959E+02 0.  0.
         25    2    1    2    0    0  0.18354043308E+03  0.12726886082E+03 -0.11051443408E+03  0.27882937309E+03  0.12509166899E+03 0.  0.
         24    2    1    2    0    0 -0.16170845763E+03 -0.42442530752E+02  0.64019051453E+03  0.66650340966E+03  0.80199167723E+02 0.  0.
        -11    1    5    5    0    0 -0.15936768811E+03 -0.24282697823E+02  0.61209880910E+03  0.63297129597E+03  0.00000000000E+00 0.  1.
         12    1    5    5    0    0 -0.23407695171E+01 -0.18159832929E+02  0.28091705436E+02  0.33532113686E+02  0.00000000000E+00 0. -1.
         11    1    3    3    0    0 -0.35077785386E+02 -0.95657787761E+02 -0.71459576356E+02  0.12444811947E+03  0.00000000000E+00 0. -1.
        -12    1    3    3    0    0  0.13245809934E+02  0.10831457698E+02 -0.26641828266E+01  0.17316749891E+02  0.00000000000E+00 0.  1.
          5    1    4    4  501    0  0.11892586800E+03  0.13795160093E+03 -0.11074506910E+03  0.21320400796E+03  0.41800000000E+01 0.  1.
         -5    1    4    4    0  501  0.64614565080E+02 -0.10682740116E+02  0.23063501901E+00  0.65625365137E+02  0.41800000000E+01 0.  1.
</event>
<event>
11    1  0.8299058E-009  0.1359490E+03  0.7561462E-02  0.1112168E+00
         22   -1    0    0    0    0  0.00000000000E+00  0.00000000000E+00  0.27497817668E+03  0.27497817668E+03  0.00000000000E+00 0. -1.
         22   -1    0    0    0    0 -0.00000000000E+00 -0.00000000000E+00 -0.10070174916E+04  0.10070174916E+04  0.00000000000E+00 0. -1.
        -24    2    1    2    0    0  0.26941549069E+01  0.27453336090E+02 -0.95493469379E+03  0.95883219878E+03  0.81841137999E+02 0.  0.
         25    2    1    2    0    0 -0.53733719459E+02 -0.56776155499E+01  0.12333407110E+03  0.18379152292E+03  0.12509389625E+03 0.  0.
         24    2    1    2    0    0  0.51039564552E+02 -0.21775720540E+02  0.99561307763E+02  0.13937194658E+03  0.80205151547E+02 0.  0.
        -11    1    5    5    0    0  0.32134476061E+02 -0.49167412100E+02  0.39747417098E+02  0.70921901626E+02  0.00000000000E+00 0.  1.
         12    1    5    5    0    0  0.18905088492E+02  0.27391691560E+02  0.59813890666E+02  0.68450044952E+02  0.00000000000E+00 0. -1.
         11    1    3    3    0    0  0.21232650541E+02  0.40163177809E+02 -0.86280664596E+03  0.86400186031E+03  0.00000000000E+00 0. -1.
        -12    1    3    3    0    0 -0.18538495634E+02 -0.12709841719E+02 -0.92128047834E+02  0.94830338472E+02  0.00000000000E+00 0.  1.
          5    1    4    4  501    0 -0.27312975388E+02 -0.85471139123E+01  0.14586212088E+03  0.14870199222E+03  0.41800000000E+01 0.  1.
         -5    1    4    4    0  501 -0.26420744072E+02  0.28694983623E+01 -0.22528049781E+02  0.35089530705E+02  0.41800000000E+01 0.  1.
</event>
<event>
11    1  0.8299058E-009  0.1274790E+03  0.7561462E-02  0.1122406E+00
         22   -1    0    0    0    0  0.00000000000E+00  0.00000000000E+00  0.21293561581E+03  0.21293561581E+03  0.00000000000E+00 0. -1.
         22   -1    0    0    0    0 -0.00000000000E+00 -0.00000000000E+00 -0.30012201160E+03  0.30012201160E+03  0.00000000000E+00 0.  1.
         24    2    1    2    0    0  0.15112614284E+02  0.23190748817E+02 -0.21674062529E+03  0.23251599169E+03  0.79504627544E+02 0.  0.
         25    2    1    2    0    0 -0.35925729664E+02 -0.12002881595E+02  0.58884821238E+01  0.13084412536E+03  0.12510309230E+03 0.  0.
        -24    2    1    2    0    0  0.20813115380E+02 -0.11187867222E+02  0.12366574738E+03  0.14969751036E+03  0.80980080207E+02 0.  0.
        -13    1    3    3    0    0  0.32808303366E+01  0.52472349722E+02 -0.13833629710E+03  0.14799000786E+03  0.00000000000E+00 0.  1.
         14    1    3    3    0    0  0.11831783947E+02 -0.29281600905E+02 -0.78404328190E+02  0.84525983827E+02  0.00000000000E+00 0. -1.
         13    1    5    5    0    0  0.50407801713E+02 -0.15972272410E+01  0.56862183867E+02  0.76005299569E+02  0.00000000000E+00 0. -1.
        -14    1    5    5    0    0 -0.29594686333E+02 -0.95906399808E+01  0.66803563508E+02  0.73692210795E+02  0.00000000000E+00 0.  1.
          5    1    4    4  501    0 -0.75796387554E+02 -0.24082565488E+02 -0.19348710187E+02  0.81956740495E+02  0.41800000000E+01 0.  1.
         -5    1    4    4    0  501  0.39870657890E+02  0.12079683892E+02  0.25237192311E+02  0.48887384868E+02  0.41800000000E+01 0.  1.
</event>
<event>
11    1  0.8299058E-009  0.2378752E+03  0.7561462E-02  0.1030564E+00
         22   -1    0    0    0    0  0.00000000000E+00  0.00000000000E+00  0.18196649583E+04  0.18196649583E+04  0.00000000000E+00 0.  1.
         22   -1    0    0    0    0 -0.00000000000E+00 -0.00000000000E+00 -0.15321097157E+04  0.15321097157E+04  0.00000000000E+00 0. -1.
         24    2    1    2    0    0 -0.39007911654E+02  0.19390380162E+03 -0.11357968987E+04  0.11553130706E+04  0.74789001358E+02 0.  0.
         25    2    1    2    0    0  0.27025481613E+01 -0.22549677658E+03 -0.34211935344E+03  0.42842751444E+03  0.12509349750E+03 0.  0.
        -24    2    1    2    0    0  0.36305363492E+02  0.31592974958E+02  0.17654714947E+04  0.17680340889E+04  0.82089862442E+02 0.  0.
        -13    1    3    3    0    0 -0.39709844616E+02  0.49068555151E+02 -0.44854632237E+03  0.45296622189E+03  0.00000000000E+00 0.  1.
         14    1    3    3    0    0  0.70193296244E+00  0.14483524647E+03 -0.68725057630E+03  0.70234684875E+03  0.00000000000E+00 0. -1.
         11    1    5    5    0    0  0.38635199752E+02  0.16830571204E+02  0.35633001498E+03  0.35881335867E+03  0.00000000000E+00 0. -1.
        -12    1    5    5    0    0 -0.23298362600E+01  0.14762403755E+02  0.14091414797E+04  0.14092207302E+04  0.00000000000E+00 0.  1.
          5    1    4    4  501    0  0.20460768682E+02 -0.10963684760E+02  0.70780980912E+00  0.23597008991E+02  0.41800000000E+01 0.  1.
         -5    1    4    4    0  501 -0.17758220521E+02 -0.21453309182E+03 -0.34282716325E+03  0.40483050545E+03  0.41800000000E+01 0.  1.
</event>
<event>
11    1  0.8299058E-009  0.1545859E+03  0.7561462E-02  0.1092283E+00
         22   -1    0    0    0    0  0.00000000000E+00  0.00000000000E+00  0.40336728913E+03  0.40336728913E+03  0.00000000000E+00 0. -1.
         22   -1    0    0    0    0 -0.00000000000E+00 -0.00000000000E+00 -0.46760240580E+03  0.46760240580E+03  0.00000000000E+00 0. -1.
         24    2    1    2    0    0 -0.19893095707E+02  0.48074009835E+02 -0.28272017305E+03  0.30174964261E+03  0.91734970930E+02 0.  0.
         25    2    1    2    0    0 -0.68778189349E+02 -0.69900042962E+02 -0.12370106422E+03  0.20141052763E+03  0.12509113483E+03 0.  0.
        -24    2    1    2    0    0  0.88671285055E+02  0.21826033127E+02  0.34218612060E+03  0.36780952469E+03  0.99264962648E+02 0.  0.
        -11    1    3    3    0    0 -0.43351839238E+02  0.51432666088E+02 -0.12220603592E+03  0.13949557815E+03  0.00000000000E+00 0.  1.
         12    1    3    3    0    0  0.23458743531E+02 -0.33586562524E+01 -0.16051413712E+03  0.16225406447E+03  0.00000000000E+00 0. -1.
         11    1    5    5    0    0  0.35006452052E+02 -0.11708693431E+02  0.26698988388E+03  0.26952948500E+03  0.00000000000E+00 0. -1.
        -12    1    5    5    0    0  0.53664833003E+02  0.33534726558E+02  0.75196236718E+02  0.98280039699E+02  0.00000000000E+00 0.  1.
          5    1    4    4  501    0 -0.33337821509E+02 -0.94374908479E+01  0.20891264328E+02  0.40674241255E+02  0.41800000000E+01 0. -1.
         -5    1    4    4    0  501 -0.35440367840E+02 -0.60462552114E+02 -0.14459232855E+03  0.16073628637E+03  0.41800000000E+01 0. -1.
</event>
<event>
11    1  0.8299058E-009  0.1655533E+03  0.7561462E-02  0.1081967E+00
         22   -1    0    0    0    0  0.00000000000E+00  0.00000000000E+00  0.28040372888E+03  0.28040372888E+03  0.00000000000E+00 0. -1.
         22   -1    0    0    0    0 -0.00000000000E+00 -0.00000000000E+00 -0.84109625227E+03  0.84109625227E+03  0.00000000000E+00 0. -1.
         24    2    1    2    0    0  0.14907612142E+01 -0.59169020023E+02 -0.69729293281E+03  0.70440467825E+03  0.80407221686E+02 0.  0.
         25    2    1    2    0    0  0.52861581659E+02  0.14424189353E+03 -0.36842918867E+02  0.20151066880E+03  0.12509627614E+03 0.  0.
        -24    2    1    2    0    0 -0.54352342873E+02 -0.85072873505E+02  0.17344332828E+03  0.21558463410E+03  0.78756430530E+02 0.  0.
        -11    1    3    3    0    0 -0.11530147002E+02  0.94874015199E+00 -0.13202046823E+02  0.17553872452E+02  0.00000000000E+00 0.  1.
         12    1    3    3    0    0  0.13020908216E+02 -0.60117760175E+02 -0.68409088598E+03  0.68685080580E+03  0.00000000000E+00 0. -1.
         11    1    5    5    0    0 -0.55461519685E+02 -0.97446247758E+02  0.16809653683E+03  0.20205988484E+03  0.00000000000E+00 0. -1.
        -12    1    5    5    0    0  0.11091768122E+01  0.12373374253E+02  0.53467914593E+01  0.13524749259E+02  0.00000000000E+00 0.  1.
          5    1    4    4  501    0  0.40717211436E+02  0.32666110788E+02 -0.67173566918E+02  0.85174682821E+02  0.41800000000E+01 0.  1.
         -5    1    4    4    0  501  0.12144370223E+02  0.11157578274E+03  0.30330648052E+02  0.11633598598E+03  0.41800000000E+01 0.  1.
</event>
<event>
11    1  0.8299058E-009  0.1634191E+03  0.7561462E-02  0.1083905E+00
         22   -1    0    0    0    0  0.00000000000E+00  0.00000000000E+00  0.49385236029E+03  0.49385236029E+03  0.00000000000E+00 0. -1.
         22   -1    0    0    0    0 -0.00000000000E+00 -0.00000000000E+00 -0.10776965542E+04  0.10776965542E+04  0.00000000000E+00 0. -1.
        -24    2    1    2    0    0 -0.33504192978E+02 -0.23090878493E+02 -0.80949039864E+03  0.81441208509E+03  0.79602884541E+02 0.  0.
         25    2    1    2    0    0  0.71637470306E+02 -0.75260544748E+02 -0.23039203275E+03  0.28200085784E+03  0.12509163968E+03 0.  0.
         24    2    1    2    0    0 -0.38133277328E+02  0.98351423241E+02  0.45603823750E+03  0.47513597154E+03  0.81585342415E+02 0.  0.
        -11    1    5    5    0    0  0.11046657091E+02  0.70956675465E+02  0.18796629407E+03  0.20121681374E+03  0.00000000000E+00 0.  1.
         12    1    5    5    0    0 -0.49179934419E+02  0.27394747776E+02  0.26807194344E+03  0.27391915781E+03  0.00000000000E+00 0. -1.
         13    1    3    3    0    0 -0.49086131881E+02 -0.91011931579E+01 -0.74360499200E+03  0.74527891704E+03  0.00000000000E+00 0. -1.
        -14    1    3    3    0    0  0.15581938903E+02 -0.13989685335E+02 -0.65885406649E+02  0.69133168053E+02  0.00000000000E+00 0.  1.
          5    1    4    4  501    0  0.10621464627E+03 -0.65872224531E+02 -0.16170419166E+03  0.20441726700E+03  0.41800000000E+01 0.  1.
         -5    1    4    4    0  501 -0.34577175961E+02 -0.93883202168E+01 -0.68687841094E+02  0.77583590843E+02  0.41800000000E+01 0.  1.
</event>
<event>
11    1  0.8299058E-009  0.1588639E+03  0.7561462E-02  0.1088151E+00
         22   -1    0    0    0    0  0.00000000000E+00  0.00000000000E+00  0.59208291227E+03  0.59208291227E+03  0.00000000000E+00 0.  1.
         22   -1    0    0    0    0 -0.00000000000E+00 -0.00000000000E+00 -0.11646248867E+04  0.11646248867E+04  0.00000000000E+00 0. -1.
        -24    2    1    2    0    0 -0.60563659177E+02 -0.23217825678E+02 -0.10694872058E+04  0.10745813545E+04  0.81946200010E+02 0.  0.
         25    2    1    2    0    0  0.51217640750E+00  0.10232600526E+03 -0.77437712637E+01  0.16179727926E+03  0.12509004719E+03 0.  0.
         24    2    1    2    0    0  0.60051482769E+02 -0.79108179579E+02  0.50468900268E+03  0.52032916523E+03  0.78531306515E+02 0.  0.
        -13    1    5    5    0    0  0.77456819926E+02 -0.73347883909E+02  0.45577308903E+03  0.46809035422E+03  0.00000000000E+00 0.  1.
         14    1    5    5    0    0 -0.17405337157E+02 -0.57602956697E+01  0.48915913646E+02  0.52238811008E+02  0.00000000000E+00 0. -1.
         11    1    3    3    0    0 -0.59024880223E+02 -0.46303443731E+02 -0.94420960502E+03  0.94718515803E+03  0.00000000000E+00 0. -1.
        -12    1    3    3    0    0 -0.15387789534E+01  0.23085618053E+02 -0.12527760082E+03  0.12739619645E+03  0.00000000000E+00 0.  1.
          5    1    4    4  501    0  0.86378110812E+01 -0.16152665504E+02  0.31480158547E+02  0.36660512344E+02  0.41800000000E+01 0. -1.
         -5    1    4    4    0  501 -0.81256346737E+01  0.11847867076E+03 -0.39223929810E+02  0.12513676692E+03  0.41800000000E+01 0. -1.
</event>
<event>
11    1  0.8299058E-009  0.1356598E+03  0.7561462E-02  0.1112504E+00
         22   -1    0    0    0    0  0.00000000000E+00  0.00000000000E+00  0.52604756906E+03  0.52604756906E+03  0.00000000000E+00 0. -1.
         22   -1    0    0    0    0 -0.00000000000E+00 -0.00000000000E+00 -0.74756164602E+03  0.74756164602E+03  0.00000000000E+00 0. -1.
         24    2    1    2    0    0 -0.27720483353E+02  0.44088559707E+02 -0.66745302569E+03  0.67425867855E+03  0.80118648284E+02 0.  0.
         25    2    1    2    0    0 -0.33729978676E+01 -0.74057078294E+02  0.14848141940E+01  0.14541336041E+03  0.12508802002E+03 0.  0.
        -24    2    1    2    0    0  0.31093481221E+02  0.29968518587E+02  0.44445413454E+03  0.45393717612E+03  0.81575520083E+02 0.  0.
        -11    1    3    3    0    0 -0.32987237542E+02 -0.14991590459E+02 -0.24864806374E+03  0.25127428286E+03  0.00000000000E+00 0.  1.
         12    1    3    3    0    0  0.52667541881E+01  0.59080150166E+02 -0.41880496195E+03  0.42298439569E+03  0.00000000000E+00 0. -1.
         11    1    5    5    0    0  0.45722510841E+02  0.47522962321E+02  0.37681966537E+03  0.38254678166E+03  0.00000000000E+00 0. -1.
        -12    1    5    5    0    0 -0.14629029620E+02 -0.17554443734E+02  0.67634469167E+02  0.71390394466E+02  0.00000000000E+00 0.  1.
          5    1    4    4  501    0 -0.31629766994E+02 -0.46194133626E+02 -0.53449852485E+02  0.77515800146E+02  0.41800000000E+01 0.  1.
         -5    1    4    4    0  501  0.28256769126E+02 -0.27862944668E+02  0.54934666679E+02  0.67897560267E+02  0.41800000000E+01 0.  1.
</event>
<event>
11    1  0.8299058E-009  0.1575459E+03  0.7561462E-02  0.1089408E+00
         22   -1    0    0    0    0  0.00000000000E+00  0.00000000000E+00  0.16767637724E+04  0.16767637724E+04  0.00000000000E+00 0. -1.
         22   -1    0    0    0    0 -0.00000000000E+00 -0.00000000000E+00 -0.14301610223E+04  0.14301610223E+04  0.00000000000E+00 0.  1.
         24    2    1    2    0    0  0.95628816328E+02  0.39387427435E+01 -0.14073190714E+04  0.14126568014E+04  0.76758619236E+02 0.  0.
         25    2    1    2    0    0 -0.10748989239E+03  0.34086745536E+02  0.36284879875E+03  0.40002724975E+03  0.12508623667E+03 0.  0.
        -24    2    1    2    0    0  0.11861076064E+02 -0.38025488280E+02  0.12910730227E+04  0.12942407436E+04  0.81258411916E+02 0.  0.
        -13    1    3    3    0    0  0.80371834912E+02  0.25038699020E+02 -0.12764312164E+04  0.12792041348E+04  0.00000000000E+00 0.  1.
         14    1    3    3    0    0  0.15256981416E+02 -0.21099956277E+02 -0.13088785492E+03  0.13345266652E+03  0.00000000000E+00 0. -1.
         11    1    5    5    0    0  0.45702034776E+02 -0.19237647922E+02  0.58034265424E+03  0.58245717389E+03  0.00000000000E+00 0. -1.
        -12    1    5    5    0    0 -0.33840958712E+02 -0.18787840358E+02  0.71073036846E+03  0.71178356969E+03  0.00000000000E+00 0.  1.
          5    1    4    4  501    0 -0.13075950296E+03  0.49953686957E+01  0.28314599487E+03  0.31194891911E+03  0.41800000000E+01 0.  1.
         -5    1    4    4    0  501  0.23269610571E+02  0.29091376841E+02  0.79702803878E+02  0.88078330642E+02  0.41800000000E+01 0.  1.
</event>
<event>
11    1  0.8299058E-009  0.1646993E+03  0.7561462E-02  0.1082739E+00
         22   -1    0    0    0    0  0.00000000000E+00  0.00000000000E+00  0.26325166018E+04  0.26325166018E+04  0.00000000000E+00 0.  1.
         22   -1    0    0    0    0 -0.00000000000E+00 -0.00000000000E+00 -0.42005032393E+03  0.42005032393E+03  0.00000000000E+00 0.  1.
        -24    2    1    2    0    0 -0.65900533351E+01  0.10620872132E+03 -0.37604388920E+03  0.39919233180E+03  0.81374380961E+02 0.  0.
         25    2    1    2    0    0  0.81005318353E+01 -0.12187203183E+03  0.20939575032E+03  0.27278800725E+03  0.12509318881E+03 0.  0.
         24    2    1    2    0    0 -0.15104785002E+01  0.15663310512E+02  0.23791144168E+04  0.23805865867E+04  0.82215982869E+02 0.  0.
        -11    1    5    5    0    0 -0.34820714888E+01  0.36139086176E+02  0.21992563957E+04  0.21995560580E+04  0.00000000000E+00 0.  1.
         12    1    5    5    0    0  0.19715929886E+01 -0.20475775663E+02  0.17985802112E+03  0.18103052872E+03  0.00000000000E+00 0. -1.
         11    1    3    3    0    0 -0.79092991641E+01  0.48502017773E+02 -0.58303632689E+02  0.76251664415E+02  0.00000000000E+00 0. -1.
        -12    1    3    3    0    0  0.13192458290E+01  0.57706703544E+02 -0.31774025652E+03  0.32294066739E+03  0.00000000000E+00 0.  1.
          5    1    4    4  501    0  0.80966525015E+01  0.19249890532E+02  0.13238976613E+01  0.21338677846E+02  0.41800000000E+01 0. -1.
         -5    1    4    4    0  501  0.38793337818E-02 -0.14112192236E+03  0.20807185266E+03  0.25144932940E+03  0.41800000000E+01 0. -1.
</event>
<event>
11    1  0.8299058E-009  0.8842426E+03  0.7561462E-02  0.8797652E-01
         22   -1    0    0    0    0  0.00000000000E+00  0.00000000000E+00  0.22065734616E+04  0.22065734616E+04  0.00000000000E+00 0.  1.
         22   -1    0    0    0    0 -0.00000000000E+00 -0.00000000000E+00 -0.76563226238E+03  0.76563226238E+03  0.00000000000E+00 0.  1.
        -24    2    1    2    0    0  0.16849709732E+03 -0.68921932736E+03 -0.36972081735E+03  0.80353418676E+03  0.74559731156E+02 0.  0.
         25    2    1    2    0    0 -0.24433913794E+03  0.87477115826E+03  0.16926964428E+04  0.19250446077E+04  0.12509716431E+03 0.  0.
         24    2    1    2    0    0  0.75842040627E+02 -0.18555183091E+03  0.11796557372E+03  0.24362692947E+03  0.72503152342E+02 0.  0.
        -11    1    5    5    0    0  0.89539144344E+02 -0.15786498396E+03  0.93120361150E+02  0.20398532592E+03  0.00000000000E+00 0.  1.
         12    1    5    5    0    0 -0.13697103717E+02 -0.27686846949E+02  0.24845212574E+02  0.39641603550E+02  0.00000000000E+00 0. -1.
         11    1    3    3    0    0  0.13838939882E+03 -0.44513461221E+03 -0.26521457138E+03  0.53631634095E+03  0.00000000000E+00 0. -1.
        -12    1    3    3    0    0  0.30107698496E+02 -0.24408471514E+03 -0.10450624597E+03  0.26721784582E+03  0.00000000000E+00 0.  1.
          5    1    4    4  501    0 -0.16587139504E+03  0.39242973816E+03  0.72427220387E+03  0.84029882589E+03  0.41800000000E+01 0.  1.
         -5    1    4    4    0  501 -0.78467742900E+02  0.48234142010E+03  0.96842423894E+03  0.10847457818E+04  0.41800000000E+01 0.  1.
</event>
<event>
11    1  0.8299058E-009  0.1480009E+03  0.7561462E-02  0.1098939E+00
         22   -1    0    0    0    0  0.00000000000E+00  0.00000000000E+00  0.60898293065E+03  0.60898293065E+03  0.00000000000E+00 0. -1.
         22   -1    0    0    0    0 -0.00000000000E+00 -0.00000000000E+00 -0.68877495277E+03  0.68877495277E+03  0.00000000000E+00 0. -1.
         24    2    1    2    0    0  0.39351459599E+02 -0.63624726191E+02 -0.54238356571E+03  0.55357214483E+03  0.81642783031E+02 0.  0.
         25    2    1    2    0    0 -0.44690570835E+02  0.11657681146E+03 -0.79520604445E+02  0.19379798436E+03  0.12508689827E+03 0.  0.
        -24    2    1    2    0    0  0.53391112363E+01 -0.52952085265E+02  0.54211214805E+03  0.55038775423E+03  0.78795110942E+02 0.  0.
        -11    1    3    3    0    0 -0.50244151991E+01 -0.38143899519E+02 -0.84599000829E+02  0.92936498535E+02  0.00000000000E+00 0.  1.
         12    1    3    3    0    0  0.44375874798E+02 -0.25480826671E+02 -0.45778456489E+03  0.46063564630E+03  0.00000000000E+00 0. -1.
         11    1    5    5    0    0 -0.51528473882E+01 -0.60912151850E+02  0.52617125779E+03  0.52971033085E+03  0.00000000000E+00 0. -1.
        -12    1    5    5    0    0  0.10491958625E+02  0.79600665850E+01  0.15940890253E+02  0.20677423386E+02  0.00000000000E+00 0.  1.
          5    1    4    4  501    0 -0.81004340811E+02  0.95888369760E+02 -0.84688719920E+02  0.15147915489E+03  0.41800000000E+01 0.  1.
         -5    1    4    4    0  501  0.36313769976E+02  0.20688441695E+02  0.51681154743E+01  0.42318829464E+02  0.41800000000E+01 0.  1.
</event>
<event>
11    1  0.8299058E-009  0.2323451E+03  0.7561462E-02  0.1033748E+00
         22   -1    0    0    0    0  0.00000000000E+00  0.00000000000E+00  0.60333608455E+03  0.60333608455E+03  0.00000000000E+00 0.  1.
         22   -1    0    0    0    0 -0.00000000000E+00 -0.00000000000E+00 -0.20334616064E+03  0.20334616064E+03  0.00000000000E+00 0.  1.
        -24    2    1    2    0    0  0.40344082598E+02 -0.32312551302E+02 -0.81652418673E+02  0.12602357214E+03  0.80889290317E+02 0.  0.
         25    2    1    2    0    0  0.16352879678E+03 -0.16996794275E+02  0.83586858203E+02  0.22284780867E+03  0.12507527563E+03 0.  0.
         24    2    1    2    0    0 -0.20387287938E+03  0.49309345577E+02  0.39805548438E+03  0.45781086438E+03  0.84540264938E+02 0.  0.
        -13    1    5    5    0    0 -0.14458459418E+03 -0.61352467855E+01  0.24437936520E+03  0.28401341564E+03  0.00000000000E+00 0.  1.
         14    1    5    5    0    0 -0.59288285196E+02  0.55444592363E+02  0.15367611917E+03  0.17379744874E+03  0.00000000000E+00 0. -1.
         11    1    3    3    0    0 -0.66997094925E+01  0.20100843412E+02 -0.46924087243E+01  0.21701352787E+02  0.00000000000E+00 0. -1.
        -12    1    3    3    0    0  0.47043792090E+02 -0.52413394715E+02 -0.76960009949E+02  0.10432221935E+03  0.00000000000E+00 0.  1.
          5    1    4    4  501    0 -0.11149708001E+01  0.33226445489E+02  0.21500885106E+02  0.39812062244E+02  0.41800000000E+01 0.  1.
         -5    1    4    4    0  501  0.16464376758E+03 -0.50223239764E+02  0.62085973097E+02  0.18303574643E+03  0.41800000000E+01 0.  1.
</event>
<event>
11    1  0.8299058E-009  0.1422731E+03  0.7561462E-02  0.1105046E+00
         22   -1    0    0    0    0  0.00000000000E+00  0.00000000000E+00  0.27154484695E+03  0.27154484695E+03  0.00000000000E+00 0.  1.
         22   -1    0    0    0    0 -0.00000000000E+00 -0.00000000000E+00 -0.14443526428E+04  0.14443526428E+04  0.00000000000E+00 0. -1.
         24    2    1    2    0    0 -0.19514701335E+02 -0.49496662218E+02 -0.13324421540E+04  0.13359254106E+04  0.80398170393E+02 0.  0.
         25    2    1    2    0    0 -0.14061526111E+02 -0.16571737063E+02 -0.55466720758E+02  0.13854831901E+03  0.12508689222E+03 0.  0.
        -24    2    1    2    0    0  0.33576227446E+02  0.66068399281E+02  0.21510107890E+03  0.24142376014E+03  0.80774757090E+02 0.  0.
        -11    1    3    3    0    0  0.25826694450E+02 -0.76518836613E+01 -0.20027822207E+03  0.20208150758E+03  0.00000000000E+00 0.  1.
         12    1    3    3    0    0 -0.45341395786E+02 -0.41844778557E+02 -0.11321639319E+04  0.11338439030E+04  0.00000000000E+00 0. -1.
         11    1    5    5    0    0  0.34140680684E+01 -0.19022653426E+02  0.36348561902E+02  0.41167161142E+02  0.00000000000E+00 0. -1.
        -12    1    5    5    0    0  0.30162159377E+02  0.85091052706E+02  0.17875251699E+03  0.20025659899E+03  0.00000000000E+00 0.  1.
          5    1    4    4  501    0 -0.31108784184E+02 -0.51249304963E+02  0.11435308997E+02  0.61175864558E+02  0.41800000000E+01 0. -1.
         -5    1    4    4    0  501  0.17047258073E+02  0.34677567900E+02 -0.66902029755E+02  0.77372454457E+02  0.41800000000E+01 0. -1.
</event>
<event>
11    1  0.8299058E-009  0.2227114E+03  0.7561462E-02  0.1039532E+00
         22   -1    0    0    0    0  0.00000000000E+00  0.00000000000E+00  0.62338123507E+03  0.62338123507E+03  0.00000000000E+00 0. -1.
         22   -1    0    0    0    0 -0.00000000000E+00 -0.00000000000E+00 -0.74818795754E+03  0.74818795754E+03  0.00000000000E+00 0. -1.
         24    2    1    2    0    0 -0.21919775684E+02 -0.90643631217E+01 -0.54347934751E+03  0.54962466981E+03  0.78452770776E+02 0.  0.
         25    2    1    2    0    0  0.14550511569E+03 -0.12660702376E+03 -0.11127715642E+03  0.25540346838E+03  0.12508896420E+03 0.  0.
        -24    2    1    2    0    0 -0.12358534001E+03  0.13567138688E+03  0.52994978145E+03  0.56654105442E+03  0.80261659544E+02 0.  0.
        -11    1    3    3    0    0 -0.23481459549E+02 -0.59816090896E+01 -0.44799395972E+02  0.50932744569E+02  0.00000000000E+00 0.  1.
         12    1    3    3    0    0  0.15616838647E+01 -0.30827540322E+01 -0.49867995154E+03  0.49869192524E+03  0.00000000000E+00 0. -1.
         13    1    5    5    0    0 -0.10281421535E+03  0.94307911087E+02  0.47303961235E+03  0.49318477250E+03  0.00000000000E+00 0. -1.
        -14    1    5    5    0    0 -0.20771124660E+02  0.41363475797E+02  0.56910169106E+02  0.73356281921E+02  0.00000000000E+00 0.  1.
          5    1    4    4  501    0  0.12851336184E+03 -0.98947608427E+02 -0.13811937979E+03  0.21307451480E+03  0.41800000000E+01 0. -1.
         -5    1    4    4    0  501  0.16991753853E+02 -0.27659415335E+02  0.26842223374E+02  0.42328953582E+02  0.41800000000E+01 0. -1.
</event>
<event>
11    1  0.1104829E-008  0.1722295E+03  0.7561462E-02  0.1076108E+00
         22   -1    0    0    0    0  0.00000000000E+00  0.00000000000E+00  0.19033416374E+03  0.19033416374E+03  0.00000000000E+00 0. -1.
         22   -1    0    0    0    0 -0.00000000000E+00 -0.00000000000E+00 -0.17065341853E+04  0.17065341853E+04  0.00000000000E+00 0.  1.
        -24    2    1    2    0    0 -0.84479190988E+02 -0.41359162365E+02 -0.11392675977E+04  0.11459870838E+04  0.80674799028E+02 0.  0.
         25    2    1    2    0    0  0.19486288696E+03  0.67943160044E+02 -0.50692205605E+03  0.56143186813E+03  0.12509178203E+03 0.  0.
         24    2    1    2    0    0 -0.11038369597E+03 -0.26583997680E+02  0.12998963212E+03  0.18944939712E+03  0.78118501923E+02 0.  0.
        -11    1    5    5    0    0 -0.54624640939E+02  0.26379891442E+02  0.51653711946E+02  0.79673433640E+02  0.00000000000E+00 0.  1.
         12    1    5    5    0    0 -0.55759055028E+02 -0.52963889122E+02  0.78335920174E+02  0.10977596348E+03  0.00000000000E+00 0. -1.
         13    1    3    3    0    0 -0.14185262105E+02  0.21186372285E+02 -0.14028631450E+03  0.14258448046E+03  0.00000000000E+00 0. -1.
        -14    1    3    3    0    0 -0.70293928882E+02 -0.62545534649E+02 -0.99898128316E+03  0.10034026034E+04  0.00000000000E+00 0.  1.
          5    1    4    4  501    0  0.18830878418E+03  0.85603556206E+02 -0.37660490610E+03  0.42969395473E+03  0.41800000000E+01 0. -1.
         -5    1    4    4    0  501  0.65541027791E+01 -0.17660396162E+02 -0.13031714995E+03  0.13173791340E+03  0.41800000000E+01 0. -1.
</event>
<event>
11    1  0.8299058E-009  0.1461001E+03  0.7561462E-02  0.1100932E+00
         22   -1    0    0    0    0  0.00000000000E+00  0.00000000000E+00  0.59445513366E+02  0.59445513366E+02  0.00000000000E+00 0. -1.
         22   -1    0    0    0    0 -0.00000000000E+00 -0.00000000000E+00 -0.15007709958E+04  0.15007709958E+04  0.00000000000E+00 0. -1.
         24    2    1    2    0    0  0.58021912367E+02 -0.36198024830E+02 -0.89940535348E+03  0.90531868180E+03  0.77427943403E+02 0.  0.
         25    2    1    2    0    0 -0.83217491234E+02  0.63096591553E+02 -0.54407063753E+03  0.56795002242E+03  0.12509212061E+03 0.  0.
        -24    2    1    2    0    0  0.25195578867E+02 -0.26898566722E+02  0.21505085260E+01  0.86947804997E+02  0.78720683563E+02 0.  0.
        -13    1    3    3    0    0 -0.31526637268E+01 -0.41737535538E+02 -0.37405900830E+03  0.37639354783E+03  0.00000000000E+00 0.  1.
         14    1    3    3    0    0  0.61174576094E+02  0.55395107078E+01 -0.52534634519E+03  0.52892513397E+03  0.00000000000E+00 0. -1.
         11    1    5    5    0    0  0.49399725120E+02 -0.34173961961E+02  0.90570110649E+01  0.60747197198E+02  0.00000000000E+00 0. -1.
        -12    1    5    5    0    0 -0.24204146253E+02  0.72753952383E+01 -0.69065025389E+01  0.26200607799E+02  0.00000000000E+00 0.  1.
          5    1    4    4  501    0  0.12352838775E+02  0.65766216059E+02 -0.21009524661E+03  0.22053406278E+03  0.41800000000E+01 0.  1.
         -5    1    4    4    0  501 -0.95570330009E+02 -0.26696245059E+01 -0.33397539092E+03  0.34741595964E+03  0.41800000000E+01 0.  1.
</event>
<event>
11    1  0.8299058E-009  0.1746269E+03  0.7561462E-02  0.1074074E+00
         22   -1    0    0    0    0  0.00000000000E+00  0.00000000000E+00  0.97533280109E+03  0.97533280109E+03  0.00000000000E+00 0. -1.
         22   -1    0    0    0    0 -0.00000000000E+00 -0.00000000000E+00 -0.21756821917E+04  0.21756821917E+04  0.00000000000E+00 0.  1.
         24    2    1    2    0    0  0.70109777845E+02 -0.40337035581E+02 -0.19829270231E+04  0.19860460482E+04  0.76399406913E+02 0.  0.
         25    2    1    2    0    0 -0.13885824659E+03  0.13821174519E+03 -0.11256517050E+03  0.25827946067E+03  0.12511300109E+03 0.  0.
        -24    2    1    2    0    0  0.68748468747E+02 -0.97874709609E+02  0.89514280301E+03  0.90668948387E+03  0.80618680485E+02 0.  0.
        -11    1    3    3    0    0  0.84849926839E+02 -0.24604173549E+02 -0.14556170545E+04  0.14582955410E+04  0.00000000000E+00 0.  1.
         12    1    3    3    0    0 -0.14740148994E+02 -0.15732862032E+02 -0.52730996858E+03  0.52775050725E+03  0.00000000000E+00 0. -1.
         13    1    5    5    0    0  0.67072244487E+02 -0.93355065791E+02  0.56820355240E+03  0.57971469815E+03  0.00000000000E+00 0. -1.
        -14    1    5    5    0    0  0.16762242595E+01 -0.45196438176E+01  0.32693925061E+03  0.32697478572E+03  0.00000000000E+00 0.  1.
          5    1    4    4  501    0 -0.10010800733E+03  0.94003108838E+02 -0.72316176927E+01  0.13757894569E+03  0.41800000000E+01 0.  1.
         -5    1    4    4    0  501 -0.38750239263E+02  0.44208636352E+02 -0.10533355280E+03  0.12070051498E+03  0.41800000000E+01 0.  1.
</event>
<event>
11    1  0.8299058E-009  0.2268476E+03  0.7561462E-02  0.1037011E+00
         22   -1    0    0    0    0  0.00000000000E+00  0.00000000000E+00  0.77418469485E+03  0.77418469485E+03  0.00000000000E+00 0. -1.
         22   -1    0    0    0    0 -0.00000000000E+00 -0.00000000000E+00 -0.52044647092E+03  0.52044647092E+03  0.00000000000E+00 0.  1.
        -24    2    1    2    0    0  0.17838441405E+03 -0.71452371087E+02 -0.34921613227E+03  0.40692279204E+03  0.81901227920E+02 0.  0.
         25    2    1    2    0    0 -0.16411193078E+03  0.75530027041E+02 -0.52967766182E+02  0.22603158882E+03  0.12508870485E+03 0.  0.
         24    2    1    2    0    0 -0.14272483264E+02 -0.40776559544E+01  0.65592212237E+03  0.66167678491E+03  0.85802132918E+02 0.  0.
        -13    1    5    5    0    0 -0.57607251422E+01 -0.12618458150E+02  0.14232883969E+02  0.19874265429E+02  0.00000000000E+00 0.  1.
         14    1    5    5    0    0 -0.85117581223E+01  0.85408021961E+01  0.64168923840E+03  0.64180251948E+03  0.00000000000E+00 0. -1.
         11    1    3    3    0    0  0.90793986623E+02 -0.79689627311E+02 -0.20842567011E+03  0.24090505322E+03  0.00000000000E+00 0. -1.
        -12    1    3    3    0    0  0.87590427423E+02  0.82372562236E+01 -0.14079046216E+03  0.16601773882E+03  0.00000000000E+00 0.  1.
          5    1    4    4  501    0 -0.18394705511E+03  0.68622792361E+02 -0.38300441971E+02  0.20007499337E+03  0.41800000000E+01 0.  1.
         -5    1    4    4    0  501  0.19835124330E+02  0.69072346799E+01 -0.14667324210E+02  0.25956595454E+02  0.41800000000E+01 0.  1.
</event>
<event>
11    1  0.8299058E-009  0.2175978E+03  0.7561462E-02  0.1042733E+00
         22   -1    0    0    0    0  0.00000000000E+00  0.00000000000E+00  0.49756673341E+03  0.49756673341E+03  0.00000000000E+00 0.  1.
         22   -1    0    0    0    0 -0.00000000000E+00 -0.00000000000E+00 -0.16942754242E+03  0.16942754242E+03  0.00000000000E+00 0. -1.
        -24    2    1    2    0    0  0.65008091846E+02 -0.15982890951E+03 -0.24374771946E+02  0.19163870372E+03  0.79749175138E+02 0.  0.
         25    2    1    2    0    0 -0.74419497220E+02  0.18458736130E+03  0.27561376273E+03  0.36224648729E+03  0.12509522703E+03 0.  0.
         24    2    1    2    0    0  0.94114053744E+01 -0.24758451792E+02  0.76900200202E+02  0.11310908483E+03  0.78603236529E+02 0.  0.
        -13    1    5    5    0    0 -0.50343201779E+01  0.18446423280E+02 -0.46670103536E+01  0.19682375291E+02  0.00000000000E+00 0.  1.
         14    1    5    5    0    0  0.14445725552E+02 -0.43204875072E+02  0.81567210556E+02  0.93426709535E+02  0.00000000000E+00 0. -1.
         11    1    3    3    0    0  0.77734250285E+02 -0.15423432754E+03 -0.12177712009E+02  0.17314484725E+03  0.00000000000E+00 0. -1.
        -12    1    3    3    0    0 -0.12726158439E+02 -0.55945819692E+01 -0.12197059937E+02  0.18493856470E+02  0.00000000000E+00 0.  1.
          5    1    4    4  501    0 -0.78007701502E+02  0.20009753425E+03  0.26962631458E+03  0.34473184741E+03  0.41800000000E+01 0.  1.
         -5    1    4    4    0  501  0.35882042818E+01 -0.15510172943E+02  0.59874481562E+01  0.17514639880E+02  0.41800000000E+01 0.  1.
</event>
<event>
11    1  0.8299058E-009  0.1523117E+03  0.7561462E-02  0.1094540E+00
         22   -1    0    0    0    0  0.00000000000E+00  0.00000000000E+00  0.11259203809E+04  0.11259203809E+04  0.00000000000E+00 0.  1.
         22   -1    0    0    0    0 -0.00000000000E+00 -0.00000000000E+00 -0.64665025613E+03  0.64665025613E+03  0.00000000000E+00 0. -1.
        -24    2    1    2    0    0  0.27141321519E+02  0.82092513272E+02 -0.54567882793E+03  0.55822423184E+03  0.79831558283E+02 0.  0.
         25    2    1    2    0    0  0.15978771815E+01 -0.96339151756E+02 -0.25913149060E+02  0.16001285081E+03  0.12509530669E+03 0.  0.
         24    2    1    2    0    0 -0.28739198701E+02  0.14246638484E+02  0.10508621017E+04  0.10543335543E+04  0.79241269112E+02 0.  0.
        -11    1    5    5    0    0 -0.33200736183E+02  0.44093024939E+02  0.70505487046E+03  0.70721202909E+03  0.00000000000E+00 0.  1.
         12    1    5    5    0    0  0.44615374823E+01 -0.29846386455E+02  0.34580723126E+03  0.34712152525E+03  0.00000000000E+00 0. -1.
         11    1    3    3    0    0  0.22452785680E+02  0.86222370408E+02 -0.54465305793E+03  0.55189254231E+03  0.00000000000E+00 0. -1.
        -12    1    3    3    0    0  0.46885358399E+01 -0.41298571362E+01 -0.10257700008E+01  0.63316895362E+01  0.00000000000E+00 0.  1.
          5    1    4    4  501    0 -0.33211721569E+02 -0.99201492172E+02  0.15322156827E+02  0.10581207582E+03  0.41800000000E+01 0. -1.
         -5    1    4    4    0  501  0.34809598750E+02  0.28623404165E+01 -0.41235305887E+02  0.54200774989E+02  0.41800000000E+01 0. -1.
</event>
<event>
11    1  0.8299058E-009  0.1567474E+03  0.7561462E-02  0.1090177E+00
         22   -1    0    0    0    0  0.00000000000E+00  0.00000000000E+00  0.75442576808E+03  0.75442576808E+03  0.00000000000E+00 0. -1.
         22   -1    0    0    0    0 -0.00000000000E+00 -0.00000000000E+00 -0.46099292343E+03  0.46099292343E+03  0.00000000000E+00 0. -1.
         24    2    1    2    0    0  0.58924027379E+02 -0.76365103699E+02 -0.23571902628E+03  0.26667939330E+03  0.79061807452E+02 0.  0.
         25    2    1    2    0    0 -0.29205238677E+02  0.89637904785E+02 -0.17759704355E+03  0.23680433391E+03  0.12509069805E+03 0.  0.
        -24    2    1    2    0    0 -0.29718788702E+02 -0.13272801087E+02  0.70674891448E+03  0.71193496430E+03  0.79359886802E+02 0.  0.
        -13    1    3    3    0    0 -0.39078867376E+01 -0.59312435400E+02 -0.10553056119E+03  0.12111951089E+03  0.00000000000E+00 0.  1.
         14    1    3    3    0    0  0.62831914117E+02 -0.17052668298E+02 -0.13018846509E+03  0.14555988242E+03  0.00000000000E+00 0. -1.
         13    1    5    5    0    0 -0.27981226414E+02  0.12248072487E+01  0.68595506485E+03  0.68652662016E+03  0.00000000000E+00 0. -1.
        -14    1    5    5    0    0 -0.17375622877E+01 -0.14497608336E+02  0.20793849621E+02  0.25408344146E+02  0.00000000000E+00 0.  1.
          5    1    4    4  501    0 -0.57212247524E+02  0.90872962296E+02 -0.76770119833E+02  0.13206914947E+03  0.41800000000E+01 0. -1.
         -5    1    4    4    0  501  0.28007008847E+02 -0.12350575104E+01 -0.10082692372E+03  0.10473518443E+03  0.41800000000E+01 0. -1.
</event>
<event>
11    1  0.8299058E-009  0.1378491E+03  0.7561462E-02  0.1109984E+00
         22   -1    0    0    0    0  0.00000000000E+00  0.00000000000E+00  0.26248761586E+03  0.26248761586E+03  0.00000000000E+00 0. -1.
         22   -1    0    0    0    0 -0.00000000000E+00 -0.00000000000E+00 -0.58336638070E+03  0.58336638070E+03  0.00000000000E+00 0. -1.
        -24    2    1    2    0    0  0.10121552326E+02 -0.94312583183E+00 -0.38121458959E+03  0.38946307332E+03  0.79079623509E+02 0.  0.
         25    2    1    2    0    0  0.14421487573E+02 -0.51810822270E+02 -0.16306113895E+03  0.21243585752E+03  0.12509083865E+03 0.  0.
         24    2    1    2    0    0 -0.24543039900E+02  0.52753948101E+02  0.22339696371E+03  0.24395506573E+03  0.78883020062E+02 0.  0.
        -13    1    5    5    0    0 -0.20605687989E+01 -0.20595174439E+02  0.37157050309E+02  0.42532970054E+02  0.00000000000E+00 0.  1.
         14    1    5    5    0    0 -0.22482471101E+02  0.73349122540E+02  0.18623991340E+03  0.20142209568E+03  0.00000000000E+00 0. -1.
         13    1    3    3    0    0 -0.92331587588E+01  0.35925254264E+02 -0.14921437318E+03  0.15375566421E+03  0.00000000000E+00 0. -1.
        -14    1    3    3    0    0  0.19354711085E+02 -0.36868380095E+02 -0.23200021641E+03  0.23570740910E+03  0.00000000000E+00 0.  1.
          5    1    4    4  501    0 -0.69529553872E+01  0.26628613826E+02  0.24939828408E+01  0.27948506460E+02  0.41800000000E+01 0. -1.
         -5    1    4    4    0  501  0.21374442961E+02 -0.78439436096E+02 -0.16555512180E+03  0.18448735106E+03  0.41800000000E+01 0. -1.
</event>
<event>
11    1  0.8299058E-009  0.1347923E+03  0.7561462E-02  0.1113517E+00
         22   -1    0    0    0    0  0.00000000000E+00  0.00000000000E+00  0.92162021140E+03  0.92162021140E+03  0.00000000000E+00 0.  1.
         22   -1    0    0    0    0 -0.00000000000E+00 -0.00000000000E+00 -0.34060686525E+03  0.34060686525E+03  0.00000000000E+00 0.  1.
         24    2    1    2    0    0 -0.20756992657E+02 -0.12127462172E+02 -0.30765523465E+03  0.31921144151E+03  0.81647246722E+02 0.  0.
         25    2    1    2    0    0 -0.87391607163E+01 -0.31353896236E+02  0.14821420115E+03  0.19666167045E+03  0.12509565726E+03 0.  0.
        -24    2    1    2    0    0  0.29496153374E+02  0.43481358408E+02  0.74045437965E+03  0.74635396469E+03  0.77529998569E+02 0.  0.
        -11    1    3    3    0    0 -0.46088432728E+01  0.28411118469E+02 -0.21355474159E+03  0.21548563930E+03  0.00000000000E+00 0.  1.
         12    1    3    3    0    0 -0.16148149385E+02 -0.40538580641E+02 -0.94100493062E+02  0.10372580221E+03  0.00000000000E+00 0. -1.
         13    1    5    5    0    0 -0.29454762732E+01 -0.26888490411E+01  0.24378174838E+00  0.39956437757E+01  0.00000000000E+00 0. -1.
        -14    1    5    5    0    0  0.32441629647E+02  0.46170207449E+02  0.74021059790E+03  0.74235832092E+03  0.00000000000E+00 0.  1.
          5    1    4    4  501    0  0.32878727977E+02 -0.25857970380E+01 -0.64632857523E+01  0.33866555219E+02  0.41800000000E+01 0.  1.
         -5    1    4    4    0  501 -0.41617888693E+02 -0.28768099198E+02  0.15467748690E+03  0.16279511523E+03  0.41800000000E+01 0.  1.
</event>
<event>
11    1  0.8299058E-009  0.1360758E+03  0.7561462E-02  0.1112021E+00
         22   -1    0    0    0    0  0.00000000000E+00  0.00000000000E+00  0.22142358107E+04  0.22142358107E+04  0.00000000000E+00 0.  1.
         22   -1    0    0    0    0 -0.00000000000E+00 -0.00000000000E+00 -0.45337720978E+03  0.45337720978E+03  0.00000000000E+00 0.  1.
         24    2    1    2    0    0  0.48862646849E+02  0.26257295878E+01 -0.38564536419E+03  0.39688420950E+03  0.80001725746E+02 0.  0.
         25    2    1    2    0    0 -0.10101987599E+03  0.48288879088E+01  0.45024813346E+02  0.16705081548E+03  0.12510158925E+03 0.  0.
        -24    2    1    2    0    0  0.52157229141E+02 -0.74546174966E+01  0.21014791518E+04  0.21036779955E+04  0.80439639017E+02 0.  0.
        -11    1    3    3    0    0  0.56219797740E+02 -0.23731639196E+01 -0.38366789731E+03  0.38777229528E+03  0.00000000000E+00 0.  1.
         12    1    3    3    0    0 -0.73571508913E+01  0.49988935074E+01 -0.19774668806E+01  0.91119142226E+01  0.00000000000E+00 0. -1.
         13    1    5    5    0    0  0.55579459887E+02 -0.13939990802E+02  0.75235871617E+03  0.75453763160E+03  0.00000000000E+00 0. -1.
        -14    1    5    5    0    0 -0.34222307467E+01  0.64853733057E+01  0.13491204356E+04  0.13491403639E+04  0.00000000000E+00 0.  1.
          5    1    4    4  501    0 -0.26079170346E+02  0.21212387149E+02 -0.40027968699E+02  0.52438527560E+02  0.41800000000E+01 0.  1.
         -5    1    4    4    0  501 -0.74940705644E+02 -0.16383499240E+02  0.85052782045E+02  0.11461228792E+03  0.41800000000E+01 0.  1.
</event>
<event>
11    1  0.8299058E-009  0.1724127E+03  0.7561462E-02  0.1075951E+00
         22   -1    0    0    0    0  0.00000000000E+00  0.00000000000E+00  0.26106960086E+03  0.26106960086E+03  0.00000000000E+00 0. -1.
         22   -1    0    0    0    0 -0.00000000000E+00 -0.00000000000E+00 -0.11699737310E+04  0.11699737310E+04  0.00000000000E+00 0.  1.
         24    2    1    2    0    0  0.19814260569E+02  0.32517522082E+02 -0.91484841584E+03  0.91924651847E+03  0.81342138972E+02 0.  0.
         25    2    1    2    0    0  0.97253869932E+02 -0.26018038753E+01 -0.20538466134E+03  0.25942043189E+03  0.12510402379E+03 0.  0.
        -24    2    1    2    0    0 -0.11706813050E+03 -0.29915718207E+02  0.21132894702E+03  0.25237638153E+03  0.66588412879E+02 0.  0.
        -11    1    3    3    0    0 -0.18066804788E+02  0.33029574395E+02 -0.70509076922E+03  0.70609514590E+03  0.00000000000E+00 0.  1.
         12    1    3    3    0    0  0.37881065358E+02 -0.51205231262E+00 -0.20975764663E+03  0.21315137257E+03  0.00000000000E+00 0. -1.
         13    1    5    5    0    0 -0.23279024453E+02 -0.30789886982E+02  0.97630725168E+02  0.10498423032E+03  0.00000000000E+00 0. -1.
        -14    1    5    5    0    0 -0.93789106049E+02  0.87416877550E+00  0.11369822185E+03  0.14739215121E+03  0.00000000000E+00 0.  1.
          5    1    4    4  501    0  0.91741604302E+02 -0.53977670135E+02 -0.14275938451E+03  0.17812306167E+03  0.41800000000E+01 0.  1.
         -5    1    4    4    0  501  0.55122656301E+01  0.51375866260E+02 -0.62625276825E+02  0.81297370215E+02  0.41800000000E+01 0.  1.
</event>
<event>
11    1  0.8299058E-009  0.1319033E+03  0.7561462E-02  0.1116952E+00
         22   -1    0    0    0    0  0.00000000000E+00  0.00000000000E+00  0.32082849385E+03  0.32082849385E+03  0.00000000000E+00 0. -1.
         22   -1    0    0    0    0 -0.00000000000E+00 -0.00000000000E+00 -0.17266546441E+04  0.17266546441E+04  0.00000000000E+00 0.  1.
         24    2    1    2    0    0  0.37718751585E+02 -0.10394866303E+01 -0.16475859785E+04  0.16499157866E+04  0.79112333746E+02 0.  0.
         25    2    1    2    0    0 -0.60125994779E+02  0.33449181060E+02  0.32701107301E+01  0.14279879534E+03  0.12508724701E+03 0.  0.
        -24    2    1    2    0    0  0.22407243194E+02 -0.32409694430E+02  0.23848971758E+03  0.25476855601E+03  0.80481046842E+02 0.  0.
        -11    1    3    3    0    0  0.33807823678E+02  0.35403998523E+02 -0.11120800328E+04  0.11131569572E+04  0.00000000000E+00 0.  1.
         12    1    3    3    0    0  0.39109279069E+01 -0.36443485153E+02 -0.53550594571E+03  0.53675882932E+03  0.00000000000E+00 0. -1.
         13    1    5    5    0    0  0.22374617171E+01  0.72197418384E+01  0.18523889095E+03  0.18539303554E+03  0.00000000000E+00 0. -1.
        -14    1    5    5    0    0  0.20169781477E+02 -0.39629436269E+02  0.53250826631E+02  0.69375520472E+02  0.00000000000E+00 0.  1.
          5    1    4    4  501    0 -0.15095543920E+02 -0.31116264211E+02  0.42331944345E+02  0.54823017581E+02  0.41800000000E+01 0. -1.
         -5    1    4    4    0  501 -0.45030450859E+02  0.64565445271E+02 -0.39061833614E+02  0.87975777763E+02  0.41800000000E+01 0. -1.
</event>
<event>
11    1  0.8299058E-009  0.1378179E+03  0.7561462E-02  0.1110020E+00
         22   -1    0    0    0    0  0.00000000000E+00  0.00000000000E+00  0.55321086810E+03  0.55321086810E+03  0.00000000000E+00 0.  1.
         22   -1    0    0    0    0 -0.00000000000E+00 -0.00000000000E+00 -0.18477726245E+03  0.18477726245E+03  0.00000000000E+00 0. -1.
        -24    2    1    2    0    0  0.31089556531E+02  0.57126086583E+02 -0.10312190628E+03  0.14709334051E+03  0.82294428573E+02 0.  0.
         25    2    1    2    0    0 -0.28812721329E+02 -0.21296043662E+02  0.20625741238E+02  0.13174512837E+03  0.12509062020E+03 0.  0.
         24    2    1    2    0    0 -0.22768352019E+01 -0.35830042921E+02  0.45092977069E+03  0.45914966168E+03  0.78687850180E+02 0.  0.
        -13    1    5    5    0    0 -0.10717683209E+02 -0.55201331122E+02  0.40113226352E+03  0.40505450069E+03  0.00000000000E+00 0.  1.
         14    1    5    5    0    0  0.84408480071E+01  0.19371288202E+02  0.49797507171E+02  0.54095160986E+02  0.00000000000E+00 0. -1.
         13    1    3    3    0    0  0.50691300592E+02  0.23949359063E+02 -0.90658242817E+02  0.10659313649E+03  0.00000000000E+00 0. -1.
        -14    1    3    3    0    0 -0.19601744060E+02  0.33176727520E+02 -0.12463663463E+02  0.40500204025E+02  0.00000000000E+00 0.  1.
          5    1    4    4  501    0 -0.10441614229E+02 -0.67556257348E+02 -0.15353909787E+02  0.70186110879E+02  0.41800000000E+01 0. -1.
         -5    1    4    4    0  501 -0.18371107100E+02  0.46260213686E+02  0.35979651026E+02  0.61559017489E+02  0.41800000000E+01 0. -1.
</event>
<event>
11    1  0.8299058E-009  0.1804524E+03  0.7561462E-02  0.1069277E+00
         22   -1    0    0    0    0  0.00000000000E+00  0.00000000000E+00  0.34804315066E+04  0.34804315066E+04  0.00000000000E+00 0. -1.
         22   -1    0    0    0    0 -0.00000000000E+00 -0.00000000000E+00 -0.13578922874E+04  0.13578922874E+04  0.00000000000E+00 0.  1.
        -24    2    1    2    0    0  0.10022908698E+03 -0.64413720833E+02 -0.13023703322E+04  0.13102834614E+04  0.80493911491E+02 0.  0.
         25    2    1    2    0    0 -0.21777372149E+03  0.10974677955E+03  0.32759746639E+03  0.42712627204E+03  0.12508798058E+03 0.  0.
         24    2    1    2    0    0  0.11754463451E+03 -0.45333058720E+02  0.30973120851E+04  0.31009140605E+04  0.80336982749E+02 0.  0.
        -11    1    5    5    0    0  0.26887759063E+02 -0.48436193855E+02  0.15061112525E+04  0.15071297626E+04  0.00000000000E+00 0.  1.
         12    1    5    5    0    0  0.90656875452E+02  0.31031351347E+01  0.15912008326E+04  0.15937842979E+04  0.00000000000E+00 0. -1.
         13    1    3    3    0    0 -0.13022990108E+02  0.40667294974E+00 -0.14317109863E+03  0.14376274600E+03  0.00000000000E+00 0. -1.
        -14    1    3    3    0    0  0.11325207708E+03 -0.64820393783E+02 -0.11591992336E+04  0.11665207154E+04  0.00000000000E+00 0.  1.
          5    1    4    4  501    0 -0.19052716290E+03  0.78287652428E+02  0.17955791288E+03  0.27329118684E+03  0.41800000000E+01 0. -1.
         -5    1    4    4    0  501 -0.27246558591E+02  0.31459127124E+02  0.14803955351E+03  0.15383508520E+03  0.41800000000E+01 0. -1.
</event>
<event>
11    1  0.8299058E-009  0.1816192E+03  0.7561462E-02  0.1068341E+00
         22   -1    0    0    0    0  0.00000000000E+00  0.00000000000E+00  0.36530312152E+03  0.36530312152E+03  0.00000000000E+00 0.  1.
         22   -1    0    0    0    0 -0.00000000000E+00 -0.00000000000E+00 -0.11373753857E+04  0.11373753857E+04  0.00000000000E+00 0.  1.
        -24    2    1    2    0    0 -0.29787306545E+01  0.40613772912E+02 -0.10132585939E+04  0.10173292689E+04  0.81286602730E+02 0.  0.
         25    2    1    2    0    0 -0.73059167415E+02  0.74142073843E+02 -0.35989075211E+02  0.16666853804E+03  0.12509396061E+03 0.  0.
         24    2    1    2    0    0  0.76037898069E+02 -0.11475584676E+03  0.27717540496E+03  0.31868070030E+03  0.76029713409E+02 0.  0.
        -13    1    5    5    0    0  0.70514109042E+02 -0.71891489353E+02  0.24473050479E+03  0.26463870804E+03  0.00000000000E+00 0.  1.
         14    1    5    5    0    0  0.55237890273E+01 -0.42864357403E+02  0.32444900166E+02  0.54041992261E+02  0.00000000000E+00 0. -1.
         11    1    3    3    0    0  0.22401092221E+02  0.22394940777E+02 -0.14111867676E+03  0.14462995276E+03  0.00000000000E+00 0. -1.
        -12    1    3    3    0    0 -0.25379822875E+02  0.18218832135E+02 -0.87213991716E+03  0.87269931612E+03  0.00000000000E+00 0.  1.
          5    1    4    4  501    0 -0.30536510404E+02  0.71135861144E+02 -0.75630706677E+02  0.10830634977E+03  0.41800000000E+01 0. -1.
         -5    1    4    4    0  501 -0.42522657011E+02  0.30062126996E+01  0.39641631466E+02  0.58362188267E+02  0.41800000000E+01 0. -1.
</event>
<event>
11    1  0.8299058E-009  0.1599593E+03  0.7561462E-02  0.1087116E+00
         22   -1    0    0    0    0  0.00000000000E+00  0.00000000000E+00  0.13208049451E+03  0.13208049451E+03  0.00000000000E+00 0. -1.
         22   -1    0    0    0    0 -0.00000000000E+00 -0.00000000000E+00 -0.54012219837E+03  0.54012219837E+03  0.00000000000E+00 0. -1.
         24    2    1    2    0    0 -0.95334316565E+02 -0.18157303802E+01 -0.32018806560E+03  0.33981189348E+03  0.62127262962E+02 0.  0.
         25    2    1    2    0    0 -0.27525855132E+01 -0.68196038093E+02 -0.11795965925E+03  0.18498594437E+03  0.12508813719E+03 0.  0.
        -24    2    1    2    0    0  0.98086902078E+02  0.70011768473E+02  0.30106020994E+02  0.14740485503E+03  0.79367063085E+02 0.  0.
        -11    1    3    3    0    0 -0.24884737641E+00 -0.10471623972E+02 -0.90003440391E+02  0.90610905061E+02  0.00000000000E+00 0.  1.
         12    1    3    3    0    0 -0.95085469188E+02  0.86558935916E+01 -0.23018462521E+03  0.24920098842E+03  0.00000000000E+00 0. -1.
         13    1    5    5    0    0  0.10264119772E+03  0.38637601954E+02  0.10604638402E+02  0.11018411006E+03  0.00000000000E+00 0. -1.
        -14    1    5    5    0    0 -0.45542956375E+01  0.31374166519E+02  0.19501382592E+02  0.37220744975E+02  0.00000000000E+00 0.  1.
          5    1    4    4  501    0 -0.28859924994E+02 -0.93531456009E+02 -0.55545364300E+02  0.11262232651E+03  0.41800000000E+01 0.  1.
         -5    1    4    4    0  501  0.26107339480E+02  0.25335417916E+02 -0.62414294951E+02  0.72363617861E+02  0.41800000000E+01 0.  1.
</event>
<event>
11    1  0.8299058E-009  0.1341585E+03  0.7561462E-02  0.1114263E+00
         22   -1    0    0    0    0  0.00000000000E+00  0.00000000000E+00  0.17524918270E+04  0.17524918270E+04  0.00000000000E+00 0.  1.
         22   -1    0    0    0    0 -0.00000000000E+00 -0.00000000000E+00 -0.10620901621E+03  0.10620901621E+03  0.00000000000E+00 0. -1.
         24    2    1    2    0    0 -0.38221789031E+02  0.27922627668E+02 -0.67770760139E+02  0.11635669868E+03  0.81886672323E+02 0.  0.
         25    2    1    2    0    0  0.66083310806E+02 -0.23825439698E+02  0.38940539835E+03  0.41499191082E+03  0.12508823379E+03 0.  0.
        -24    2    1    2    0    0 -0.27861521775E+02 -0.40971879702E+01  0.13246481725E+04  0.13273522337E+04  0.79863132371E+02 0.  0.
        -11    1    3    3    0    0 -0.22335452420E+02 -0.15911297916E+01  0.15070812565E+02  0.26991360102E+02  0.00000000000E+00 0.  1.
         12    1    3    3    0    0 -0.15886336611E+02  0.29513757460E+02 -0.82841572703E+02  0.89365338573E+02  0.00000000000E+00 0. -1.
         13    1    5    5    0    0  0.37091614777E+01  0.27975609008E+02  0.22206410752E+03  0.22385008471E+03  0.00000000000E+00 0. -1.
        -14    1    5    5    0    0 -0.31570683253E+02 -0.32072796978E+02  0.11025840650E+04  0.11035021490E+04  0.00000000000E+00 0.  1.
          5    1    4    4  501    0  0.87510574640E+02  0.15956982742E+02  0.31926609688E+03  0.33145292122E+03  0.41800000000E+01 0.  1.
         -5    1    4    4    0  501 -0.21427263835E+02 -0.39782422440E+02  0.70139301479E+02  0.83538989595E+02  0.41800000000E+01 0.  1.
</event>
<event>
11    1  0.8299058E-009  0.1541494E+03  0.7561462E-02  0.1092713E+00
         22   -1    0    0    0    0  0.00000000000E+00  0.00000000000E+00  0.18852104182E+04  0.18852104182E+04  0.00000000000E+00 0.  1.
         22   -1    0    0    0    0 -0.00000000000E+00 -0.00000000000E+00 -0.12319886565E+04  0.12319886565E+04  0.00000000000E+00 0. -1.
        -24    2    1    2    0    0  0.19096491535E+02 -0.88013660788E+02 -0.11867465118E+04  0.11929648738E+04  0.81773017328E+02 0.  0.
         25    2    1    2    0    0  0.26137934580E+02  0.98472731306E+02  0.11841877118E+03  0.20012762210E+03  0.12509192350E+03 0.  0.
         24    2    1    2    0    0 -0.45234426115E+02 -0.10459070518E+02  0.17215495023E+04  0.17241065788E+04  0.81579781912E+02 0.  0.
        -11    1    5    5    0    0 -0.55781071163E+02 -0.69572959825E+01  0.63061537023E+03  0.63311584804E+03  0.00000000000E+00 0.  1.
         12    1    5    5    0    0  0.10546645048E+02 -0.35017745350E+01  0.10909341320E+04  0.10909907307E+04  0.00000000000E+00 0. -1.
         11    1    3    3    0    0  0.12254786050E+02 -0.98720957762E+02 -0.82207307608E+03  0.82807013573E+03  0.00000000000E+00 0. -1.
        -12    1    3    3    0    0  0.68417054855E+01  0.10707296973E+02 -0.36467343575E+03  0.36489473809E+03  0.00000000000E+00 0.  1.
          5    1    4    4  501    0 -0.30063843896E+02  0.10014384176E+03  0.70993646437E+02  0.12645233879E+03  0.41800000000E+01 0.  1.
         -5    1    4    4    0  501  0.56201778476E+02 -0.16711104497E+01  0.47425124744E+02  0.73675283311E+02  0.41800000000E+01 0.  1.
</event>
<event>
11    1  0.8299058E-009  0.1582041E+03  0.7561462E-02  0.1088779E+00
         22   -1    0    0    0    0  0.00000000000E+00  0.00000000000E+00  0.53645525242E+03  0.53645525242E+03  0.00000000000E+00 0.  1.
         22   -1    0    0    0    0 -0.00000000000E+00 -0.00000000000E+00 -0.96004813457E+03  0.96004813457E+03  0.00000000000E+00 0. -1.
         24    2    1    2    0    0 -0.33864189505E+01 -0.95808378940E+02 -0.79693767253E+03  0.80668124479E+03  0.80213860941E+02 0.  0.
         25    2    1    2    0    0 -0.27117670643E+02  0.10653042332E+03 -0.10918439256E+03  0.19912944588E+03  0.12508879041E+03 0.  0.
        -24    2    1    2    0    0  0.30504089593E+02 -0.10722044379E+02  0.48252918295E+03  0.49069269631E+03  0.83062916530E+02 0.  0.
        -13    1    3    3    0    0 -0.76099828907E+01 -0.79990745893E+02 -0.33679681481E+03  0.34624922488E+03  0.00000000000E+00 0.  1.
         14    1    3    3    0    0  0.42235639401E+01 -0.15817633046E+02 -0.46014085773E+03  0.46043201991E+03  0.00000000000E+00 0. -1.
         11    1    5    5    0    0 -0.27989725052E+02 -0.82941033410E+01  0.12220430455E+03  0.12564278296E+03  0.00000000000E+00 0. -1.
        -12    1    5    5    0    0  0.58493814646E+02 -0.24279410384E+01  0.36032487840E+03  0.36504991336E+03  0.00000000000E+00 0.  1.
          5    1    4    4  501    0 -0.55586854550E+02  0.89842360684E+02 -0.25049527544E+02  0.10865771672E+03  0.41800000000E+01 0.  1.
         -5    1    4    4    0  501  0.28469183907E+02  0.16688062635E+02 -0.84134865015E+02  0.90471729164E+02  0.41800000000E+01 0.  1.
</event>
<event>
11    1  0.8299058E-009  0.1577405E+03  0.7561462E-02  0.1089222E+00
         22   -1    0    0    0    0  0.00000000000E+00  0.00000000000E+00  0.50547602573E+03  0.50547602573E+03  0.00000000000E+00 0.  1.
         22   -1    0    0    0    0 -0.00000000000E+00 -0.00000000000E+00 -0.53989254738E+03  0.53989254738E+03  0.00000000000E+00 0.  1.
        -24    2    1    2    0    0 -0.59343620534E+02  0.21332470677E+02 -0.37217884918E+03  0.38626747771E+03  0.81906830960E+02 0.  0.
         25    2    1    2    0    0 -0.22538608958E+02  0.35048344576E+02 -0.12332137220E+03  0.18053010482E+03  0.12508630043E+03 0.  0.
         24    2    1    2    0    0  0.81882229492E+02 -0.56380815253E+02  0.46108369973E+03  0.47857099058E+03  0.80922920301E+02 0.  0.
        -13    1    5    5    0    0  0.59949868300E+02 -0.69315022416E+02  0.25592915459E+03  0.27184240142E+03  0.00000000000E+00 0.  1.
         14    1    5    5    0    0  0.21932361191E+02  0.12934207162E+02  0.20515454515E+03  0.20672858916E+03  0.00000000000E+00 0. -1.
         13    1    3    3    0    0 -0.28292862606E+02  0.36645551153E+02 -0.32195617696E+03  0.32526783176E+03  0.00000000000E+00 0. -1.
        -14    1    3    3    0    0 -0.31050757928E+02 -0.15313080477E+02 -0.50222672218E+02  0.60999645952E+02  0.00000000000E+00 0.  1.
          5    1    4    4  501    0  0.38389863550E+02  0.95426893634E+01 -0.10435951857E+03  0.11168359799E+03  0.41800000000E+01 0.  1.
         -5    1    4    4    0  501 -0.60928472508E+02  0.25505655213E+02 -0.18961853627E+02  0.68846506832E+02  0.41800000000E+01 0.  1.
</event>
<event>
11    1  0.8299058E-009  0.1524545E+03  0.7561462E-02  0.1094397E+00
         22   -1    0    0    0    0  0.00000000000E+00  0.00000000000E+00  0.10768432586E+03  0.10768432586E+03  0.00000000000E+00 0. -1.
         22   -1    0    0    0    0 -0.00000000000E+00 -0.00000000000E+00 -0.17541579172E+04  0.17541579172E+04  0.00000000000E+00 0. -1.
        -24    2    1    2    0    0 -0.42821371311E+02  0.80495285491E+02 -0.14823328443E+04  0.14876532383E+04  0.86535167798E+02 0.  0.
         25    2    1    2    0    0  0.21369405202E+02 -0.54271245435E+02 -0.22762390594E+03  0.26619806451E+03  0.12508695948E+03 0.  0.
         24    2    1    2    0    0  0.21451966109E+02 -0.26224040056E+02  0.63483158922E+02  0.10799094025E+03  0.80523565381E+02 0.  0.
        -13    1    5    5    0    0  0.48131346079E+01 -0.75138537718E+00 -0.19241498373E+02  0.19848579405E+02  0.00000000000E+00 0.  1.
         14    1    5    5    0    0  0.16638831501E+02 -0.25472654679E+02  0.82724657295E+02  0.88142360842E+02  0.00000000000E+00 0. -1.
         13    1    3    3    0    0 -0.63280532623E+01  0.88155357720E+02 -0.10267171627E+04  0.10305142132E+04  0.00000000000E+00 0. -1.
        -14    1    3    3    0    0 -0.36493318049E+02 -0.76600722294E+01 -0.45561568157E+03  0.45713902509E+03  0.00000000000E+00 0.  1.
          5    1    4    4  501    0  0.68772634349E+02 -0.53493011450E+02 -0.17301662983E+03  0.19376120383E+03  0.41800000000E+01 0. -1.
         -5    1    4    4    0  501 -0.47403229147E+02 -0.77823398475E+00 -0.54607276112E+02  0.72436860686E+02  0.41800000000E+01 0. -1.
</event>
<event>
11    1  0.8299058E-009  0.1307082E+03  0.7561462E-02  0.1118402E+00
         22   -1    0    0    0    0  0.00000000000E+00  0.00000000000E+00  0.64858283311E+03  0.64858283311E+03  0.00000000000E+00 0.  1.
         22   -1    0    0    0    0 -0.00000000000E+00 -0.00000000000E+00 -0.22382260269E+03  0.22382260269E+03  0.00000000000E+00 0.  1.
         24    2    1    2    0    0  0.22904331367E+02  0.46046996994E+02 -0.10403423404E+03  0.14159251629E+03  0.81119569092E+02 0.  0.
         25    2    1    2    0    0 -0.32037235096E+01 -0.83604884695E+01 -0.57309825371E+02  0.13788353702E+03  0.12508913656E+03 0.  0.
        -24    2    1    2    0    0 -0.19700607857E+02 -0.37686508524E+02  0.58610428984E+03  0.59292938248E+03  0.78984980670E+02 0.  0.
        -13    1    3    3    0    0  0.43694836324E+02  0.15163787653E+02 -0.91121286117E+02  0.10218741586E+03  0.00000000000E+00 0.  1.
         14    1    3    3    0    0 -0.20790504958E+02  0.30883209341E+02 -0.12912947925E+02  0.39405100428E+02  0.00000000000E+00 0. -1.
         11    1    5    5    0    0 -0.74208353928E+01 -0.26221900534E+02  0.53322260350E+02  0.59882554340E+02  0.00000000000E+00 0. -1.
        -12    1    5    5    0    0 -0.12279772464E+02 -0.11464607991E+02  0.53278202949E+03  0.53304682814E+03  0.00000000000E+00 0.  1.
          5    1    4    4  501    0 -0.37729123304E+02  0.37374562797E+02 -0.60161687806E+02  0.80356989548E+02  0.41800000000E+01 0. -1.
         -5    1    4    4    0  501  0.34525399794E+02 -0.45735051266E+02  0.28518624350E+01  0.57526547477E+02  0.41800000000E+01 0. -1.
</event>
<event>
11    1  0.8299058E-009  0.2087997E+03  0.7561462E-02  0.1048470E+00
         22   -1    0    0    0    0  0.00000000000E+00  0.00000000000E+00  0.63094210204E+03  0.63094210204E+03  0.00000000000E+00 0.  1.
         22   -1    0    0    0    0 -0.00000000000E+00 -0.00000000000E+00 -0.29827410660E+03  0.29827410660E+03  0.00000000000E+00 0. -1.
        -24    2    1    2    0    0  0.87909462924E+02 -0.13449396115E+03 -0.19062322897E+03  0.26330047960E+03  0.84694910574E+02 0.  0.
         25    2    1    2    0    0 -0.10830064609E+03  0.17699446620E+03  0.15940948978E+03  0.29002523422E+03  0.12508868872E+03 0.  0.
         24    2    1    2    0    0  0.20391183161E+02 -0.42500505051E+02  0.36388173462E+03  0.37589049483E+03  0.81618956304E+02 0.  0.
        -11    1    5    5    0    0  0.18364485507E+01  0.21642505627E+02  0.15711814816E+03  0.15861236735E+03  0.00000000000E+00 0.  1.
         12    1    5    5    0    0  0.18554734610E+02 -0.64143010678E+02  0.20676358646E+03  0.21727812748E+03  0.00000000000E+00 0. -1.
         11    1    3    3    0    0  0.36775513945E+02 -0.11099559493E+03 -0.16302377989E+03  0.20062206591E+03  0.00000000000E+00 0. -1.
        -12    1    3    3    0    0  0.51133948979E+02 -0.23498366220E+02 -0.27599449077E+02  0.62678413689E+02  0.00000000000E+00 0.  1.
          5    1    4    4  501    0 -0.38761952119E+02  0.20664258395E+02 -0.14086264036E+02  0.46318416872E+02  0.41800000000E+01 0.  1.
         -5    1    4    4    0  501 -0.69538693966E+02  0.15633020780E+03  0.17349575382E+03  0.24370681735E+03  0.41800000000E+01 0.  1.
</event>
<event>
11    1  0.8299058E-009  0.1805380E+03  0.7561462E-02  0.1069208E+00
         22   -1    0    0    0    0  0.00000000000E+00  0.00000000000E+00  0.33733492008E+04  0.33733492008E+04  0.00000000000E+00 0. -1.
         22   -1    0    0    0    0 -0.00000000000E+00 -0.00000000000E+00 -0.10907054652E+03  0.10907054652E+03  0.00000000000E+00 0.  1.
        -24    2    1    2    0    0  0.12255905787E+03 -0.11723544791E+02 -0.10083619223E+02  0.14500626226E+03  0.75940585651E+02 0.  0.
         25    2    1    2    0    0 -0.17849891596E+03 -0.65003748927E+02  0.39789645888E+03  0.45831864705E+03  0.12508812843E+03 0.  0.
         24    2    1    2    0    0  0.55939858090E+02  0.76727293717E+02  0.28764658146E+04  0.28790948380E+04  0.78199477049E+02 0.  0.
        -11    1    5    5    0    0  0.10500237533E+02  0.43072873578E+02  0.50146058002E+03  0.50341656781E+03  0.00000000000E+00 0.  1.
         12    1    5    5    0    0  0.45439620557E+02  0.33654420139E+02  0.23750052346E+04  0.23756782702E+04  0.00000000000E+00 0. -1.
         11    1    3    3    0    0  0.62790219943E+02 -0.74849628322E+01  0.32883607012E+02  0.71273894234E+02  0.00000000000E+00 0. -1.
        -12    1    3    3    0    0  0.59768837925E+02 -0.42385819586E+01 -0.42967226236E+02  0.73732368023E+02  0.00000000000E+00 0.  1.
          5    1    4    4  501    0 -0.93379969899E+02 -0.97876198252E+02  0.25578476125E+03  0.28938363024E+03  0.41800000000E+01 0. -1.
         -5    1    4    4    0  501 -0.85118946059E+02  0.32872449326E+02  0.14211169763E+03  0.16893501682E+03  0.41800000000E+01 0. -1.
</event>
<event>
11    1  0.8299058E-009  0.1559827E+03  0.7561462E-02  0.1090918E+00
         22   -1    0    0    0    0  0.00000000000E+00  0.00000000000E+00  0.91636260566E+02  0.91636260566E+02  0.00000000000E+00 0.  1.
         22   -1    0    0    0    0 -0.00000000000E+00 -0.00000000000E+00 -0.83520741985E+03  0.83520741985E+03  0.00000000000E+00 0. -1.
        -24    2    1    2    0    0  0.63550713913E+02 -0.64092688911E+02 -0.54880475684E+03  0.56199688849E+03  0.80667685835E+02 0.  0.
         25    2    1    2    0    0 -0.79303512974E+02  0.69463589091E+02 -0.21933648144E+03  0.27362414442E+03  0.12508973954E+03 0.  0.
         24    2    1    2    0    0  0.15752799061E+02 -0.53709001794E+01  0.24570078996E+02  0.91222647504E+02  0.86260566824E+02 0.  0.
        -13    1    5    5    0    0  0.39556793529E+01  0.28531671189E+02  0.42308057154E+02  0.51182764288E+02  0.00000000000E+00 0.  1.
         14    1    5    5    0    0  0.11797119708E+02 -0.33902571369E+02 -0.17737978158E+02  0.40039883216E+02  0.00000000000E+00 0. -1.
         13    1    3    3    0    0  0.41468654647E+02 -0.80821970338E+02 -0.46311991720E+03  0.47194480389E+03  0.00000000000E+00 0. -1.
        -14    1    3    3    0    0  0.22082059265E+02  0.16729281426E+02 -0.85684839637E+02  0.90052084607E+02  0.00000000000E+00 0.  1.
          5    1    4    4  501    0 -0.64789450896E+02  0.96228088858E+02 -0.10953281442E+03  0.15960083918E+03  0.41800000000E+01 0. -1.
         -5    1    4    4    0  501 -0.14514062078E+02 -0.26764499768E+02 -0.10980366702E+03  0.11402330524E+03  0.41800000000E+01 0. -1.
</event>
<event>
11    1  0.8299058E-009  0.1420507E+03  0.7561462E-02  0.1105290E+00
         22   -1    0    0    0    0  0.00000000000E+00  0.00000000000E+00  0.54394185124E+03  0.54394185124E+03  0.00000000000E+00 0.  1.
         22   -1    0    0    0    0 -0.00000000000E+00 -0.00000000000E+00 -0.23832686699E+03  0.23832686699E+03  0.00000000000E+00 0.  1.
         24    2    1    2    0    0 -0.34131056205E+02 -0.53369193315E+02 -0.79437456823E+02  0.13086252131E+03  0.82471147345E+02 0.  0.
         25    2    1    2    0    0  0.94022145082E+02  0.78298920268E+02 -0.66704891641E+02  0.18726428512E+03  0.12508990859E+03 0.  0.
        -24    2    1    2    0    0 -0.59891088877E+02 -0.24929726953E+02  0.45175733272E+03  0.46414191180E+03  0.84466518900E+02 0.  0.
        -13    1    3    3    0    0 -0.29813237655E+02  0.13016417352E+02 -0.46177785652E+02  0.56485787131E+02  0.00000000000E+00 0.  1.
         14    1    3    3    0    0 -0.43178185503E+01 -0.66385610667E+02 -0.33259671172E+02  0.74376734179E+02  0.00000000000E+00 0. -1.
         13    1    5    5    0    0 -0.48073186250E+02  0.20520142843E+02  0.15218539399E+03  0.16091147145E+03  0.00000000000E+00 0. -1.
        -14    1    5    5    0    0 -0.11817902627E+02 -0.45449869796E+02  0.29957193873E+03  0.30323044036E+03  0.00000000000E+00 0.  1.
          5    1    4    4  501    0  0.30800931128E+02  0.10213386417E+03 -0.33692173488E+02  0.11194935696E+03  0.41800000000E+01 0. -1.
         -5    1    4    4    0  501  0.63221213954E+02 -0.23834943902E+02 -0.33012718153E+02  0.75314928165E+02  0.41800000000E+01 0. -1.
</event>
<event>
11    1  0.8299058E-009  0.1734931E+03  0.7561462E-02  0.1075031E+00
         22   -1    0    0    0    0  0.00000000000E+00  0.00000000000E+00  0.25614006189E+03  0.25614006189E+03  0.00000000000E+00 0.  1.
         22   -1    0    0    0    0 -0.00000000000E+00 -0.00000000000E+00 -0.56002493580E+03  0.56002493580E+03  0.00000000000E+00 0.  1.
        -24    2    1    2    0    0  0.60729853101E+01  0.10953172336E+03 -0.33225691430E+03  0.35920053968E+03  0.81217553722E+02 0.  0.
         25    2    1    2    0    0 -0.86657979911E+02 -0.16108712077E+03 -0.12892611315E+03  0.25637052617E+03  0.12508092611E+03 0.  0.
         24    2    1    2    0    0  0.80584994601E+02  0.51555397407E+02  0.15729815354E+03  0.20059393184E+03  0.79644937245E+02 0.  0.
        -13    1    5    5    0    0  0.76828604859E+02  0.40860163894E+02  0.16524043629E+03  0.18675274912E+03  0.00000000000E+00 0.  1.
         14    1    5    5    0    0  0.37563897422E+01  0.10695233513E+02 -0.79422827541E+01  0.13841182722E+02  0.00000000000E+00 0. -1.
         13    1    3    3    0    0  0.54347044969E+01 -0.12014768786E+02 -0.18466747566E+02  0.22691660309E+02  0.00000000000E+00 0. -1.
        -14    1    3    3    0    0  0.63828081324E+00  0.12154649214E+03 -0.31379016674E+03  0.33650887937E+03  0.00000000000E+00 0.  1.
          5    1    4    4  501    0 -0.66298125230E+02 -0.11632275905E+03 -0.18254697200E+02  0.13519294379E+03  0.41800000000E+01 0. -1.
         -5    1    4    4    0  501 -0.20359854682E+02 -0.44764361720E+02 -0.11067141595E+03  0.12117758238E+03  0.41800000000E+01 0. -1.
</event>
<event>
11    1  0.8299058E-009  0.1508695E+03  0.7561462E-02  0.1095994E+00
         22   -1    0    0    0    0  0.00000000000E+00  0.00000000000E+00  0.71892833196E+03  0.71892833196E+03  0.00000000000E+00 0.  1.
         22   -1    0    0    0    0 -0.00000000000E+00 -0.00000000000E+00 -0.16243676311E+04  0.16243676311E+04  0.00000000000E+00 0. -1.
        -24    2    1    2    0    0 -0.41857666232E+02 -0.37969026108E+02 -0.12417717118E+04  0.12454957503E+04  0.77903585662E+02 0.  0.
         25    2    1    2    0    0  0.12136243695E+03  0.10872448323E+02 -0.35561411097E+03  0.39617655943E+03  0.12508964421E+03 0.  0.
         24    2    1    2    0    0 -0.79504770719E+02  0.27096577785E+02  0.69194652366E+03  0.70162365328E+03  0.80190561480E+02 0.  0.
        -13    1    5    5    0    0 -0.43062147290E+02  0.27569911487E+02  0.60750099808E+03  0.60964900658E+03  0.00000000000E+00 0.  1.
         14    1    5    5    0    0 -0.36442623429E+02 -0.47333370208E+00  0.84445525572E+02  0.91974646704E+02  0.00000000000E+00 0. -1.
         11    1    3    3    0    0 -0.59312851107E+01  0.51491268614E+01 -0.81636809764E+03  0.81640588220E+03  0.00000000000E+00 0. -1.
        -12    1    3    3    0    0 -0.35926381121E+02 -0.43118152969E+02 -0.42540361414E+03  0.42908986809E+03  0.00000000000E+00 0.  1.
          5    1    4    4  501    0 -0.26059307744E+02  0.25972161728E+01 -0.45112855612E+02  0.52330442320E+02  0.41800000000E+01 0.  1.
         -5    1    4    4    0  501  0.14742174469E+03  0.82752321501E+01 -0.31050125536E+03  0.34384611711E+03  0.41800000000E+01 0.  1.
</event>
<event>
11    1  0.8299058E-009  0.2019796E+03  0.7561462E-02  0.1053133E+00
         22   -1    0    0    0    0  0.00000000000E+00  0.00000000000E+00  0.63584059314E+03  0.63584059314E+03  0.00000000000E+00 0. -1.
         22   -1    0    0    0    0 -0.00000000000E+00 -0.00000000000E+00 -0.35962128194E+04  0.35962128194E+04  0.00000000000E+00 0.  1.
        -24    2    1    2    0    0 -0.12290898532E+02  0.15517840379E+02 -0.33246165619E+04  0.33254088989E+04  0.69836892778E+02 0.  0.
         25    2    1    2    0    0  0.62824607711E+02  0.13535363070E+03 -0.22115661116E+03  0.29466142835E+03  0.12509026350E+03 0.  0.
         24    2    1    2    0    0 -0.50533709179E+02 -0.15087147108E+03  0.58540094685E+03  0.61198308524E+03  0.80704222284E+02 0.  0.
        -13    1    5    5    0    0  0.14390034159E+02 -0.46015951177E+02  0.97952939670E+02  0.10917563481E+03  0.00000000000E+00 0.  1.
         14    1    5    5    0    0 -0.64923743338E+02 -0.10485551990E+03  0.48744800718E+03  0.50280745043E+03  0.00000000000E+00 0. -1.
         13    1    3    3    0    0 -0.53619460065E+01  0.90580140928E+01 -0.70767670530E+02  0.71546217765E+02  0.00000000000E+00 0. -1.
        -14    1    3    3    0    0 -0.69289525255E+01  0.64598262860E+01 -0.32538488914E+04  0.32538626812E+04  0.00000000000E+00 0.  1.
          5    1    4    4  501    0 -0.27665595627E+01 -0.57509807910E+01 -0.92221748321E+02  0.92536754294E+02  0.41800000000E+01 0.  1.
         -5    1    4    4    0  501  0.65591167274E+02  0.14110461149E+03 -0.12893486284E+03  0.20212467406E+03  0.41800000000E+01 0.  1.
</event>
<event>
11    1  0.8299058E-009  0.1451760E+03  0.7561462E-02  0.1101912E+00
         22   -1    0    0    0    0  0.00000000000E+00  0.00000000000E+00  0.23567806966E+03  0.23567806966E+03  0.00000000000E+00 0.  1.
         22   -1    0    0    0    0 -0.00000000000E+00 -0.00000000000E+00 -0.26920208107E+03  0.26920208107E+03  0.00000000000E+00 0.  1.
         24    2    1    2    0    0 -0.21245946820E+02 -0.25999903115E+01 -0.17036227186E+03  0.19101968353E+03  0.83708217144E+02 0.  0.
         25    2    1    2    0    0  0.85956290844E+02  0.26086578347E+02  0.19081949462E+02  0.15518309984E+03  0.12509468484E+03 0.  0.
        -24    2    1    2    0    0 -0.64710344024E+02 -0.23486588035E+02  0.11775631098E+03  0.15867736736E+03  0.81073483293E+02 0.  0.
        -13    1    3    3    0    0 -0.42957339854E+01 -0.40991865030E+02 -0.11029067363E+03  0.11774047315E+03  0.00000000000E+00 0.  1.
         14    1    3    3    0    0 -0.16950212834E+02  0.38391874718E+02 -0.60071598231E+02  0.73279210378E+02  0.00000000000E+00 0. -1.
         13    1    5    5    0    0 -0.17301640729E+01  0.25856940111E+02  0.35226428172E+02  0.43731865514E+02  0.00000000000E+00 0. -1.
        -14    1    5    5    0    0 -0.62980179951E+02 -0.49343528147E+02  0.82529882812E+02  0.11494550184E+03  0.00000000000E+00 0.  1.
          5    1    4    4  501    0  0.28489309455E+01  0.53345058333E+02  0.37884162307E+02  0.65623881399E+02  0.41800000000E+01 0.  1.
         -5    1    4    4    0  501  0.83107359899E+02 -0.27258479986E+02 -0.18802212845E+02  0.89559218444E+02  0.41800000000E+01 0.  1.
</event>
<event>
11    1  0.8299058E-009  0.1490747E+03  0.7561462E-02  0.1097828E+00
         22   -1    0    0    0    0  0.00000000000E+00  0.00000000000E+00  0.87546609711E+03  0.87546609711E+03  0.00000000000E+00 0. -1.
         22   -1    0    0    0    0 -0.00000000000E+00 -0.00000000000E+00 -0.91861810007E+03  0.91861810007E+03  0.00000000000E+00 0.  1.
         24    2    1    2    0    0 -0.33652846564E+02 -0.73029703035E+02 -0.86900546013E+03  0.87642061752E+03  0.80478304336E+02 0.  0.
         25    2    1    2    0    0  0.76675442855E+02  0.88701597799E+02  0.12910358917E+03  0.21462016277E+03  0.12508789127E+03 0.  0.
        -24    2    1    2    0    0 -0.43022596292E+02 -0.15671894764E+02  0.69674986801E+03  0.70304341689E+03  0.81933603548E+02 0.  0.
        -11    1    3    3    0    0 -0.29601193079E+02 -0.67645463855E+02 -0.36620200400E+03  0.37357201065E+03  0.00000000000E+00 0.  1.
         12    1    3    3    0    0 -0.40516534850E+01 -0.53842391802E+01 -0.50280345614E+03  0.50284860687E+03  0.00000000000E+00 0. -1.
         11    1    5    5    0    0 -0.33322163130E+02  0.47707525102E+01  0.65227832805E+03  0.65314634186E+03  0.00000000000E+00 0. -1.
        -12    1    5    5    0    0 -0.97004331618E+01 -0.20442647274E+02  0.44471539958E+02  0.49897075037E+02  0.00000000000E+00 0.  1.
          5    1    4    4  501    0 -0.26197978402E+02  0.53275202458E+02  0.65589963584E+02  0.88566906868E+02  0.41800000000E+01 0.  1.
         -5    1    4    4    0  501  0.10287342126E+03  0.35426395341E+02  0.63513625583E+02  0.12605325590E+03  0.41800000000E+01 0.  1.
</event>
<event>
11    1  0.8299058E-009  0.2231466E+03  0.7561462E-02  0.1039264E+00
         22   -1    0    0    0    0  0.00000000000E+00  0.00000000000E+00  0.11432605207E+04  0.11432605207E+04  0.00000000000E+00 0. -1.
         22   -1    0    0    0    0 -0.00000000000E+00 -0.00000000000E+00 -0.21877046604E+04  0.21877046604E+04  0.00000000000E+00 0. -1.
        -24    2    1    2    0    0 -0.10222945356E+03  0.16713259904E+03 -0.20174188387E+04  0.20285340848E+04  0.81164005797E+02 0.  0.
         25    2    1    2    0    0  0.51965906141E+02 -0.89104089351E+02 -0.12038724316E+03  0.20194167678E+03  0.12508940149E+03 0.  0.
         24    2    1    2    0    0  0.50263547418E+02 -0.78028509691E+02  0.10933619421E+04  0.11004894195E+04  0.83795903603E+02 0.  0.
        -11    1    5    5    0    0  0.12449775689E+02  0.17266132761E+02  0.25373788048E+03  0.25462919755E+03  0.00000000000E+00 0.  1.
         12    1    5    5    0    0  0.37813771729E+02 -0.95294642452E+02  0.83962406166E+03  0.84586022198E+03  0.00000000000E+00 0. -1.
         11    1    3    3    0    0 -0.52572915979E+02  0.30607880908E+02 -0.83730924038E+03  0.83951624040E+03  0.00000000000E+00 0. -1.
        -12    1    3    3    0    0 -0.49656537581E+02  0.13652471813E+03 -0.11801095983E+04  0.11890178444E+04  0.00000000000E+00 0.  1.
          5    1    4    4  501    0 -0.32383271668E+02 -0.49359338406E+02 -0.81749206219E+02  0.10092287000E+03  0.41800000000E+01 0.  1.
         -5    1    4    4    0  501  0.84349177809E+02 -0.39744750944E+02 -0.38638036940E+02  0.10101880678E+03  0.41800000000E+01 0.  1.
</event>
<event>
11    1  0.8299058E-009  0.1352607E+03  0.7561462E-02  0.1112969E+00
         22   -1    0    0    0    0  0.00000000000E+00  0.00000000000E+00  0.56356389507E+03  0.56356389507E+03  0.00000000000E+00 0.  1.
         22   -1    0    0    0    0 -0.00000000000E+00 -0.00000000000E+00 -0.36195619988E+03  0.36195619988E+03  0.00000000000E+00 0.  1.
         24    2    1    2    0    0 -0.14747827630E+02 -0.41358179674E+02 -0.27333341750E+03  0.28217341846E+03  0.54613949868E+02 0.  0.
         25    2    1    2    0    0  0.64163138543E+02  0.50408461186E+02 -0.95868096499E+01  0.14965195916E+03  0.12508349473E+03 0.  0.
        -24    2    1    2    0    0 -0.49415310913E+02 -0.90502815113E+01  0.48452792234E+03  0.49369471733E+03  0.80270703522E+02 0.  0.
        -13    1    3    3    0    0 -0.34224850117E+02 -0.18296150546E+02 -0.12871747315E+03  0.13444060913E+03  0.00000000000E+00 0.  1.
         14    1    3    3    0    0  0.19477022487E+02 -0.23062029129E+02 -0.14461594435E+03  0.14773280933E+03  0.00000000000E+00 0. -1.
         11    1    5    5    0    0  0.73524888097E+01  0.89874897934E+01  0.96570692281E+01  0.15102749768E+02  0.00000000000E+00 0. -1.
        -12    1    5    5    0    0 -0.56767799723E+02 -0.18037771305E+02  0.47487085311E+03  0.47859196756E+03  0.00000000000E+00 0.  1.
          5    1    4    4  501    0  0.96103091654E+02  0.48836134253E+02  0.15240400643E+02  0.10895189051E+03  0.41800000000E+01 0. -1.
         -5    1    4    4    0  501 -0.31939953111E+02  0.15723269323E+01 -0.24827210293E+02  0.40700068644E+02  0.41800000000E+01 0. -1.
</event>
<event>
11    1  0.8299058E-009  0.1851160E+03  0.7561462E-02  0.1065578E+00
         22   -1    0    0    0    0  0.00000000000E+00  0.00000000000E+00  0.52379496553E+02  0.52379496553E+02  0.00000000000E+00 0. -1.
         22   -1    0    0    0    0 -0.00000000000E+00 -0.00000000000E+00 -0.24683199672E+04  0.24683199672E+04  0.00000000000E+00 0.  1.
         24    2    1    2    0    0  0.12012702908E+03  0.64973739636E+02 -0.20316283620E+04  0.20377985719E+04  0.80356260232E+02 0.  0.
         25    2    1    2    0    0 -0.95162931368E+02 -0.10689264091E+03 -0.32876782788E+03  0.37976025290E+03  0.12509014690E+03 0.  0.
        -24    2    1    2    0    0 -0.24964097710E+02  0.41918901278E+02 -0.55544280814E+02  0.10314063895E+03  0.71919564886E+02 0.  0.
        -11    1    3    3    0    0  0.56297297268E+02  0.25499236303E+01 -0.12145968306E+04  0.12159035113E+04  0.00000000000E+00 0.  1.
         12    1    3    3    0    0  0.63829731810E+02  0.62423816005E+02 -0.81703153134E+03  0.82189506062E+03  0.00000000000E+00 0. -1.
         11    1    5    5    0    0  0.22650491438E+02  0.27438534303E+02 -0.13724332582E+02  0.38134960756E+02  0.00000000000E+00 0. -1.
        -12    1    5    5    0    0 -0.47614589148E+02  0.14480366976E+02 -0.41819948232E+02  0.65005678195E+02  0.00000000000E+00 0.  1.
          5    1    4    4  501    0  0.10823187517E+02 -0.78970098074E+02 -0.15324362028E+03  0.17278454021E+03  0.41800000000E+01 0. -1.
         -5    1    4    4    0  501 -0.10598611888E+03 -0.27922542840E+02 -0.17552420759E+03  0.20697571270E+03  0.41800000000E+01 0. -1.
</event>
<event>
11    1  0.8299058E-009  0.4279033E+03  0.7561462E-02  0.9570836E-01
         22   -1    0    0    0    0  0.00000000000E+00  0.00000000000E+00  0.40074944437E+03  0.40074944437E+03  0.00000000000E+00 0.  1.
         22   -1    0    0    0    0 -0.00000000000E+00 -0.00000000000E+00 -0.74076892194E+03  0.74076892194E+03  0.00000000000E+00 0.  1.
         24    2    1    2    0    0 -0.10962967534E+03  0.21228715943E+01 -0.23011548241E+03  0.26725537325E+03  0.80306456694E+02 0.  0.
         25    2    1    2    0    0  0.41773287977E+03 -0.21020769641E+03 -0.97589946388E+02  0.49382137850E+03  0.12509085400E+03 0.  0.
        -24    2    1    2    0    0 -0.30810320443E+03  0.20808482481E+03 -0.12314048778E+02  0.38044161456E+03  0.79732724766E+02 0.  0.
        -11    1    3    3    0    0 -0.93209452664E+02 -0.28885854689E+02 -0.14093719732E+03  0.17142254302E+03  0.00000000000E+00 0.  1.
         12    1    3    3    0    0 -0.16420222681E+02  0.31008726283E+02 -0.89178285085E+02  0.95832830227E+02  0.00000000000E+00 0. -1.
         11    1    5    5    0    0 -0.11481769739E+03  0.10760768581E+03  0.25283584015E+02  0.15937935029E+03  0.00000000000E+00 0. -1.
        -12    1    5    5    0    0 -0.19328550704E+03  0.10047713901E+03 -0.37597632793E+02  0.22106226427E+03  0.00000000000E+00 0.  1.
          5    1    4    4  501    0  0.10117318667E+03 -0.11550386601E+03 -0.33454684026E+02  0.15720637725E+03  0.41800000000E+01 0. -1.
         -5    1    4    4    0  501  0.31655969310E+03 -0.94703830400E+02 -0.64135262362E+02  0.33661500125E+03  0.41800000000E+01 0. -1.
</event>
<event>
11    1  0.8299058E-009  0.6581267E+03  0.7561462E-02  0.9096393E-01
         22   -1    0    0    0    0  0.00000000000E+00  0.00000000000E+00  0.30898625434E+03  0.30898625434E+03  0.00000000000E+00 0. -1.
         22   -1    0    0    0    0 -0.00000000000E+00 -0.00000000000E+00 -0.32900687892E+04  0.32900687892E+04  0.00000000000E+00 0. -1.
        -24    2    1    2    0    0 -0.95265961165E+01  0.32494217820E+02 -0.46090789876E+03  0.46821211313E+03  0.75099011410E+02 0.  0.
         25    2    1    2    0    0  0.56317614615E+03 -0.35861508509E+03 -0.23706992993E+04  0.24660977158E+04  0.12510245779E+03 0.  0.
         24    2    1    2    0    0 -0.55364955003E+03  0.32612086727E+03 -0.14947533675E+03  0.66474521464E+03  0.81612987795E+02 0.  0.
        -11    1    5    5    0    0 -0.81140764701E+01  0.41081406090E+01 -0.14383567137E+02  0.17017698429E+02  0.00000000000E+00 0.  1.
         12    1    5    5    0    0 -0.54553547356E+03  0.32201272666E+03 -0.13509176961E+03  0.64772751621E+03  0.00000000000E+00 0. -1.
         13    1    3    3    0    0 -0.32365165914E+02 -0.75167192726E+01 -0.25854135757E+03  0.26066767848E+03  0.00000000000E+00 0. -1.
        -14    1    3    3    0    0  0.22838569797E+02  0.40010937093E+02 -0.20236654119E+03  0.20754443465E+03  0.00000000000E+00 0.  1.
          5    1    4    4  501    0  0.10349109171E+03 -0.10634701200E+03 -0.67687440293E+03  0.69296213661E+03  0.41800000000E+01 0.  1.
         -5    1    4    4    0  501  0.45968505444E+03 -0.25226807309E+03 -0.16938248964E+04  0.17731355791E+04  0.41800000000E+01 0.  1.
</event>
<event>
11    1  0.8299058E-009  0.1430156E+03  0.7561462E-02  0.1104237E+00
         22   -1    0    0    0    0  0.00000000000E+00  0.00000000000E+00  0.11569791412E+04  0.11569791412E+04  0.00000000000E+00 0.  1.
         22   -1    0    0    0    0 -0.00000000000E+00 -0.00000000000E+00 -0.60315844986E+03  0.60315844986E+03  0.00000000000E+00 0. -1.
         24    2    1    2    0    0 -0.44228087214E+02 -0.16702577877E+02 -0.49166635321E+03  0.50074349535E+03  0.82299121825E+02 0.  0.
         25    2    1    2    0    0  0.11236013189E+03  0.12594640258E+02 -0.36171189773E+02  0.17245157374E+03  0.12509103131E+03 0.  0.
        -24    2    1    2    0    0 -0.68132044680E+02  0.41079376188E+01  0.10816582343E+04  0.10869425219E+04  0.82466111424E+02 0.  0.
        -11    1    3    3    0    0 -0.56905153368E+02  0.16383482100E+02 -0.32531848788E+03  0.33066407958E+03  0.00000000000E+00 0.  1.
         12    1    3    3    0    0  0.12677066154E+02 -0.33086059977E+02 -0.16634786533E+03  0.17007941578E+03  0.00000000000E+00 0. -1.
         13    1    5    5    0    0 -0.55844435718E+01 -0.24821789022E+02  0.11267224827E+03  0.11550905917E+03  0.00000000000E+00 0. -1.
        -14    1    5    5    0    0 -0.62547601108E+02  0.28929726641E+02  0.96898598601E+03  0.97143346276E+03  0.00000000000E+00 0.  1.
          5    1    4    4  501    0  0.98074402296E+02 -0.18794574759E+02 -0.71512084143E+02  0.12289538236E+03  0.41800000000E+01 0. -1.
         -5    1    4    4    0  501  0.14285729598E+02  0.31389215017E+02  0.35340894370E+02  0.49556191383E+02  0.41800000000E+01 0. -1.
</event>
<event>
11    1  0.8299058E-009  0.1349892E+03  0.7561462E-02  0.1113286E+00
         22   -1    0    0    0    0  0.00000000000E+00  0.00000000000E+00  0.85830215226E+02  0.85830215226E+02  0.00000000000E+00 0.  1.
         22   -1    0    0    0    0 -0.00000000000E+00 -0.00000000000E+00 -0.15237621606E+04  0.15237621606E+04  0.00000000000E+00 0. -1.
        -24    2    1    2    0    0  0.44208564084E+02 -0.24192955561E+02 -0.13183945036E+04  0.13218080211E+04  0.80452975463E+02 0.  0.
         25    2    1    2    0    0 -0.48414156715E+02  0.28890651632E+02 -0.14942811286E+03  0.20286360069E+03  0.12508508804E+03 0.  0.
         24    2    1    2    0    0  0.42055926302E+01 -0.46976960707E+01  0.29890671103E+02  0.84920754025E+02  0.79235893933E+02 0.  0.
        -11    1    5    5    0    0  0.23783303470E+02  0.29951609146E+02  0.22710555628E+02  0.44480487310E+02  0.00000000000E+00 0.  1.
         12    1    5    5    0    0 -0.19577710840E+02 -0.34649305217E+02  0.71801154750E+01  0.40440266715E+02  0.00000000000E+00 0. -1.
         13    1    3    3    0    0  0.67256151505E+02 -0.22140658723E+02 -0.90450478572E+03  0.90727201328E+03  0.00000000000E+00 0. -1.
        -14    1    3    3    0    0 -0.23047587421E+02 -0.20522968383E+01 -0.41388971789E+03  0.41453600783E+03  0.00000000000E+00 0.  1.
          5    1    4    4  501    0 -0.41880705079E+02  0.47055000952E+02 -0.16567055019E+03  0.17729176566E+03  0.41800000000E+01 0.  1.
         -5    1    4    4    0  501 -0.65334516354E+01 -0.18164349320E+02  0.16242437327E+02  0.25571835030E+02  0.41800000000E+01 0.  1.
</event>
<event>
11    1  0.8299058E-009  0.1292226E+03  0.7561462E-02  0.1120228E+00
         22   -1    0    0    0    0  0.00000000000E+00  0.00000000000E+00  0.50038175178E+03  0.50038175178E+03  0.00000000000E+00 0. -1.
         22   -1    0    0    0    0 -0.00000000000E+00 -0.00000000000E+00 -0.11941055934E+03  0.11941055934E+03  0.00000000000E+00 0.  1.
         24    2    1    2    0    0 -0.49725139617E+01 -0.35348510043E+02 -0.77695518190E+02  0.11084371600E+03  0.70537172981E+02 0.  0.
         25    2    1    2    0    0 -0.15933155937E+02  0.49920863662E+02  0.25395302150E+03  0.28789844010E+03  0.12508963425E+03 0.  0.
        -24    2    1    2    0    0  0.20905669899E+02 -0.14572353619E+02  0.20471368912E+03  0.22105015502E+03  0.79410805272E+02 0.  0.
        -11    1    3    3    0    0  0.76168818131E+01 -0.49079368596E+02 -0.26351248127E+02  0.56224457207E+02  0.00000000000E+00 0.  1.
         12    1    3    3    0    0 -0.12589395775E+02  0.13730858553E+02 -0.51344270063E+02  0.54619258791E+02  0.00000000000E+00 0. -1.
         13    1    5    5    0    0 -0.22055887712E+02 -0.31692006543E+01  0.14449797809E+03  0.14620592220E+03  0.00000000000E+00 0. -1.
        -14    1    5    5    0    0  0.42961557611E+02 -0.11403152965E+02  0.60215711038E+02  0.74844232816E+02  0.00000000000E+00 0.  1.
          5    1    4    4  501    0  0.32116970056E+02  0.55394180598E+02  0.59604056883E+02  0.87579284118E+02  0.41800000000E+01 0. -1.
         -5    1    4    4    0  501 -0.48050125993E+02 -0.54733169357E+01  0.19434896462E+03  0.20031915598E+03  0.41800000000E+01 0. -1.
</event>
<event>
11    1  0.8299058E-009  0.2154523E+03  0.7561462E-02  0.1044104E+00
         22   -1    0    0    0    0  0.00000000000E+00  0.00000000000E+00  0.49970941136E+03  0.49970941136E+03  0.00000000000E+00 0. -1.
         22   -1    0    0    0    0 -0.00000000000E+00 -0.00000000000E+00 -0.61825748769E+03  0.61825748769E+03  0.00000000000E+00 0. -1.
        -24    2    1    2    0    0 -0.79816217515E+02 -0.14235133875E+03 -0.42146459733E+03  0.45912635948E+03  0.80808879153E+02 0.  0.
         25    2    1    2    0    0  0.10287837944E+03  0.23204966255E+03 -0.48085689990E+02  0.28703866617E+03  0.12509178809E+03 0.  0.
         24    2    1    2    0    0 -0.23062161924E+02 -0.89698323806E+02  0.35100221099E+03  0.37180187339E+03  0.80351903101E+02 0.  0.
        -11    1    5    5    0    0  0.23647661929E+02 -0.11612235509E+02  0.13280348151E+03  0.13539136099E+03  0.00000000000E+00 0.  1.
         12    1    5    5    0    0 -0.46709823853E+02 -0.78086088297E+02  0.21819872948E+03  0.23641051240E+03  0.00000000000E+00 0. -1.
         13    1    3    3    0    0 -0.72484858386E+02 -0.13572740307E+03 -0.42205450256E+03  0.44922821123E+03  0.00000000000E+00 0. -1.
        -14    1    3    3    0    0 -0.73313591298E+01 -0.66239356812E+01  0.58990523013E+00  0.98981482500E+01  0.00000000000E+00 0.  1.
          5    1    4    4  501    0  0.12881959796E+03  0.15760414981E+03 -0.41803059238E+02  0.20784254862E+03  0.41800000000E+01 0.  1.
         -5    1    4    4    0  501 -0.25941218518E+02  0.74445512746E+02 -0.62826307523E+01  0.79196117552E+02  0.41800000000E+01 0.  1.
</event>
<event>
11    1  0.8299058E-009  0.1527982E+03  0.7561462E-02  0.1094053E+00
         22   -1    0    0    0    0  0.00000000000E+00  0.00000000000E+00  0.43474106717E+04  0.43474106717E+04  0.00000000000E+00 0.  1.
         22   -1    0    0    0    0 -0.00000000000E+00 -0.00000000000E+00 -0.52217715984E+02  0.52217715984E+02  0.00000000000E+00 0.  1.
         24    2    1    2    0    0  0.80637078503E+02  0.33106573992E+02  0.24767324103E+02  0.12065338006E+03  0.79658233136E+02 0.  0.
         25    2    1    2    0    0 -0.10885808676E+03 -0.77656100962E+01  0.20258807789E+04  0.20326709290E+04  0.12509111648E+03 0.  0.
        -24    2    1    2    0    0  0.28221008259E+02 -0.25340963896E+02  0.22445448527E+04  0.22463040786E+04  0.80385497157E+02 0.  0.
        -13    1    3    3    0    0  0.46223899538E+02  0.25197440307E+02 -0.26077345880E+02  0.58750215784E+02  0.00000000000E+00 0.  1.
         14    1    3    3    0    0  0.34413178964E+02  0.79091336851E+01  0.50844669982E+02  0.61903164279E+02  0.00000000000E+00 0. -1.
         13    1    5    5    0    0  0.60529469149E+01  0.27679209480E+02  0.10442180430E+04  0.10446023636E+04  0.00000000000E+00 0. -1.
        -14    1    5    5    0    0  0.22168061344E+02 -0.53020173376E+02  0.12003268097E+04  0.12017017150E+04  0.00000000000E+00 0.  1.
          5    1    4    4  501    0  0.12142333042E+02 -0.37161877848E+02  0.63740802311E+03  0.63861952816E+03  0.41800000000E+01 0. -1.
         -5    1    4    4    0  501 -0.12100041980E+03  0.29396267752E+02  0.13884727558E+04  0.13940514008E+04  0.41800000000E+01 0. -1.
</event>
<event>
11    1  0.8299058E-009  0.1302781E+03  0.7561462E-02  0.1118928E+00
         22   -1    0    0    0    0  0.00000000000E+00  0.00000000000E+00  0.22747173556E+03  0.22747173556E+03  0.00000000000E+00 0.  1.
         22   -1    0    0    0    0 -0.00000000000E+00 -0.00000000000E+00 -0.35107253751E+03  0.35107253751E+03  0.00000000000E+00 0.  1.
        -24    2    1    2    0    0  0.26559445029E+02 -0.21534907757E+02 -0.26437224426E+03  0.27853892245E+03  0.80759466399E+02 0.  0.
         25    2    1    2    0    0 -0.40621710502E+02  0.42213149139E+02  0.29641370866E+01  0.13816473822E+03  0.12509450609E+03 0.  0.
         24    2    1    2    0    0  0.14062265473E+02 -0.20678241382E+02  0.13780730522E+03  0.16184061241E+03  0.81093732648E+02 0.  0.
        -13    1    5    5    0    0 -0.30692337828E+02 -0.14774393462E+02  0.31707769530E+02  0.46536920312E+02  0.00000000000E+00 0.  1.
         14    1    5    5    0    0  0.44754603301E+02 -0.59038479193E+01  0.10609953569E+03  0.11530369209E+03  0.00000000000E+00 0. -1.
         13    1    3    3    0    0  0.16632823900E+02  0.21191333446E+02 -0.30954429251E+02  0.41035352251E+02  0.00000000000E+00 0. -1.
        -14    1    3    3    0    0  0.99266211291E+01 -0.42726241204E+02 -0.23341781500E+03  0.23750357020E+03  0.00000000000E+00 0.  1.
          5    1    4    4  501    0 -0.40816526234E+02 -0.38001396936E+02 -0.99700334151E+01  0.56806416444E+02  0.41800000000E+01 0.  1.
         -5    1    4    4    0  501  0.19481573190E+00  0.80214546075E+02  0.12934170502E+02  0.81358321773E+02  0.41800000000E+01 0.  1.
</event>
<event>
11    1  0.1699399E-008  0.2419392E+03  0.7561462E-02  0.1028283E+00
         22   -1    0    0    0    0  0.00000000000E+00  0.00000000000E+00  0.10117771208E+04  0.10117771208E+04  0.00000000000E+00 0. -1.
         22   -1    0    0    0    0 -0.00000000000E+00 -0.00000000000E+00 -0.92909379445E+03  0.92909379445E+03  0.00000000000E+00 0. -1.
        -24    2    1    2    0    0  0.32212857921E+02  0.50551413555E+02 -0.44770958261E+03  0.45885609054E+03  0.80696516905E+02 0.  0.
         25    2    1    2    0    0  0.13426266576E+02 -0.25138994390E+03 -0.42040510466E+03  0.50573269928E+03  0.12509173659E+03 0.  0.
         24    2    1    2    0    0 -0.45639124497E+02  0.20083853035E+03  0.95079801357E+03  0.97628212540E+03  0.81797804363E+02 0.  0.
        -11    1    5    5    0    0 -0.40618126207E+01  0.65554765777E+02  0.48588839232E+03  0.49030751109E+03  0.00000000000E+00 0.  1.
         12    1    5    5    0    0 -0.41577311877E+02  0.13528376457E+03  0.46490962125E+03  0.48597461431E+03  0.00000000000E+00 0. -1.
         11    1    3    3    0    0  0.21370188081E+02  0.47360732759E+02 -0.44389758554E+03  0.44692817141E+03  0.00000000000E+00 0. -1.
        -12    1    3    3    0    0  0.10842669840E+02  0.31906807955E+01 -0.38119970606E+01  0.11927919131E+02  0.00000000000E+00 0.  1.
          5    1    4    4  501    0 -0.22226717398E+02 -0.91649066003E+01 -0.97344882467E+02  0.10035696798E+03  0.41800000000E+01 0.  1.
         -5    1    4    4    0  501  0.35652983974E+02 -0.24222503730E+03 -0.32306022219E+03  0.40537573130E+03  0.41800000000E+01 0.  1.
</event>
<event>
11    1  0.8299058E-009  0.1608134E+03  0.7561462E-02  0.1086315E+00
         22   -1    0    0    0    0  0.00000000000E+00  0.00000000000E+00  0.56623591599E+03  0.56623591599E+03  0.00000000000E+00 0.  1.
         22   -1    0    0    0    0 -0.00000000000E+00 -0.00000000000E+00 -0.68169265524E+03  0.68169265524E+03  0.00000000000E+00 0.  1.
         24    2    1    2    0    0 -0.16548946785E+02 -0.38608225844E+01 -0.61773829474E+03  0.62288262163E+03  0.78060143186E+02 0.  0.
         25    2    1    2    0    0  0.61515996505E+02  0.92513412680E+02  0.82915563106E+02  0.18669395311E+03  0.12504675994E+03 0.  0.
        -24    2    1    2    0    0 -0.44967049720E+02 -0.88652590096E+02  0.41936599238E+03  0.43835199648E+03  0.80020747113E+02 0.  0.
        -13    1    3    3    0    0  0.19929592454E+02  0.11706583477E+02 -0.44704565973E+03  0.44764277570E+03  0.00000000000E+00 0.  1.
         14    1    3    3    0    0 -0.36478539239E+02 -0.15567406061E+02 -0.17069263501E+03  0.17523984593E+03  0.00000000000E+00 0. -1.
         11    1    5    5    0    0 -0.19709149146E+02 -0.15939570881E+02  0.21891628695E+02  0.33492743794E+02  0.00000000000E+00 0. -1.
        -12    1    5    5    0    0 -0.25257900574E+02 -0.72713019215E+02  0.39747436368E+03  0.40485925269E+03  0.00000000000E+00 0.  1.
          5    1    4    4  501    0  0.69866818634E+02  0.15486272107E+02  0.82244240769E+02  0.10909988318E+03  0.41800000000E+01 0. -1.
         -5    1    4    4    0  501 -0.83508221286E+01  0.77027140574E+02  0.67132233733E+00  0.77594069934E+02  0.41800000000E+01 0. -1.
</event>
<event>
11    1  0.8299058E-009  0.1339931E+03  0.7561462E-02  0.1114458E+00
         22   -1    0    0    0    0  0.00000000000E+00  0.00000000000E+00  0.99207332782E+03  0.99207332782E+03  0.00000000000E+00 0.  1.
         22   -1    0    0    0    0 -0.00000000000E+00 -0.00000000000E+00 -0.63956652893E+02  0.63956652893E+02  0.00000000000E+00 0.  1.
         24    2    1    2    0    0 -0.25674581047E+02 -0.34934702959E+02 -0.25170455716E+01  0.90659253780E+02  0.79581073094E+02 0.  0.
         25    2    1    2    0    0 -0.13462935022E+02  0.61740144703E+02  0.34562248312E+03  0.37295528419E+03  0.12509055554E+03 0.  0.
        -24    2    1    2    0    0  0.39137516069E+02 -0.26805441744E+02  0.58501123738E+03  0.59241544274E+03  0.80421589531E+02 0.  0.
        -13    1    3    3    0    0 -0.35286609730E+02 -0.41969994616E+02 -0.28703325030E+02  0.61891082896E+02  0.00000000000E+00 0.  1.
         14    1    3    3    0    0  0.96120286828E+01  0.70352916564E+01  0.26186279459E+02  0.28768170884E+02  0.00000000000E+00 0. -1.
         13    1    5    5    0    0 -0.84544723301E+01  0.22670096034E+02  0.12645231061E+03  0.12874625515E+03  0.00000000000E+00 0. -1.
        -14    1    5    5    0    0  0.47591988399E+02 -0.49475537778E+02  0.45855892676E+03  0.46366918758E+03  0.00000000000E+00 0.  1.
          5    1    4    4  501    0 -0.16296514395E+02 -0.29014321370E+02  0.18829130153E+03  0.19125504924E+03  0.41800000000E+01 0.  1.
         -5    1    4    4    0  501  0.28335793729E+01  0.90754466073E+02  0.15733118158E+03  0.18170023496E+03  0.41800000000E+01 0.  1.
</event>
<event>
11    1  0.8299058E-009  0.1812068E+03  0.7561462E-02  0.1068671E+00
         22   -1    0    0    0    0  0.00000000000E+00  0.00000000000E+00  0.23689226071E+04  0.23689226071E+04  0.00000000000E+00 0. -1.
         22   -1    0    0    0    0 -0.00000000000E+00 -0.00000000000E+00 -0.10454486749E+03  0.10454486749E+03  0.00000000000E+00 0. -1.
         24    2    1    2    0    0 -0.25166613741E+02 -0.19071024272E+02 -0.29681354620E+02  0.89179587739E+02  0.77941988962E+02 0.  0.
         25    2    1    2    0    0  0.11999316259E+03 -0.70973906189E+02  0.16531238386E+03  0.24982136412E+03  0.12508747054E+03 0.  0.
        -24    2    1    2    0    0 -0.94826548847E+02  0.90044930461E+02  0.21287467104E+04  0.21344665228E+04  0.85349961040E+02 0.  0.
        -11    1    3    3    0    0  0.22119989283E+02  0.96469099119E+01  0.39238180208E+01  0.24448990666E+02  0.00000000000E+00 0.  1.
         12    1    3    3    0    0 -0.47286603024E+02 -0.28717934184E+02 -0.33605172640E+02  0.64730597074E+02  0.00000000000E+00 0. -1.
         13    1    5    5    0    0 -0.98903375020E+02  0.46853680567E+02  0.13062833151E+04  0.13108597348E+04  0.00000000000E+00 0. -1.
        -14    1    5    5    0    0  0.40768261724E+01  0.43191249894E+02  0.82246339533E+03  0.82360678800E+03  0.00000000000E+00 0.  1.
          5    1    4    4  501    0 -0.13547485389E+02 -0.33289138548E+02  0.30952566880E+01  0.36314654337E+02  0.41800000000E+01 0.  1.
         -5    1    4    4    0  501  0.13354064798E+03 -0.37684767641E+02  0.16221712717E+03  0.21350670978E+03  0.41800000000E+01 0.  1.
</event>
<event>
11    1  0.8299058E-009  0.1624577E+03  0.7561462E-02  0.1084788E+00
         22   -1    0    0    0    0  0.00000000000E+00  0.00000000000E+00  0.18464692730E+03  0.18464692730E+03  0.00000000000E+00 0. -1.
         22   -1    0    0    0    0 -0.00000000000E+00 -0.00000000000E+00 -0.15045955752E+04  0.15045955752E+04  0.00000000000E+00 0. -1.
        -24    2    1    2    0    0 -0.15731723421E+02 -0.26670512477E+02 -0.96738052522E+03  0.97121829271E+03  0.80505205735E+02 0.  0.
         25    2    1    2    0    0 -0.87965667747E+02  0.13289923949E+02 -0.49818422753E+03  0.52129652483E+03  0.12509181211E+03 0.  0.
         24    2    1    2    0    0  0.10369739117E+03  0.13380588528E+02  0.14561610485E+03  0.19672768496E+03  0.81028038069E+02 0.  0.
        -11    1    5    5    0    0  0.29749246195E+02 -0.28864188885E+02  0.22902209577E+02  0.47356839555E+02  0.00000000000E+00 0.  1.
         12    1    5    5    0    0  0.73948144973E+02  0.42244777413E+02  0.12271389528E+03  0.14937084541E+03  0.00000000000E+00 0. -1.
         13    1    3    3    0    0 -0.30922499942E+02 -0.45363964882E+02 -0.82414009754E+03  0.82596670071E+03  0.00000000000E+00 0. -1.
        -14    1    3    3    0    0  0.15190776521E+02  0.18693452405E+02 -0.14324042768E+03  0.14525159199E+03  0.00000000000E+00 0.  1.
          5    1    4    4  501    0 -0.19735137637E+02  0.64416623979E+02 -0.24378077838E+03  0.25295358746E+03  0.41800000000E+01 0. -1.
         -5    1    4    4    0  501 -0.68230530110E+02 -0.51126700030E+02 -0.25440344915E+03  0.26834293736E+03  0.41800000000E+01 0. -1.
</event>
<event>
11    1  0.8299058E-009  0.1513443E+03  0.7561462E-02  0.1095513E+00
         22   -1    0    0    0    0  0.00000000000E+00  0.00000000000E+00  0.57828523554E+03  0.57828523554E+03  0.00000000000E+00 0. -1.
         22   -1    0    0    0    0 -0.00000000000E+00 -0.00000000000E+00 -0.55089928137E+03  0.55089928137E+03  0.00000000000E+00 0. -1.
        -24    2    1    2    0    0  0.30574623010E+02  0.77249251821E+02 -0.41739979560E+03  0.43425326309E+03  0.86319480152E+02 0.  0.
         25    2    1    2    0    0 -0.10109529659E+03 -0.64878559053E+02 -0.56385911547E+02  0.18236510308E+03  0.12509265918E+03 0.  0.
         24    2    1    2    0    0  0.70520673584E+02 -0.12370692767E+02  0.50117166132E+03  0.51256615075E+03  0.80155008234E+02 0.  0.
        -11    1    5    5    0    0 -0.15195252932E+02 -0.15325123899E+02  0.11112127105E+03  0.11319757954E+03  0.00000000000E+00 0.  1.
         12    1    5    5    0    0  0.85715926516E+02  0.29544311319E+01  0.39005039027E+03  0.39936857121E+03  0.00000000000E+00 0. -1.
         13    1    3    3    0    0  0.28033182747E+02  0.89851555816E+02 -0.40692943706E+03  0.41767299190E+03  0.00000000000E+00 0. -1.
        -14    1    3    3    0    0  0.25414402637E+01 -0.12602303995E+02 -0.10470358543E+02  0.16580271186E+02  0.00000000000E+00 0.  1.
          5    1    4    4  501    0 -0.11298299656E+03 -0.45529432213E+02 -0.48651565495E+00  0.12188435423E+03  0.41800000000E+01 0.  1.
         -5    1    4    4    0  501  0.11887699963E+02 -0.19349126841E+02 -0.55899395892E+02  0.60480748846E+02  0.41800000000E+01 0.  1.
</event>
<event>
11    1  0.8299058E-009  0.1658161E+03  0.7561462E-02  0.1081731E+00
         22   -1    0    0    0    0  0.00000000000E+00  0.00000000000E+00  0.44389132560E+03  0.44389132560E+03  0.00000000000E+00 0.  1.
         22   -1    0    0    0    0 -0.00000000000E+00 -0.00000000000E+00 -0.62129904116E+03  0.62129904116E+03  0.00000000000E+00 0.  1.
        -24    2    1    2    0    0  0.58161319585E+02 -0.92525197860E+02 -0.52794164321E+03  0.54498261496E+03  0.79624246541E+02 0.  0.
         25    2    1    2    0    0 -0.97780139361E+02  0.60284330742E+02  0.13945442328E+02  0.17040294754E+03  0.12509009945E+03 0.  0.
         24    2    1    2    0    0  0.39618819776E+02  0.32240867119E+02  0.33658848532E+03  0.34980480426E+03  0.80389478428E+02 0.  0.
        -11    1    5    5    0    0  0.74972901586E+01  0.36194619623E+02  0.29400061556E+03  0.29631507184E+03  0.00000000000E+00 0.  1.
         12    1    5    5    0    0  0.32121529618E+02 -0.39537525045E+01  0.42587869752E+02  0.53489732415E+02  0.00000000000E+00 0. -1.
         11    1    3    3    0    0  0.35708970609E+02 -0.20916493405E+02 -0.73185626892E+02  0.84075955313E+02  0.00000000000E+00 0. -1.
        -12    1    3    3    0    0  0.22452348976E+02 -0.71608704456E+02 -0.45475601631E+03  0.46090665964E+03  0.00000000000E+00 0.  1.
          5    1    4    4  501    0 -0.35445555084E+02 -0.18009566736E+02  0.49936971895E+02  0.63968003183E+02  0.41800000000E+01 0. -1.
         -5    1    4    4    0  501 -0.62334584277E+02  0.78293897477E+02 -0.35991529567E+02  0.10643494435E+03  0.41800000000E+01 0. -1.
</event>
<event>
11    1  0.8299058E-009  0.1662862E+03  0.7561462E-02  0.1081309E+00
         22   -1    0    0    0    0  0.00000000000E+00  0.00000000000E+00  0.15020073887E+03  0.15020073887E+03  0.00000000000E+00 0. -1.
         22   -1    0    0    0    0 -0.00000000000E+00 -0.00000000000E+00 -0.10429539886E+04  0.10429539886E+04  0.00000000000E+00 0.  1.
         24    2    1    2    0    0 -0.28035036685E+02 -0.37821434019E+02 -0.71865962781E+03  0.72472130534E+03  0.80826268102E+02 0.  0.
         25    2    1    2    0    0  0.11325069490E+02  0.14191428010E+03 -0.24979178757E+03  0.31354714918E+03  0.12509179639E+03 0.  0.
        -24    2    1    2    0    0  0.16709967195E+02 -0.10409284608E+03  0.75698165648E+02  0.15488627296E+03  0.84528111664E+02 0.  0.
        -11    1    3    3    0    0  0.10356816014E+02 -0.19540501773E+02 -0.56077172136E+03  0.56120764279E+03  0.00000000000E+00 0.  1.
         12    1    3    3    0    0 -0.38391852698E+02 -0.18280932246E+02 -0.15788790644E+03  0.16351366254E+03  0.00000000000E+00 0. -1.
         11    1    5    5    0    0 -0.16419508172E+02 -0.80052170111E+02  0.79203871403E+02  0.11380335423E+03  0.00000000000E+00 0. -1.
        -12    1    5    5    0    0  0.33129475367E+02 -0.24040675969E+02 -0.35057057542E+01  0.41082918737E+02  0.00000000000E+00 0.  1.
          5    1    4    4  501    0  0.47814945166E+02  0.35241970473E+02 -0.15550763443E+03  0.16651835404E+03  0.41800000000E+01 0. -1.
         -5    1    4    4    0  501 -0.36489875676E+02  0.10667230963E+03 -0.94284153135E+02  0.14702879514E+03  0.41800000000E+01 0. -1.
</event>
<event>
11    1  0.8299058E-009  0.1391244E+03  0.7561462E-02  0.1108540E+00
         22   -1    0    0    0    0  0.00000000000E+00  0.00000000000E+00  0.18364179157E+03  0.18364179157E+03  0.00000000000E+00 0.  1.
         22   -1    0    0    0    0 -0.00000000000E+00 -0.00000000000E+00 -0.15435298663E+04  0.15435298663E+04  0.00000000000E+00 0.  1.
        -24    2    1    2    0    0 -0.63164581202E+02 -0.20087202178E+02 -0.12386975069E+04  0.12430632181E+04  0.80258273005E+02 0.  0.
         25    2    1    2    0    0  0.24314226628E+02  0.10224779459E+02 -0.27740760088E+03  0.30544794587E+03  0.12509093843E+03 0.  0.
         24    2    1    2    0    0  0.38850354574E+02  0.98624227191E+01  0.15621703309E+03  0.17866049394E+03  0.76871277045E+02 0.  0.
        -13    1    5    5    0    0  0.56483454936E+02 -0.10878838413E+02  0.87146824809E+02  0.10441886267E+03  0.00000000000E+00 0.  1.
         14    1    5    5    0    0 -0.17633100362E+02  0.20741261132E+02  0.69070208278E+02  0.74241631267E+02  0.00000000000E+00 0. -1.
         11    1    3    3    0    0  0.17390773583E+02  0.13241657478E+00 -0.11583328098E+03  0.11713157355E+03  0.00000000000E+00 0. -1.
        -12    1    3    3    0    0 -0.80555354785E+02 -0.20219618753E+02 -0.11228642260E+04  0.11259316445E+04  0.00000000000E+00 0.  1.
          5    1    4    4  501    0 -0.26919517089E+02 -0.41218475371E+02 -0.70158925350E+02  0.85810082849E+02  0.41800000000E+01 0. -1.
         -5    1    4    4    0  501  0.51233743718E+02  0.51443254830E+02 -0.20724867553E+03  0.21963786302E+03  0.41800000000E+01 0. -1.
</event>
<event>
11    1  0.8299058E-009  0.1581876E+03  0.7561462E-02  0.1088794E+00
         22   -1    0    0    0    0  0.00000000000E+00  0.00000000000E+00  0.17721570468E+04  0.17721570468E+04  0.00000000000E+00 0. -1.
         22   -1    0    0    0    0 -0.00000000000E+00 -0.00000000000E+00 -0.18977911700E+03  0.18977911700E+03  0.00000000000E+00 0. -1.
         24    2    1    2    0    0  0.50486355687E+02 -0.73921301608E+02 -0.85471344388E+02  0.14732646578E+03  0.79915617160E+02 0.  0.
         25    2    1    2    0    0 -0.65162482671E+00  0.14586269275E+03  0.58545934160E+02  0.20087616583E+03  0.12508899968E+03 0.  0.
        -24    2    1    2    0    0 -0.49834730860E+02 -0.71941391140E+02  0.16093033400E+04  0.16137335322E+04  0.81360976778E+02 0.  0.
        -11    1    3    3    0    0 -0.48026461813E+01  0.15458411669E+01 -0.45188623512E+02  0.45469404330E+02  0.00000000000E+00 0.  1.
         12    1    3    3    0    0  0.55289001868E+02 -0.75467142775E+02 -0.40282720876E+02  0.10185706145E+03  0.00000000000E+00 0. -1.
         13    1    5    5    0    0 -0.64734998650E+02 -0.61896127421E+02  0.15202038131E+04  0.15228399075E+04  0.00000000000E+00 0. -1.
        -14    1    5    5    0    0  0.14900267790E+02 -0.10045263719E+02  0.89099526901E+02  0.90893624625E+02  0.00000000000E+00 0.  1.
          5    1    4    4  501    0 -0.41279105906E+02  0.14352523427E+03  0.34183869293E+02  0.15326273773E+03  0.41800000000E+01 0. -1.
         -5    1    4    4    0  501  0.40627481080E+02  0.23374584798E+01  0.24362064867E+02  0.47613428102E+02  0.41800000000E+01 0. -1.
</event>
<event>
11    1  0.8299058E-009  0.6124435E+03  0.7561462E-02  0.9172318E-01
         22   -1    0    0    0    0  0.00000000000E+00  0.00000000000E+00  0.13612057500E+04  0.13612057500E+04  0.00000000000E+00 0.  1.
         22   -1    0    0    0    0 -0.00000000000E+00 -0.00000000000E+00 -0.57901946922E+03  0.57901946922E+03  0.00000000000E+00 0. -1.
         24    2    1    2    0    0 -0.82460109863E+02 -0.73634312088E+01 -0.29489188913E+02  0.11967617827E+03  0.81233524756E+02 0.  0.
         25    2    1    2    0    0 -0.24528071170E+03 -0.50456026113E+03 -0.22429285801E+03  0.61700816832E+03  0.12509240175E+03 0.  0.
        -24    2    1    2    0    0  0.32774082156E+03  0.51192369234E+03  0.10359683277E+04  0.12035408726E+04  0.76159984192E+02 0.  0.
        -13    1    3    3    0    0 -0.49004563594E+02 -0.43840835503E+02 -0.10130461627E+02  0.66528883678E+02  0.00000000000E+00 0.  1.
         14    1    3    3    0    0 -0.33455546269E+02  0.36477404294E+02 -0.19358727285E+02  0.53147294590E+02  0.00000000000E+00 0. -1.
         11    1    5    5    0    0  0.10592420168E+03  0.20323334615E+03  0.45149050976E+03  0.50632737423E+03  0.00000000000E+00 0. -1.
        -12    1    5    5    0    0  0.22181661988E+03  0.30869034619E+03  0.58447781789E+03  0.69721349836E+03  0.00000000000E+00 0.  1.
          5    1    4    4  501    0 -0.21472654782E+02 -0.72436267128E+01 -0.30502167690E+02  0.38228257417E+02  0.41800000000E+01 0. -1.
         -5    1    4    4    0  501 -0.22380805691E+03 -0.49731663442E+03 -0.19379069032E+03  0.57877991090E+03  0.41800000000E+01 0. -1.
</event>
<event>
11    1  0.8299058E-009  0.1357214E+03  0.7561462E-02  0.1112432E+00
         22   -1    0    0    0    0  0.00000000000E+00  0.00000000000E+00  0.13933244576E+04  0.13933244576E+04  0.00000000000E+00 0.  1.
         22   -1    0    0    0    0 -0.00000000000E+00 -0.00000000000E+00 -0.44702473786E+02  0.44702473786E+02  0.00000000000E+00 0. -1.
         24    2    1    2    0    0 -0.32919298320E+00 -0.53240073442E+02  0.34708864871E+02  0.10369769123E+03  0.81938343147E+02 0.  0.
         25    2    1    2    0    0  0.10685346927E+02  0.47845947006E+02  0.54013353860E+03  0.55659250984E+03  0.12509025227E+03 0.  0.
        -24    2    1    2    0    0 -0.10356153944E+02  0.53941264363E+01  0.77377958040E+03  0.77773673036E+03  0.77480553634E+02 0.  0.
        -11    1    3    3    0    0  0.73093023665E+01  0.69047391231E+01  0.41490662718E+02  0.42691643400E+02  0.00000000000E+00 0.  1.
         12    1    3    3    0    0 -0.76384953497E+01 -0.60144812565E+02 -0.67817978471E+01  0.61006047829E+02  0.00000000000E+00 0. -1.
         13    1    5    5    0    0  0.11370147693E+02 -0.24472462341E+02  0.12371270712E+03  0.12662154467E+03  0.00000000000E+00 0. -1.
        -14    1    5    5    0    0 -0.21726301637E+02  0.29866588777E+02  0.65006687327E+03  0.65111518569E+03  0.00000000000E+00 0.  1.
          5    1    4    4  501    0 -0.50157821812E+02  0.20191151396E+02  0.12739985316E+03  0.13846185276E+03  0.41800000000E+01 0. -1.
         -5    1    4    4    0  501  0.60843168738E+02  0.27654795610E+02  0.41273368543E+03  0.41813065709E+03  0.41800000000E+01 0. -1.
</event>
<event>
11    1  0.8299058E-009  0.1315512E+03  0.7561462E-02  0.1117378E+00
         22   -1    0    0    0    0  0.00000000000E+00  0.00000000000E+00  0.13973512878E+04  0.13973512878E+04  0.00000000000E+00 0.  1.
         22   -1    0    0    0    0 -0.00000000000E+00 -0.00000000000E+00 -0.13736334527E+03  0.13736334527E+03  0.00000000000E+00 0.  1.
         24    2    1    2    0    0 -0.27175604380E+02 -0.47956581098E+01 -0.10169780472E+03  0.13246839179E+03  0.80274027739E+02 0.  0.
         25    2    1    2    0    0  0.49028073774E+02  0.37154311545E+02  0.24411097584E+03  0.28110084045E+03  0.12507325489E+03 0.  0.
        -24    2    1    2    0    0 -0.21852469394E+02 -0.32358653435E+02  0.11175747715E+04  0.11211454009E+04  0.80430263227E+02 0.  0.
        -11    1    3    3    0    0 -0.40761620755E+02  0.14316081778E+02 -0.10002964351E+03  0.10896049516E+03  0.00000000000E+00 0.  1.
         12    1    3    3    0    0  0.13586016375E+02 -0.19111739888E+02 -0.16681612101E+01  0.23507896637E+02  0.00000000000E+00 0. -1.
         13    1    5    5    0    0 -0.48666460291E+02 -0.17197834937E+02  0.46740340925E+03  0.47024476272E+03  0.00000000000E+00 0. -1.
        -14    1    5    5    0    0  0.26813990897E+02 -0.15160818499E+02  0.65017136220E+03  0.65090063816E+03  0.00000000000E+00 0.  1.
          5    1    4    4  501    0  0.47709398280E+02  0.70693544845E+02  0.93017216597E+02  0.12626733129E+03  0.41800000000E+01 0. -1.
         -5    1    4    4    0  501  0.13186754944E+01 -0.33539233300E+02  0.15109375925E+03  0.15483350916E+03  0.41800000000E+01 0. -1.
</event>
<event>
11    1  0.8299058E-009  0.2464576E+03  0.7561462E-02  0.1025803E+00
         22   -1    0    0    0    0  0.00000000000E+00  0.00000000000E+00  0.24182482666E+03  0.24182482666E+03  0.00000000000E+00 0. -1.
         22   -1    0    0    0    0 -0.00000000000E+00 -0.00000000000E+00 -0.13056647108E+04  0.13056647108E+04  0.00000000000E+00 0. -1.
        -24    2    1    2    0    0 -0.12234360188E+02 -0.91058555557E+02 -0.95152408212E+03  0.95922293168E+03  0.79178366448E+02 0.  0.
         25    2    1    2    0    0  0.34248704965E+00 -0.14013284330E+03 -0.24519697494E+03  0.30887847782E+03  0.12508807487E+03 0.  0.
         24    2    1    2    0    0  0.11891873139E+02  0.23119139886E+03  0.13288117296E+03  0.27938812791E+03  0.82519333122E+02 0.  0.
        -13    1    5    5    0    0 -0.23365209023E+02  0.17647329274E+02  0.17662566983E+02  0.34195430918E+02  0.00000000000E+00 0.  1.
         14    1    5    5    0    0  0.35257082161E+02  0.21354406958E+03  0.11521860597E+03  0.24519269699E+03  0.00000000000E+00 0. -1.
         11    1    3    3    0    0 -0.39872237456E+02 -0.61392793070E+02 -0.75620271522E+03  0.75973772900E+03  0.00000000000E+00 0. -1.
        -12    1    3    3    0    0  0.27637877268E+02 -0.29665762487E+02 -0.19532136690E+03  0.19948520269E+03  0.00000000000E+00 0.  1.
          5    1    4    4  501    0  0.24637112082E+02  0.13734892099E+02 -0.62857400351E+02  0.69022892808E+02  0.41800000000E+01 0.  1.
         -5    1    4    4    0  501 -0.24294625032E+02 -0.15386773540E+03 -0.18233957459E+03  0.23985558502E+03  0.41800000000E+01 0.  1.
</event>
<event>
11    1  0.8299058E-009  0.1521845E+03  0.7561462E-02  0.1094667E+00
         22   -1    0    0    0    0  0.00000000000E+00  0.00000000000E+00  0.62616671377E+03  0.62616671377E+03  0.00000000000E+00 0. -1.
         22   -1    0    0    0    0 -0.00000000000E+00 -0.00000000000E+00 -0.32294901366E+04  0.32294901366E+04  0.00000000000E+00 0. -1.
         24    2    1    2    0    0 -0.15365538575E+02  0.37093410805E+01 -0.15694037113E+04  0.15715202340E+04  0.79987360734E+02 0.  0.
         25    2    1    2    0    0  0.51815267276E+01 -0.89779097561E+02 -0.16499643752E+04  0.16571411826E+04  0.12508926776E+03 0.  0.
        -24    2    1    2    0    0  0.10184011847E+02  0.86069756481E+02  0.61604466370E+03  0.62699543379E+03  0.78105884794E+02 0.  0.
        -13    1    3    3    0    0  0.28302663143E+02 -0.79514310781E+01 -0.95674146173E+03  0.95719302681E+03  0.00000000000E+00 0.  1.
         14    1    3    3    0    0 -0.43668201718E+02  0.11660772159E+02 -0.61266224956E+03  0.61432720718E+03  0.00000000000E+00 0. -1.
         11    1    5    5    0    0 -0.13926198964E+02  0.85163683451E+02  0.37769887843E+03  0.38743158720E+03  0.00000000000E+00 0. -1.
        -12    1    5    5    0    0  0.24110210811E+02  0.90607302936E+00  0.23834578527E+03  0.23956384658E+03  0.00000000000E+00 0.  1.
          5    1    4    4  501    0  0.27787295282E+02 -0.11512040961E+03 -0.11809539392E+04  0.11868843757E+04  0.41800000000E+01 0.  1.
         -5    1    4    4    0  501 -0.22605768554E+02  0.25341312047E+02 -0.46901043604E+03  0.47025680685E+03  0.41800000000E+01 0.  1.
</event>
<event>
11    1  0.8299058E-009  0.1651684E+03  0.7561462E-02  0.1082314E+00
         22   -1    0    0    0    0  0.00000000000E+00  0.00000000000E+00  0.18082438502E+04  0.18082438502E+04  0.00000000000E+00 0. -1.
         22   -1    0    0    0    0 -0.00000000000E+00 -0.00000000000E+00 -0.24726251737E+03  0.24726251737E+03  0.00000000000E+00 0.  1.
         24    2    1    2    0    0  0.40263844363E+02 -0.22752918189E+02 -0.19308096713E+03  0.21396620579E+03  0.79764684572E+02 0.  0.
         25    2    1    2    0    0 -0.11527941312E+03 -0.53626527703E+02  0.15322375509E+03  0.23513900317E+03  0.12509070359E+03 0.  0.
        -24    2    1    2    0    0  0.75015568760E+02  0.76379445892E+02  0.16008385448E+04  0.16064011586E+04  0.79871649046E+02 0.  0.
        -13    1    3    3    0    0 -0.59066123953E+01 -0.61435355549E+00 -0.14031352466E+03  0.14043913523E+03  0.00000000000E+00 0.  1.
         14    1    3    3    0    0  0.46170456758E+02 -0.22138564633E+02 -0.52767442462E+02  0.73527070561E+02  0.00000000000E+00 0. -1.
         11    1    5    5    0    0  0.73275277509E+02  0.83688121963E+02  0.11212940892E+04  0.11267978535E+04  0.00000000000E+00 0. -1.
        -12    1    5    5    0    0  0.17402912508E+01 -0.73086760711E+01  0.47954445558E+03  0.47960330507E+03  0.00000000000E+00 0.  1.
          5    1    4    4  501    0 -0.17705654149E+02  0.37340651849E+02  0.57330082181E+02  0.70795658004E+02  0.41800000000E+01 0. -1.
         -5    1    4    4    0  501 -0.97573758973E+02 -0.90967179552E+02  0.95893672912E+02  0.16434334517E+03  0.41800000000E+01 0. -1.
</event>
<event>
11    1  0.8299058E-009  0.9943437E+03  0.7561462E-02  0.8684413E-01
         22   -1    0    0    0    0  0.00000000000E+00  0.00000000000E+00  0.77726340575E+03  0.77726340575E+03  0.00000000000E+00 0.  1.
         22   -1    0    0    0    0 -0.00000000000E+00 -0.00000000000E+00 -0.27888734715E+04  0.27888734715E+04  0.00000000000E+00 0.  1.
         24    2    1    2    0    0 -0.42488620978E+03 -0.25723881640E+03 -0.10439037104E+04  0.11585239910E+04  0.75781140046E+02 0.  0.
         25    2    1    2    0    0 -0.29569254732E+03  0.96873764917E+03 -0.94613179972E+03  0.13916536920E+04  0.12509156894E+03 0.  0.
        -24    2    1    2    0    0  0.72057875710E+03 -0.71149883277E+03 -0.21574555693E+02  0.10159591943E+04  0.79014484780E+02 0.  0.
        -13    1    3    3    0    0 -0.16019754921E+03 -0.62510333302E+02 -0.40731838148E+03  0.44213013971E+03  0.00000000000E+00 0.  1.
         14    1    3    3    0    0 -0.26468866057E+03 -0.19472848310E+03 -0.63658532889E+03  0.71639385126E+03  0.00000000000E+00 0. -1.
         13    1    5    5    0    0  0.33928975433E+02 -0.60593298579E+02  0.29623926232E+01  0.69508984863E+02  0.00000000000E+00 0. -1.
        -14    1    5    5    0    0  0.68664978167E+03 -0.65090553419E+03 -0.24536948317E+02  0.94645020944E+03  0.00000000000E+00 0.  1.
          5    1    4    4  501    0 -0.29273353964E+03  0.87852628633E+03 -0.89494138790E+03  0.12878039141E+04  0.41800000000E+01 0.  1.
         -5    1    4    4    0  501 -0.29590076819E+01  0.90211362841E+02 -0.51190411823E+02  0.10384977792E+03  0.41800000000E+01 0.  1.
</event>
<event>
11    1  0.8299058E-009  0.1350850E+03  0.7561462E-02  0.1113174E+00
         22   -1    0    0    0    0  0.00000000000E+00  0.00000000000E+00  0.11361024387E+03  0.11361024387E+03  0.00000000000E+00 0. -1.
         22   -1    0    0    0    0 -0.00000000000E+00 -0.00000000000E+00 -0.68772578653E+03  0.68772578653E+03  0.00000000000E+00 0.  1.
         24    2    1    2    0    0  0.48226064985E+02 -0.33854508217E+02 -0.42636925736E+03  0.43766853342E+03  0.79316583705E+02 0.  0.
         25    2    1    2    0    0  0.44241423761E+01  0.11306852259E+02 -0.21040576244E+03  0.24508416265E+03  0.12509294133E+03 0.  0.
        -24    2    1    2    0    0 -0.52650207361E+02  0.22547655957E+02  0.62659477138E+02  0.11858333434E+03  0.82797077146E+02 0.  0.
        -13    1    3    3    0    0  0.63526440046E+02 -0.99205549696E+01 -0.21527856718E+03  0.22467507090E+03  0.00000000000E+00 0.  1.
         14    1    3    3    0    0 -0.15300375061E+02 -0.23933953247E+02 -0.21109069018E+03  0.21299346252E+03  0.00000000000E+00 0. -1.
         13    1    5    5    0    0 -0.52154248760E+02 -0.46583229256E-02  0.76151151722E+02  0.92298773524E+02  0.00000000000E+00 0. -1.
        -14    1    5    5    0    0 -0.49595860135E+00  0.22552314280E+02 -0.13491674583E+02  0.26284560818E+02  0.00000000000E+00 0.  1.
          5    1    4    4  501    0  0.31584254294E+02  0.20737689287E+02 -0.21257773296E+03  0.21594995213E+03  0.41800000000E+01 0.  1.
         -5    1    4    4    0  501 -0.27160111918E+02 -0.94308370277E+01  0.21719705204E+01  0.29134210516E+02  0.41800000000E+01 0.  1.
</event>
<event>
11    1  0.1092834E-008  0.1469833E+03  0.7561462E-02  0.1100002E+00
         22   -1    0    0    0    0  0.00000000000E+00  0.00000000000E+00  0.10660032215E+04  0.10660032215E+04  0.00000000000E+00 0.  1.
         22   -1    0    0    0    0 -0.00000000000E+00 -0.00000000000E+00 -0.67953085804E+03  0.67953085804E+03  0.00000000000E+00 0.  1.
        -24    2    1    2    0    0  0.24945412171E+02  0.31243921854E+02 -0.36266991899E+03  0.37366271592E+03  0.80597139447E+02 0.  0.
         25    2    1    2    0    0 -0.48915362010E+02 -0.10421646939E+03 -0.28487280127E+03  0.33174418163E+03  0.12509158248E+03 0.  0.
         24    2    1    2    0    0  0.23969949839E+02  0.72972547538E+02  0.10340150837E+04  0.10401271820E+04  0.82327457129E+02 0.  0.
        -11    1    5    5    0    0  0.28774032116E+02  0.49764805822E+02  0.97260948354E+03  0.97430677319E+03  0.00000000000E+00 0.  1.
         12    1    5    5    0    0 -0.48040822771E+01  0.23207741716E+02  0.61405600131E+02  0.65820408761E+02  0.00000000000E+00 0. -1.
         11    1    3    3    0    0  0.52622812341E+02  0.23970269867E+02 -0.18890744986E+03  0.19755950705E+03  0.00000000000E+00 0. -1.
        -12    1    3    3    0    0 -0.27677400170E+02  0.72736519872E+01 -0.17376246913E+03  0.17610320886E+03  0.00000000000E+00 0.  1.
          5    1    4    4  501    0 -0.70650278727E+02 -0.54657022394E+02 -0.25404431181E+03  0.26932292280E+03  0.41800000000E+01 0. -1.
         -5    1    4    4    0  501  0.21734916718E+02 -0.49559446998E+02 -0.30828489459E+02  0.62421258829E+02  0.41800000000E+01 0. -1.
</event>
<event>
11    1  0.8299058E-009  0.3118655E+03  0.7561462E-02  0.9952909E-01
         22   -1    0    0    0    0  0.00000000000E+00  0.00000000000E+00  0.47397952715E+03  0.47397952715E+03  0.00000000000E+00 0.  1.
         22   -1    0    0    0    0 -0.00000000000E+00 -0.00000000000E+00 -0.13454233388E+04  0.13454233388E+04  0.00000000000E+00 0.  1.
         24    2    1    2    0    0  0.19067203176E+03 -0.14816521651E+03 -0.41154374487E+03  0.48386448037E+03  0.80298358315E+02 0.  0.
         25    2    1    2    0    0 -0.28753384621E+03  0.16203052727E+03 -0.85297310266E+03  0.92311397283E+03  0.12508672388E+03 0.  0.
        -24    2    1    2    0    0  0.96861814450E+02 -0.13865310765E+02  0.39307303589E+03  0.41242441272E+03  0.77543708467E+02 0.  0.
        -11    1    3    3    0    0  0.13758605720E+03 -0.65316768374E+02 -0.28927974200E+03  0.32692349640E+03  0.00000000000E+00 0.  1.
         12    1    3    3    0    0  0.53085974563E+02 -0.82848448131E+02 -0.12226400286E+03  0.15694098397E+03  0.00000000000E+00 0. -1.
         11    1    5    5    0    0  0.41151509402E+02  0.18922464693E+02  0.26627084339E+03  0.27009566534E+03  0.00000000000E+00 0. -1.
        -12    1    5    5    0    0  0.55710305048E+02 -0.32787775458E+02  0.12680219251E+03  0.14232874739E+03  0.00000000000E+00 0.  1.
          5    1    4    4  501    0 -0.44091846244E+02  0.12057755737E+02 -0.26896226633E+03  0.27285097304E+03  0.41800000000E+01 0.  1.
         -5    1    4    4    0  501 -0.24344199997E+03  0.14997277153E+03 -0.58401083633E+03  0.65026299979E+03  0.41800000000E+01 0.  1.
</event>
<event>
11    1  0.8299058E-009  0.1308555E+03  0.7561462E-02  0.1118222E+00
         22   -1    0    0    0    0  0.00000000000E+00  0.00000000000E+00  0.10478749004E+04  0.10478749004E+04  0.00000000000E+00 0. -1.
         22   -1    0    0    0    0 -0.00000000000E+00 -0.00000000000E+00 -0.22888127186E+03  0.22888127186E+03  0.00000000000E+00 0. -1.
        -24    2    1    2    0    0 -0.28670688267E+02 -0.29878168365E+02 -0.17824567363E+03  0.19997592033E+03  0.80648219037E+02 0.  0.
         25    2    1    2    0    0  0.24545633770E+02 -0.12948829489E+02  0.71599709535E+02  0.14677530005E+03  0.12508521086E+03 0.  0.
         24    2    1    2    0    0  0.41250544976E+01  0.42826997854E+02  0.92563959261E+03  0.93000495185E+03  0.79053065966E+02 0.  0.
        -11    1    5    5    0    0  0.20226504191E+02 -0.17627107675E+02  0.33000672206E+03  0.33109554966E+03  0.00000000000E+00 0.  1.
         12    1    5    5    0    0 -0.16101449694E+02  0.60454105529E+02  0.59563287055E+03  0.59890940219E+03  0.00000000000E+00 0. -1.
         13    1    3    3    0    0 -0.36182743370E+02  0.66356245939E+01 -0.31067089671E+02  0.48149626085E+02  0.00000000000E+00 0. -1.
        -14    1    3    3    0    0  0.75120551028E+01 -0.36513792959E+02 -0.14717858396E+03  0.15182629425E+03  0.00000000000E+00 0.  1.
          5    1    4    4  501    0  0.11599261913E+02  0.40135246530E+02  0.80943290600E+02  0.91184810052E+02  0.41800000000E+01 0. -1.
         -5    1    4    4    0  501  0.12946371857E+02 -0.53084076019E+02 -0.93435810654E+01  0.55590489997E+02  0.41800000000E+01 0. -1.
</event>
<event>
11    1  0.8299058E-009  0.3051593E+03  0.7561462E-02  0.9980310E-01
         22   -1    0    0    0    0  0.00000000000E+00  0.00000000000E+00  0.59664822852E+03  0.59664822852E+03  0.00000000000E+00 0. -1.
         22   -1    0    0    0    0 -0.00000000000E+00 -0.00000000000E+00 -0.38623364261E+04  0.38623364261E+04  0.00000000000E+00 0. -1.
        -24    2    1    2    0    0  0.27035046683E+03 -0.75906587322E+02 -0.35009595330E+04  0.35131179389E+04  0.80179897563E+02 0.  0.
         25    2    1    2    0    0 -0.27004596756E+03 -0.36041432593E+02 -0.28117157574E+03  0.41101060172E+03  0.12509376590E+03 0.  0.
         24    2    1    2    0    0 -0.30449927261E+00  0.11194801991E+03  0.51644291116E+03  0.53485611399E+03  0.82615557267E+02 0.  0.
        -13    1    5    5    0    0  0.11314608178E+02  0.58082009980E+02  0.41689965197E+03  0.42107821133E+03  0.00000000000E+00 0.  1.
         14    1    5    5    0    0 -0.11619107451E+02  0.53866009935E+02  0.99543259191E+02  0.11377790266E+03  0.00000000000E+00 0. -1.
         13    1    3    3    0    0  0.12803846039E+03 -0.48748081006E+01 -0.18849488466E+04  0.18892987496E+04  0.00000000000E+00 0. -1.
        -14    1    3    3    0    0  0.14231200644E+03 -0.71031779221E+02 -0.16160106865E+04  0.16238191893E+04  0.00000000000E+00 0.  1.
          5    1    4    4  501    0 -0.65910187504E+02 -0.23081845666E+02 -0.90253388282E+01  0.70539730345E+02  0.41800000000E+01 0.  1.
         -5    1    4    4    0  501 -0.20413578005E+03 -0.12959586927E+02 -0.27214623691E+03  0.34047087138E+03  0.41800000000E+01 0.  1.
</event>
<event>
11    1  0.8299058E-009  0.1394187E+03  0.7561462E-02  0.1108209E+00
         22   -1    0    0    0    0  0.00000000000E+00  0.00000000000E+00  0.79842434852E+02  0.79842434852E+02  0.00000000000E+00 0. -1.
         22   -1    0    0    0    0 -0.00000000000E+00 -0.00000000000E+00 -0.52946125919E+03  0.52946125919E+03  0.00000000000E+00 0. -1.
        -24    2    1    2    0    0 -0.20357146052E+02 -0.60845521437E+02 -0.24309898074E+03  0.26386603647E+03  0.80072341634E+02 0.  0.
         25    2    1    2    0    0  0.67514402951E+02  0.27979475573E+02 -0.19827887130E+03  0.24556759998E+03  0.12509152529E+03 0.  0.
         24    2    1    2    0    0 -0.47157256899E+02  0.32866045864E+02 -0.82409723095E+01  0.99870057590E+02  0.81253497953E+02 0.  0.
        -11    1    5    5    0    0  0.14128321127E+02  0.20063489740E+01 -0.25405725250E+02  0.29139076333E+02  0.00000000000E+00 0.  1.
         12    1    5    5    0    0 -0.61285578026E+02  0.30859696890E+02  0.17164752940E+02  0.70730981257E+02  0.00000000000E+00 0. -1.
         11    1    3    3    0    0 -0.40485568252E+02 -0.67432112442E+02 -0.21304206501E+03  0.22709709925E+03  0.00000000000E+00 0. -1.
        -12    1    3    3    0    0  0.20128422200E+02  0.65865910057E+01 -0.30056915727E+02  0.36768937221E+02  0.00000000000E+00 0.  1.
          5    1    4    4  501    0  0.19862102597E+02  0.75028229374E+02 -0.10303960775E+03  0.12906731378E+03  0.41800000000E+01 0. -1.
         -5    1    4    4    0  501  0.47652300354E+02 -0.47048753802E+02 -0.95239263549E+02  0.11650028620E+03  0.41800000000E+01 0. -1.
</event>
<event>
11    1  0.8299058E-009  0.1417714E+03  0.7561462E-02  0.1105596E+00
         22   -1    0    0    0    0  0.00000000000E+00  0.00000000000E+00  0.77829322314E+03  0.77829322314E+03  0.00000000000E+00 0. -1.
         22   -1    0    0    0    0 -0.00000000000E+00 -0.00000000000E+00 -0.81485827814E+03  0.81485827814E+03  0.00000000000E+00 0. -1.
        -24    2    1    2    0    0  0.56750081686E+02 -0.12973173162E+02 -0.73640338526E+03  0.74337426255E+03  0.83225437266E+02 0.  0.
         25    2    1    2    0    0 -0.33799619528E+02 -0.51377482979E+02 -0.26199534635E+01  0.13941396781E+03  0.12508928902E+03 0.  0.
         24    2    1    2    0    0 -0.22950462158E+02  0.64350656141E+02  0.70245828373E+03  0.71036327091E+03  0.80626333320E+02 0.  0.
        -11    1    5    5    0    0  0.14826012239E+02 -0.10762609538E+02  0.70715913106E+02  0.73050563102E+02  0.00000000000E+00 0.  1.
         12    1    5    5    0    0 -0.37776474398E+02  0.75113265679E+02  0.63174237062E+03  0.63731270781E+03  0.00000000000E+00 0. -1.
         13    1    3    3    0    0  0.38169453696E+02  0.43136389399E+01 -0.68471482398E+03  0.68579144414E+03  0.00000000000E+00 0. -1.
        -14    1    3    3    0    0  0.18580627990E+02 -0.17286812102E+02 -0.51688561283E+02  0.57582818415E+02  0.00000000000E+00 0.  1.
          5    1    4    4  501    0 -0.79702347598E+02 -0.18285826537E+02 -0.87327647211E+01  0.82344211967E+02  0.41800000000E+01 0.  1.
         -5    1    4    4    0  501  0.45902728071E+02 -0.33091656442E+02  0.61128112576E+01  0.57069755842E+02  0.41800000000E+01 0.  1.
</event>
<event>
11    1  0.8299058E-009  0.1411168E+03  0.7561462E-02  0.1106318E+00
         22   -1    0    0    0    0  0.00000000000E+00  0.00000000000E+00  0.79314718019E+03  0.79314718019E+03  0.00000000000E+00 0.  1.
         22   -1    0    0    0    0 -0.00000000000E+00 -0.00000000000E+00 -0.63708655091E+03  0.63708655091E+03  0.00000000000E+00 0. -1.
        -24    2    1    2    0    0 -0.48756021834E+01  0.70402888718E+02 -0.53175939303E+03  0.54167535807E+03  0.75258243616E+02 0.  0.
         25    2    1    2    0    0  0.20492174796E+02 -0.18954760920E+02 -0.54747099015E+02  0.13936342300E+03  0.12508279910E+03 0.  0.
         24    2    1    2    0    0 -0.15616572612E+02 -0.51448127798E+02  0.74256712133E+03  0.74919495003E+03  0.83644224439E+02 0.  0.
        -11    1    5    5    0    0 -0.28347196411E+02  0.57789802661E+01  0.44308819215E+03  0.44403164998E+03  0.00000000000E+00 0.  1.
         12    1    5    5    0    0  0.12730623799E+02 -0.57227108064E+02  0.29947892917E+03  0.30516330005E+03  0.00000000000E+00 0. -1.
         13    1    3    3    0    0 -0.32832348145E+02  0.62640840209E+02 -0.30642636047E+03  0.31448203818E+03  0.00000000000E+00 0. -1.
        -14    1    3    3    0    0  0.27956745961E+02  0.77620485093E+01 -0.22533303256E+03  0.22719331989E+03  0.00000000000E+00 0.  1.
          5    1    4    4  501    0  0.10428795264E+02 -0.51281490509E+02  0.20802280355E+02  0.56469091612E+02  0.41800000000E+01 0. -1.
         -5    1    4    4    0  501  0.10063379531E+02  0.32326729589E+02 -0.75549379370E+02  0.82894331391E+02  0.41800000000E+01 0. -1.
</event>
<event>
11    1  0.8299058E-009  0.1424506E+03  0.7561462E-02  0.1104852E+00
         22   -1    0    0    0    0  0.00000000000E+00  0.00000000000E+00  0.59002456337E+03  0.59002456337E+03  0.00000000000E+00 0.  1.
         22   -1    0    0    0    0 -0.00000000000E+00 -0.00000000000E+00 -0.23080553557E+03  0.23080553557E+03  0.00000000000E+00 0. -1.
         24    2    1    2    0    0  0.15913162651E+02 -0.69148726221E+02 -0.17433450388E+03  0.20380943245E+03  0.78172824094E+02 0.  0.
         25    2    1    2    0    0  0.32664543422E+02  0.72349646846E+01  0.85830115807E+02  0.15535031630E+03  0.12509034688E+03 0.  0.
        -24    2    1    2    0    0 -0.48577706073E+02  0.61913761536E+02  0.44772341587E+03  0.46167035019E+03  0.80561453104E+02 0.  0.
        -13    1    3    3    0    0  0.18881042263E+02 -0.23389624960E+02 -0.77688595004E+01  0.31047117268E+02  0.00000000000E+00 0.  1.
         14    1    3    3    0    0 -0.29678796122E+01 -0.45759101260E+02 -0.16656564438E+03  0.17276231518E+03  0.00000000000E+00 0. -1.
         13    1    5    5    0    0 -0.70475182699E+02  0.45148083042E+02  0.30324306316E+03  0.31458139826E+03  0.00000000000E+00 0. -1.
        -14    1    5    5    0    0  0.21897476626E+02  0.16765678495E+02  0.14448035272E+03  0.14708895193E+03  0.00000000000E+00 0.  1.
          5    1    4    4  501    0  0.36695229989E+01 -0.13479242788E+02 -0.30395874410E+02  0.33712563924E+02  0.41800000000E+01 0.  1.
         -5    1    4    4    0  501  0.28995020423E+02  0.20714207473E+02  0.11622599022E+03  0.12163775237E+03  0.41800000000E+01 0.  1.
</event>
<event>
11    1  0.8299058E-009  0.1364276E+03  0.7561462E-02  0.1111614E+00
         22   -1    0    0    0    0  0.00000000000E+00  0.00000000000E+00  0.45280809049E+03  0.45280809049E+03  0.00000000000E+00 0.  1.
         22   -1    0    0    0    0 -0.00000000000E+00 -0.00000000000E+00 -0.23975399394E+03  0.23975399394E+03  0.00000000000E+00 0. -1.
         24    2    1    2    0    0 -0.54477562293E+02 -0.45083070163E+01 -0.92072521105E+02  0.13423463119E+03  0.80953427618E+02 0.  0.
         25    2    1    2    0    0  0.54364865803E+02 -0.11936738423E+02 -0.83931771015E+02  0.16059219767E+03  0.12508911787E+03 0.  0.
        -24    2    1    2    0    0  0.11269648975E+00  0.16445045439E+02  0.38905838867E+03  0.39773525557E+03  0.80971918021E+02 0.  0.
        -11    1    3    3    0    0 -0.46898224907E+01  0.32518379628E+02 -0.17499271470E+02  0.37224507393E+02  0.00000000000E+00 0.  1.
         12    1    3    3    0    0 -0.49787739802E+02 -0.37026686645E+02 -0.74573249635E+02  0.97010123800E+02  0.00000000000E+00 0. -1.
         11    1    5    5    0    0 -0.24584741637E+01 -0.40022653657E+01 -0.27116335077E+01  0.54235762695E+01  0.00000000000E+00 0. -1.
        -12    1    5    5    0    0  0.25711706535E+01  0.20447310805E+02  0.39177002218E+03  0.39231167930E+03  0.00000000000E+00 0.  1.
          5    1    4    4  501    0  0.15987339028E+02  0.50484600034E+02 -0.66580568402E+02  0.85174728286E+02  0.41800000000E+01 0. -1.
         -5    1    4    4    0  501  0.38377526775E+02 -0.62421338457E+02 -0.17351202614E+02  0.75417469384E+02  0.41800000000E+01 0. -1.
</event>
<event>
11    1  0.8299058E-009  0.1902498E+03  0.7561462E-02  0.1061641E+00
         22   -1    0    0    0    0  0.00000000000E+00  0.00000000000E+00  0.67694590384E+03  0.67694590384E+03  0.00000000000E+00 0. -1.
         22   -1    0    0    0    0 -0.00000000000E+00 -0.00000000000E+00 -0.37467913029E+03  0.37467913029E+03  0.00000000000E+00 0. -1.
        -24    2    1    2    0    0  0.56376756446E+02  0.10163894861E+03 -0.28708008473E+03  0.31988111461E+03  0.80000861856E+02 0.  0.
         25    2    1    2    0    0 -0.13036775225E+03 -0.19380461003E+03  0.26002437593E+03  0.37123644277E+03  0.12509133728E+03 0.  0.
         24    2    1    2    0    0  0.73990995805E+02  0.92165661421E+02  0.32932248234E+03  0.36050747675E+03  0.86851406496E+02 0.  0.
        -13    1    5    5    0    0  0.37082698754E+02 -0.95841301157E+01  0.79480170577E+02  0.88227431176E+02  0.00000000000E+00 0.  1.
         14    1    5    5    0    0  0.36908297051E+02  0.10174979154E+03  0.24984231177E+03  0.27228004557E+03  0.00000000000E+00 0. -1.
         13    1    3    3    0    0  0.16890991390E+02  0.98765844418E+02 -0.22425534377E+03  0.24562259021E+03  0.00000000000E+00 0. -1.
        -14    1    3    3    0    0  0.39485765056E+02  0.28731041912E+01 -0.62824740956E+02  0.74258524399E+02  0.00000000000E+00 0.  1.
          5    1    4    4  501    0 -0.57177222992E+02 -0.26455866773E+02  0.13735883910E+03  0.15117562897E+03  0.41800000000E+01 0.  1.
         -5    1    4    4    0  501 -0.73190529259E+02 -0.16734874326E+03  0.12266553683E+03  0.22006081380E+03  0.41800000000E+01 0.  1.
</event>
<event>
11    1  0.8299058E-009  0.2403050E+03  0.7561462E-02  0.1029194E+00
         22   -1    0    0    0    0  0.00000000000E+00  0.00000000000E+00  0.38128169200E+03  0.38128169200E+03  0.00000000000E+00 0.  1.
         22   -1    0    0    0    0 -0.00000000000E+00 -0.00000000000E+00 -0.64802933099E+03  0.64802933099E+03  0.00000000000E+00 0.  1.
        -24    2    1    2    0    0 -0.97090025900E+01  0.87297164537E+02 -0.15781339710E+03  0.19784120106E+03  0.80752788592E+02 0.  0.
         25    2    1    2    0    0 -0.44941997825E+02 -0.27828575787E+03 -0.37757381165E+03  0.48751699422E+03  0.12509232672E+03 0.  0.
         24    2    1    2    0    0  0.54651000415E+02  0.19098859334E+03  0.26863956975E+03  0.34395282771E+03  0.81688154739E+02 0.  0.
        -11    1    5    5    0    0  0.23102495261E+02  0.17679651981E+03  0.20642502851E+03  0.27276734976E+03  0.00000000000E+00 0.  1.
         12    1    5    5    0    0  0.31548505154E+02  0.14192073528E+02  0.62214541245E+02  0.71185477949E+02  0.00000000000E+00 0. -1.
         13    1    3    3    0    0 -0.38188174235E+02  0.26218148887E+02 -0.95107439811E+02  0.10578824646E+03  0.00000000000E+00 0. -1.
        -14    1    3    3    0    0  0.28479171645E+02  0.61079015650E+02 -0.62705957286E+02  0.92052954594E+02  0.00000000000E+00 0.  1.
          5    1    4    4  501    0  0.15082769517E+02 -0.12079878200E+03 -0.80708354337E+02  0.14612031525E+03  0.41800000000E+01 0.  1.
         -5    1    4    4    0  501 -0.60024767342E+02 -0.15748697587E+03 -0.29686545732E+03  0.34139667897E+03  0.41800000000E+01 0.  1.
</event>
<event>
11    1  0.8299058E-009  0.1338282E+03  0.7561462E-02  0.1114653E+00
         22   -1    0    0    0    0  0.00000000000E+00  0.00000000000E+00  0.43843595752E+03  0.43843595752E+03  0.00000000000E+00 0.  1.
         22   -1    0    0    0    0 -0.00000000000E+00 -0.00000000000E+00 -0.90254795196E+03  0.90254795196E+03  0.00000000000E+00 0. -1.
        -24    2    1    2    0    0  0.31035901999E+02  0.35100139555E+02 -0.63558679389E+03  0.64238217231E+03  0.80554551237E+02 0.  0.
         25    2    1    2    0    0 -0.71571597158E+02 -0.58238714762E+02 -0.23485165087E+03  0.28163185837E+03  0.12508782641E+03 0.  0.
         24    2    1    2    0    0  0.40535695158E+02  0.23138575207E+02  0.40632645032E+03  0.41696987881E+03  0.81142833104E+02 0.  0.
        -13    1    5    5    0    0  0.58327790439E+02  0.36894905756E+02  0.26375057961E+03  0.27263113075E+03  0.00000000000E+00 0.  1.
         14    1    5    5    0    0 -0.17792095281E+02 -0.13756330548E+02  0.14257587071E+03  0.14433874806E+03  0.00000000000E+00 0. -1.
         11    1    3    3    0    0  0.56084516907E+02  0.37655851235E+02 -0.48990406626E+03  0.49453961449E+03  0.00000000000E+00 0. -1.
        -12    1    3    3    0    0 -0.25048614908E+02 -0.25557116799E+01 -0.14568272763E+03  0.14784255782E+03  0.00000000000E+00 0.  1.
          5    1    4    4  501    0  0.40590231910E+01 -0.74661774478E+02 -0.14321479607E+03  0.16161313824E+03  0.41800000000E+01 0. -1.
         -5    1    4    4    0  501 -0.75630620348E+02  0.16423059716E+02 -0.91636854796E+02  0.12001872013E+03  0.41800000000E+01 0. -1.
</event>
<event>
11    1  0.8299058E-009  0.1488860E+03  0.7561462E-02  0.1098023E+00
         22   -1    0    0    0    0  0.00000000000E+00  0.00000000000E+00  0.23548995126E+03  0.23548995126E+03  0.00000000000E+00 0. -1.
         22   -1    0    0    0    0 -0.00000000000E+00 -0.00000000000E+00 -0.28949759765E+04  0.28949759765E+04  0.00000000000E+00 0. -1.
         24    2    1    2    0    0 -0.53543213106E+02  0.59476455247E+02 -0.27125091124E+04  0.27148556927E+04  0.79570238313E+02 0.  0.
         25    2    1    2    0    0  0.52306932143E+02 -0.94246460735E+02 -0.13165942157E+03  0.21118612115E+03  0.12508782500E+03 0.  0.
        -24    2    1    2    0    0  0.12362809632E+01  0.34770005488E+02  0.18468250878E+03  0.20442411389E+03  0.80443194987E+02 0.  0.
        -11    1    3    3    0    0 -0.69306592132E+02  0.23233611884E+02 -0.16756767094E+04  0.16772702940E+04  0.00000000000E+00 0.  1.
         12    1    3    3    0    0  0.15763379025E+02  0.36242843363E+02 -0.10368324030E+04  0.10375853987E+04  0.00000000000E+00 0. -1.
         13    1    5    5    0    0  0.27887679524E+02  0.38764397339E+02  0.59095176186E+02  0.75977898225E+02  0.00000000000E+00 0. -1.
        -14    1    5    5    0    0 -0.26651398561E+02 -0.39943918514E+01  0.12558733259E+03  0.12844621567E+03  0.00000000000E+00 0.  1.
          5    1    4    4  501    0  0.33366590439E+02 -0.10894174059E+03 -0.47384383634E+02  0.12346815141E+03  0.41800000000E+01 0.  1.
         -5    1    4    4    0  501  0.18940341704E+02  0.14695279859E+02 -0.84275037940E+02  0.87717969732E+02  0.41800000000E+01 0.  1.
</event>
<event>
11    1  0.8299058E-009  0.3812551E+03  0.7561462E-02  0.9706744E-01
         22   -1    0    0    0    0  0.00000000000E+00  0.00000000000E+00  0.15051594760E+04  0.15051594760E+04  0.00000000000E+00 0.  1.
         22   -1    0    0    0    0 -0.00000000000E+00 -0.00000000000E+00 -0.15960762247E+03  0.15960762247E+03  0.00000000000E+00 0.  1.
        -24    2    1    2    0    0 -0.12189672400E+02 -0.35583904460E+03  0.18678306790E+03  0.41035268260E+03  0.82045084462E+02 0.  0.
         25    2    1    2    0    0 -0.12714392207E+02  0.37423769261E+03  0.95360839596E+03  0.10321006721E+04  0.12508924117E+03 0.  0.
         24    2    1    2    0    0  0.24904064607E+02 -0.18398648006E+02  0.20516038971E+03  0.22231374376E+03  0.79836661251E+02 0.  0.
        -13    1    5    5    0    0  0.19414015026E+02 -0.49943762566E+02  0.13110899634E+03  0.14163633827E+03  0.00000000000E+00 0.  1.
         14    1    5    5    0    0  0.54900495808E+01  0.31545114560E+02  0.74051393370E+02  0.80677405493E+02  0.00000000000E+00 0. -1.
         13    1    3    3    0    0  0.12016950414E+02 -0.35702290901E+02 -0.23327354404E+01  0.37742579767E+02  0.00000000000E+00 0. -1.
        -14    1    3    3    0    0 -0.24206622815E+02 -0.32013675370E+03  0.18911580334E+03  0.37261010283E+03  0.00000000000E+00 0.  1.
          5    1    4    4  501    0  0.15302645254E+02  0.36448726927E+03  0.88248059667E+03  0.95492126184E+03  0.41800000000E+01 0.  1.
         -5    1    4    4    0  501 -0.28017037461E+02  0.97504233400E+01  0.71127799284E+02  0.77179410300E+02  0.41800000000E+01 0.  1.
</event>
<event>
11    1  0.8299058E-009  0.1650961E+03  0.7561462E-02  0.1082380E+00
         22   -1    0    0    0    0  0.00000000000E+00  0.00000000000E+00  0.74941956261E+03  0.74941956261E+03  0.00000000000E+00 0.  1.
         22   -1    0    0    0    0 -0.00000000000E+00 -0.00000000000E+00 -0.83019574501E+03  0.83019574501E+03  0.00000000000E+00 0.  1.
        -24    2    1    2    0    0 -0.43741373532E+02  0.15398646942E+02 -0.79559131541E+03  0.80124035825E+03  0.82886334589E+02 0.  0.
         25    2    1    2    0    0  0.13497830415E+03 -0.22926345710E+02  0.40190711963E+03  0.44262992191E+03  0.12508858878E+03 0.  0.
         24    2    1    2    0    0 -0.91236930621E+02  0.75276987676E+01  0.31290801337E+03  0.33574502745E+03  0.80202586401E+02 0.  0.
        -13    1    5    5    0    0 -0.10016865993E+03  0.82272532107E+01  0.31065249107E+03  0.32650638330E+03  0.00000000000E+00 0.  1.
         14    1    5    5    0    0  0.89317293091E+01 -0.69955444310E+00  0.22555223050E+01  0.92386441505E+01  0.00000000000E+00 0. -1.
         13    1    3    3    0    0  0.12562230179E+02 -0.91552902262E+01 -0.36555467101E+02  0.39723181408E+02  0.00000000000E+00 0. -1.
        -14    1    3    3    0    0 -0.56303603712E+02  0.24553937168E+02 -0.75903584830E+03  0.76151717685E+03  0.00000000000E+00 0.  1.
          5    1    4    4  501    0  0.56184100315E+02 -0.42418154509E+02  0.64495579686E+02  0.95567280798E+02  0.41800000000E+01 0.  1.
         -5    1    4    4    0  501  0.78794203838E+02  0.19491808799E+02  0.33741153995E+03  0.34706264112E+03  0.41800000000E+01 0.  1.
</event>
<event>
11    1  0.8299058E-009  0.2065142E+03  0.7561462E-02  0.1050010E+00
         22   -1    0    0    0    0  0.00000000000E+00  0.00000000000E+00  0.13191157351E+04  0.13191157351E+04  0.00000000000E+00 0. -1.
         22   -1    0    0    0    0 -0.00000000000E+00 -0.00000000000E+00 -0.15021411951E+03  0.15021411951E+03  0.00000000000E+00 0.  1.
        -24    2    1    2    0    0 -0.48356355918E+02 -0.75251730777E+02 -0.76918686896E+02  0.14261455704E+03  0.80132810652E+02 0.  0.
         25    2    1    2    0    0 -0.86723090157E+02 -0.49918763932E+02  0.17477120118E+03  0.23707060441E+03  0.12507886054E+03 0.  0.
         24    2    1    2    0    0  0.13507944607E+03  0.12517049471E+03  0.10710491013E+04  0.10896446931E+04  0.79153461395E+02 0.  0.
        -11    1    5    5    0    0 -0.10142482197E+02  0.34557333199E+01  0.46218360847E+02  0.47444166314E+02  0.00000000000E+00 0.  1.
         12    1    5    5    0    0  0.14522192827E+03  0.12171476139E+03  0.10248307404E+04  0.10422005268E+04  0.00000000000E+00 0. -1.
         11    1    3    3    0    0 -0.50136871427E+02 -0.18887190153E+02 -0.89850074524E+01  0.54324600204E+02  0.00000000000E+00 0. -1.
        -12    1    3    3    0    0  0.17805155089E+01 -0.56364540624E+02 -0.67933679443E+02  0.88289956835E+02  0.00000000000E+00 0.  1.
          5    1    4    4  501    0  0.17007590803E+02 -0.12489480527E+02  0.10347466490E+03  0.10568691473E+03  0.41800000000E+01 0.  1.
         -5    1    4    4    0  501 -0.10373068096E+03 -0.37429283405E+02  0.71296536281E+02  0.13138368968E+03  0.41800000000E+01 0.  1.
</event>
<event>
11    1  0.8299058E-009  0.4026089E+03  0.7561462E-02  0.9642091E-01
         22   -1    0    0    0    0  0.00000000000E+00  0.00000000000E+00  0.68983538187E+03  0.68983538187E+03  0.00000000000E+00 0. -1.
         22   -1    0    0    0    0 -0.00000000000E+00 -0.00000000000E+00 -0.18261010647E+04  0.18261010647E+04  0.00000000000E+00 0. -1.
         24    2    1    2    0    0 -0.11413632537E+03 -0.22773098452E+03 -0.15206359237E+04  0.15439707677E+04  0.81385606806E+02 0.  0.
         25    2    1    2    0    0  0.36562030312E+03 -0.95817522635E+02 -0.92062017636E+01  0.39823482800E+03  0.12508805051E+03 0.  0.
        -24    2    1    2    0    0 -0.25148397775E+03  0.32354850715E+03  0.39357644262E+03  0.57373085089E+03  0.79604306050E+02 0.  0.
        -13    1    3    3    0    0 -0.22977489857E+02 -0.13247205975E+03 -0.83820603114E+03  0.84892058657E+03  0.00000000000E+00 0.  1.
         14    1    3    3    0    0 -0.91158835513E+02 -0.95258924770E+02 -0.68242989256E+03  0.69505018113E+03  0.00000000000E+00 0. -1.
         11    1    5    5    0    0 -0.19229496637E+03  0.18794660621E+03  0.23894400617E+03  0.35971588644E+03  0.00000000000E+00 0. -1.
        -12    1    5    5    0    0 -0.59189011382E+02  0.13560190094E+03  0.15463243645E+03  0.21401496445E+03  0.00000000000E+00 0.  1.
          5    1    4    4  501    0  0.10078561116E+03 -0.82776791470E+02 -0.23817078174E+02  0.13264411874E+03  0.41800000000E+01 0.  1.
         -5    1    4    4    0  501  0.26483469196E+03 -0.13040731164E+02  0.14610876410E+02  0.26559070926E+03  0.41800000000E+01 0.  1.
</event>
<event>
11    1  0.9816625E-009  0.2105179E+03  0.7561462E-02  0.1047325E+00
         22   -1    0    0    0    0  0.00000000000E+00  0.00000000000E+00  0.14905988966E+04  0.14905988966E+04  0.00000000000E+00 0. -1.
         22   -1    0    0    0    0 -0.00000000000E+00 -0.00000000000E+00 -0.32191184317E+03  0.32191184317E+03  0.00000000000E+00 0.  1.
         24    2    1    2    0    0  0.11899104517E+02  0.81545567677E+00 -0.18630898553E+03  0.20324600974E+03  0.80347051782E+02 0.  0.
         25    2    1    2    0    0 -0.75010727811E+02 -0.15765948625E+03 -0.25457434078E+02  0.21628432678E+03  0.12509079172E+03 0.  0.
        -24    2    1    2    0    0  0.63111623294E+02  0.15684403057E+03  0.13804534730E+04  0.13929804032E+04  0.78482390938E+02 0.  0.
        -11    1    3    3    0    0  0.25502711146E+02 -0.14744891589E+02 -0.17887014452E+03  0.18127969745E+03  0.00000000000E+00 0.  1.
         12    1    3    3    0    0 -0.13603606629E+02  0.15560347266E+02 -0.74388410071E+01  0.21966312296E+02  0.00000000000E+00 0. -1.
         13    1    5    5    0    0  0.25438769779E+02  0.11256094379E+03  0.11295166194E+04  0.11353963584E+04  0.00000000000E+00 0. -1.
        -14    1    5    5    0    0  0.37672853515E+02  0.44283086782E+02  0.25093685362E+03  0.25758404487E+03  0.00000000000E+00 0.  1.
          5    1    4    4  501    0 -0.10395668496E+03 -0.12748589543E+03 -0.44032344624E+02  0.17034073398E+03  0.41800000000E+01 0.  1.
         -5    1    4    4    0  501  0.28945957144E+02 -0.30173590817E+02  0.18574910546E+02  0.45943592802E+02  0.41800000000E+01 0.  1.
</event>
<event>
11    1  0.8299058E-009  0.1596157E+03  0.7561462E-02  0.1087439E+00
         22   -1    0    0    0    0  0.00000000000E+00  0.00000000000E+00  0.22305120806E+04  0.22305120806E+04  0.00000000000E+00 0.  1.
         22   -1    0    0    0    0 -0.00000000000E+00 -0.00000000000E+00 -0.20780154899E+03  0.20780154899E+03  0.00000000000E+00 0. -1.
         24    2    1    2    0    0 -0.57345030642E+02 -0.76407432671E+02 -0.15028005193E+03  0.19269133047E+03  0.73615939331E+02 0.  0.
         25    2    1    2    0    0  0.43573464604E+02  0.15242156968E+03  0.25917365386E+03  0.32855750372E+03  0.12509224067E+03 0.  0.
        -24    2    1    2    0    0  0.13771566038E+02 -0.76014137012E+02  0.19138169297E+04  0.19170647954E+04  0.80463558934E+02 0.  0.
        -11    1    3    3    0    0  0.13870600273E+02 -0.23482633058E+02 -0.15625913715E+02  0.31432416177E+02  0.00000000000E+00 0.  1.
         12    1    3    3    0    0 -0.71215630915E+02 -0.52924799613E+02 -0.13465413822E+03  0.16125891430E+03  0.00000000000E+00 0. -1.
         13    1    5    5    0    0 -0.20758335804E+02 -0.13699558269E+02  0.17172260330E+03  0.17351437660E+03  0.00000000000E+00 0. -1.
        -14    1    5    5    0    0  0.34529901842E+02 -0.62314578743E+02  0.17420943264E+04  0.17435504188E+04  0.00000000000E+00 0.  1.
          5    1    4    4  501    0  0.39666532236E+02 -0.24992601888E+00  0.10127016534E+03  0.10884215650E+03  0.41800000000E+01 0. -1.
         -5    1    4    4    0  501  0.39069323676E+01  0.15267149570E+03  0.15790348852E+03  0.21971534722E+03  0.41800000000E+01 0. -1.
</event>
<event>
11    1  0.8299058E-009  0.1275373E+03  0.7561462E-02  0.1122332E+00
         22   -1    0    0    0    0  0.00000000000E+00  0.00000000000E+00  0.11530280226E+04  0.11530280226E+04  0.00000000000E+00 0. -1.
         22   -1    0    0    0    0 -0.00000000000E+00 -0.00000000000E+00 -0.59473221466E+03  0.59473221466E+03  0.00000000000E+00 0. -1.
         24    2    1    2    0    0 -0.58134727950E+01  0.22237290474E+02 -0.49708312245E+03  0.50258918101E+03  0.70540489751E+02 0.  0.
         25    2    1    2    0    0  0.23847837713E+02 -0.38911576101E+02 -0.45783040851E+02  0.14080190980E+03  0.12508501451E+03 0.  0.
        -24    2    1    2    0    0 -0.18034364918E+02  0.16674285627E+02  0.11011619712E+04  0.11043691464E+04  0.80437892732E+02 0.  0.
        -13    1    3    3    0    0  0.12717385087E+02  0.34425584628E+02 -0.13721059201E+03  0.14203379640E+03  0.00000000000E+00 0.  1.
         14    1    3    3    0    0 -0.18530857882E+02 -0.12188294153E+02 -0.35987253044E+03  0.36055538461E+03  0.00000000000E+00 0. -1.
         13    1    5    5    0    0 -0.34848401793E+02  0.90960107944E+01  0.10365765739E+04  0.10372020739E+04  0.00000000000E+00 0. -1.
        -14    1    5    5    0    0  0.16814036874E+02  0.75782748324E+01  0.64585397272E+02  0.67167072485E+02  0.00000000000E+00 0.  1.
          5    1    4    4  501    0 -0.31286310306E+02  0.25468637599E+02 -0.38004104888E+02  0.55581193781E+02  0.41800000000E+01 0. -1.
         -5    1    4    4    0  501  0.55134148020E+02 -0.64380213700E+02 -0.77789359623E+01  0.85220716018E+02  0.41800000000E+01 0. -1.
</event>
<event>
11    1  0.8299058E-009  0.1340644E+03  0.7561462E-02  0.1114374E+00
         22   -1    0    0    0    0  0.00000000000E+00  0.00000000000E+00  0.12955648280E+03  0.12955648280E+03  0.00000000000E+00 0. -1.
         22   -1    0    0    0    0 -0.00000000000E+00 -0.00000000000E+00 -0.12610808457E+04  0.12610808457E+04  0.00000000000E+00 0. -1.
        -24    2    1    2    0    0 -0.82277199985E+01 -0.47539233100E+02 -0.10512831734E+04  0.10554501196E+04  0.80317932258E+02 0.  0.
         25    2    1    2    0    0  0.11812115364E+02  0.46584845713E+02 -0.16922025140E+03  0.21585474153E+03  0.12509237402E+03 0.  0.
         24    2    1    2    0    0 -0.35843953657E+01  0.95438738689E+00  0.88979061911E+02  0.11933246735E+03  0.79430507736E+02 0.  0.
        -11    1    5    5    0    0 -0.66422889518E+01  0.68631480807E+01 -0.13555461762E+02  0.16582320335E+02  0.00000000000E+00 0.  1.
         12    1    5    5    0    0  0.30578935861E+01 -0.59087606938E+01  0.10253452367E+03  0.10275014701E+03  0.00000000000E+00 0. -1.
         11    1    3    3    0    0 -0.29427793210E+02 -0.30285205265E+01 -0.71087397344E+03  0.71148926419E+03  0.00000000000E+00 0. -1.
        -12    1    3    3    0    0  0.21200073212E+02 -0.44510712573E+02 -0.34040919997E+03  0.34396085542E+03  0.00000000000E+00 0.  1.
          5    1    4    4  501    0  0.52938803288E+02  0.44257540886E+02 -0.39348199267E+02  0.79542441529E+02  0.41800000000E+01 0.  1.
         -5    1    4    4    0  501 -0.41126687923E+02  0.23273048268E+01 -0.12987205213E+03  0.13631230000E+03  0.41800000000E+01 0.  1.
</event>
<event>
11    1  0.8299058E-009  0.1400431E+03  0.7561462E-02  0.1107510E+00
         22   -1    0    0    0    0  0.00000000000E+00  0.00000000000E+00  0.25428398874E+03  0.25428398874E+03  0.00000000000E+00 0. -1.
         22   -1    0    0    0    0 -0.00000000000E+00 -0.00000000000E+00 -0.10478634055E+04  0.10478634055E+04  0.00000000000E+00 0.  1.
         24    2    1    2    0    0 -0.31663334246E+02 -0.53591635570E+02 -0.92991036892E+03  0.93531770696E+03  0.78811728779E+02 0.  0.
         25    2    1    2    0    0  0.47135773456E+02  0.60525687764E+02 -0.56332328843E+02  0.15718617995E+03  0.12509605859E+03 0.  0.
        -24    2    1    2    0    0 -0.15472439210E+02 -0.69340521936E+01  0.19266328103E+03  0.20964350732E+03  0.80893651475E+02 0.  0.
        -13    1    3    3    0    0 -0.24120223270E+02 -0.73177878475E+02 -0.80246787783E+03  0.80615847202E+03  0.00000000000E+00 0.  1.
         14    1    3    3    0    0 -0.75431109754E+01  0.19586242904E+02 -0.12744249109E+03  0.12915923493E+03  0.00000000000E+00 0. -1.
         11    1    5    5    0    0  0.18707681793E+02  0.14890193764E+02  0.14546100480E+03  0.14741302231E+03  0.00000000000E+00 0. -1.
        -12    1    5    5    0    0 -0.34180121003E+02 -0.21824245958E+02  0.47202276226E+02  0.62230485008E+02  0.00000000000E+00 0.  1.
          5    1    4    4  501    0  0.79954832758E+02  0.10884538791E+02 -0.95265858088E+01  0.81360166563E+02  0.41800000000E+01 0. -1.
         -5    1    4    4    0  501 -0.32819059302E+02  0.49641148973E+02 -0.46805743034E+02  0.75826013384E+02  0.41800000000E+01 0. -1.
</event>
<event>
11    1  0.8299058E-009  0.1337663E+03  0.7561462E-02  0.1114726E+00
         22   -1    0    0    0    0  0.00000000000E+00  0.00000000000E+00  0.93815449436E+03  0.93815449436E+03  0.00000000000E+00 0.  1.
         22   -1    0    0    0    0 -0.00000000000E+00 -0.00000000000E+00 -0.19142286356E+04  0.19142286356E+04  0.00000000000E+00 0.  1.
         24    2    1    2    0    0 -0.29440964646E+02 -0.16738324984E+02 -0.17547933580E+04  0.17569873216E+04  0.80980102598E+02 0.  0.
         25    2    1    2    0    0  0.15102007499E+02 -0.28833013335E+02 -0.12913606313E+03  0.18270875168E+03  0.12508777658E+03 0.  0.
        -24    2    1    2    0    0  0.14338957147E+02  0.45571338320E+02  0.90785527987E+03  0.91268705673E+03  0.80709985603E+02 0.  0.
        -13    1    3    3    0    0 -0.30166983584E+01 -0.37676205073E+02 -0.14195263547E+04  0.14200294604E+04  0.00000000000E+00 0.  1.
         14    1    3    3    0    0 -0.26424266288E+02  0.20937880088E+02 -0.33526700331E+03  0.33695786114E+03  0.00000000000E+00 0. -1.
         11    1    5    5    0    0  0.53677739039E+01  0.74819020443E+01  0.86600099625E+01  0.12640713090E+02  0.00000000000E+00 0. -1.
        -12    1    5    5    0    0  0.89711832434E+01  0.38089436275E+02  0.89919526990E+03  0.90004634364E+03  0.00000000000E+00 0.  1.
          5    1    4    4  501    0  0.99829821157E+01  0.28445912517E+02  0.10050714444E+02  0.32051819475E+02  0.41800000000E+01 0. -1.
         -5    1    4    4    0  501  0.51190253830E+01 -0.57278925852E+02 -0.13918677758E+03  0.15065693220E+03  0.41800000000E+01 0. -1.
</event>
<event>
11    1  0.8299058E-009  0.1380976E+03  0.7561462E-02  0.1109702E+00
         22   -1    0    0    0    0  0.00000000000E+00  0.00000000000E+00  0.39765795751E+03  0.39765795751E+03  0.00000000000E+00 0. -1.
         22   -1    0    0    0    0 -0.00000000000E+00 -0.00000000000E+00 -0.22777300410E+04  0.22777300410E+04  0.00000000000E+00 0. -1.
         24    2    1    2    0    0  0.49269468375E+02 -0.14475498351E+02 -0.13804842755E+04  0.13844511251E+04  0.91274653522E+02 0.  0.
         25    2    1    2    0    0 -0.74055724949E+02  0.34723752096E+02 -0.88415818111E+03  0.89670104455E+03  0.12508830769E+03 0.  0.
        -24    2    1    2    0    0  0.24786256574E+02 -0.20248253745E+02  0.38457037310E+03  0.39423582885E+03  0.80642213478E+02 0.  0.
        -11    1    3    3    0    0  0.32270026095E+02  0.32255277411E+02 -0.95169352182E+03  0.95278660621E+03  0.00000000000E+00 0.  1.
         12    1    3    3    0    0  0.16999442280E+02 -0.46730775763E+02 -0.42879075368E+03  0.43166451891E+03  0.00000000000E+00 0. -1.
         11    1    5    5    0    0 -0.15260011479E+02 -0.33941181949E+02  0.26052037084E+03  0.26316484455E+03  0.00000000000E+00 0. -1.
        -12    1    5    5    0    0  0.40046268053E+02  0.13692928204E+02  0.12405000226E+03  0.13107098431E+03  0.00000000000E+00 0.  1.
          5    1    4    4  501    0  0.20796971254E+01  0.31594528111E+02 -0.64219154783E+03  0.64298522211E+03  0.41800000000E+01 0. -1.
         -5    1    4    4    0  501 -0.76135422074E+02  0.31292239848E+01 -0.24196663328E+03  0.25371582245E+03  0.41800000000E+01 0. -1.
</event>
<event>
11    1  0.8299058E-009  0.2092304E+03  0.7561462E-02  0.1048182E+00
         22   -1    0    0    0    0  0.00000000000E+00  0.00000000000E+00  0.23333795245E+03  0.23333795245E+03  0.00000000000E+00 0. -1.
         22   -1    0    0    0    0 -0.00000000000E+00 -0.00000000000E+00 -0.53247383540E+03  0.53247383540E+03  0.00000000000E+00 0.  1.
         24    2    1    2    0    0 -0.66957115946E+02 -0.75445887071E+02 -0.32358821806E+03  0.35028875514E+03  0.88416852826E+02 0.  0.
         25    2    1    2    0    0  0.58080593255E+02  0.21399192712E+03  0.10834765109E+02  0.25481672839E+03  0.12509305635E+03 0.  0.
        -24    2    1    2    0    0  0.88765226911E+01 -0.13854604005E+03  0.13617569992E+02  0.16070630431E+03  0.79795238988E+02 0.  0.
        -13    1    3    3    0    0 -0.79878081122E+02 -0.51212465848E+02 -0.29804081800E+03  0.31278036015E+03  0.00000000000E+00 0.  1.
         14    1    3    3    0    0  0.12920965177E+02 -0.24233421223E+02 -0.25547400054E+02  0.37508394991E+02  0.00000000000E+00 0. -1.
         13    1    5    5    0    0 -0.12081667176E+02 -0.87068906954E+02  0.42978827523E+02  0.97847538831E+02  0.00000000000E+00 0. -1.
        -14    1    5    5    0    0  0.20958189867E+02 -0.51477133094E+02 -0.29361257531E+02  0.62858765482E+02  0.00000000000E+00 0.  1.
          5    1    4    4  501    0  0.32758492888E+02  0.17651914607E+03 -0.42722578145E+02  0.18459365880E+03  0.41800000000E+01 0.  1.
         -5    1    4    4    0  501  0.25322100366E+02  0.37472781050E+02  0.53557343254E+02  0.70223069593E+02  0.41800000000E+01 0.  1.
</event>
<event>
11    1  0.8299058E-009  0.1730184E+03  0.7561462E-02  0.1075434E+00
         22   -1    0    0    0    0  0.00000000000E+00  0.00000000000E+00  0.62944003045E+03  0.62944003045E+03  0.00000000000E+00 0. -1.
         22   -1    0    0    0    0 -0.00000000000E+00 -0.00000000000E+00 -0.64879381541E+03  0.64879381541E+03  0.00000000000E+00 0. -1.
        -24    2    1    2    0    0  0.83258765309E+02 -0.86482282134E+02 -0.59269363654E+03  0.61017565378E+03  0.81347246767E+02 0.  0.
         25    2    1    2    0    0 -0.87423028501E+02  0.68428743453E+02  0.11704519943E+03  0.20414084900E+03  0.12509447900E+03 0.  0.
         24    2    1    2    0    0  0.41642631923E+01  0.18053538681E+02  0.45629465215E+03  0.46391734308E+03  0.81677538437E+02 0.  0.
        -11    1    5    5    0    0 -0.28361661686E+02 -0.59370621370E+01  0.33098857453E+03  0.33225452447E+03  0.00000000000E+00 0.  1.
         12    1    5    5    0    0  0.32525924879E+02  0.23990600818E+02  0.12530607762E+03  0.13166281861E+03  0.00000000000E+00 0. -1.
         13    1    3    3    0    0  0.60048796620E+02 -0.70253431826E+02 -0.55698025768E+03  0.56459579356E+03  0.00000000000E+00 0. -1.
        -14    1    3    3    0    0  0.23209968688E+02 -0.16228850307E+02 -0.35713378855E+02  0.45579860225E+02  0.00000000000E+00 0.  1.
          5    1    4    4  501    0 -0.11580692760E+03  0.63191098376E+02  0.11472960185E+03  0.17488485737E+03  0.41800000000E+01 0. -1.
         -5    1    4    4    0  501  0.28383899101E+02  0.52376450770E+01  0.23155975790E+01  0.29255991631E+02  0.41800000000E+01 0. -1.
</event>
<event>
11    1  0.8299058E-009  0.2782439E+03  0.7561462E-02  0.1009844E+00
         22   -1    0    0    0    0  0.00000000000E+00  0.00000000000E+00  0.48345002161E+04  0.48345002161E+04  0.00000000000E+00 0. -1.
         22   -1    0    0    0    0 -0.00000000000E+00 -0.00000000000E+00 -0.33432475423E+03  0.33432475423E+03  0.00000000000E+00 0.  1.
        -24    2    1    2    0    0 -0.18642169464E+03  0.15691462879E+03 -0.21298866525E+03  0.33364271089E+03  0.81105104918E+02 0.  0.
         25    2    1    2    0    0  0.22997680730E+03 -0.16145402220E+03  0.33016506911E+03  0.45123516222E+03  0.12508983003E+03 0.  0.
         24    2    1    2    0    0 -0.43555112659E+02  0.45393934153E+01  0.43829990581E+04  0.43839470973E+04  0.79960958272E+02 0.  0.
        -13    1    5    5    0    0 -0.52061536383E+02  0.32613663569E+02  0.27680076307E+04  0.27686892744E+04  0.00000000000E+00 0.  1.
         14    1    5    5    0    0  0.85064237243E+01 -0.28074270154E+02  0.16149914273E+04  0.16152578228E+04  0.00000000000E+00 0. -1.
         11    1    3    3    0    0 -0.24075950558E+02  0.46959114536E+02 -0.83121311259E+02  0.98457921056E+02  0.00000000000E+00 0. -1.
        -12    1    3    3    0    0 -0.16234574408E+03  0.10995551425E+03 -0.12986735399E+03  0.23518478983E+03  0.00000000000E+00 0.  1.
          5    1    4    4  501    0  0.18202857092E+02 -0.77027473510E+02  0.76630566077E+02  0.11024650443E+03  0.41800000000E+01 0. -1.
         -5    1    4    4    0  501  0.21177395021E+03 -0.84426548695E+02  0.25353450303E+03  0.34098865779E+03  0.41800000000E+01 0. -1.
</event>
<event>
11    1  0.8299058E-009  0.1384125E+03  0.7561462E-02  0.1109344E+00
         22   -1    0    0    0    0  0.00000000000E+00  0.00000000000E+00  0.12500498132E+04  0.12500498132E+04  0.00000000000E+00 0.  1.
         22   -1    0    0    0    0 -0.00000000000E+00 -0.00000000000E+00 -0.16376176637E+04  0.16376176637E+04  0.00000000000E+00 0. -1.
        -24    2    1    2    0    0 -0.80230556190E+02  0.18827601602E+02 -0.16119943828E+04  0.16160116499E+04  0.78589705285E+02 0.  0.
         25    2    1    2    0    0  0.36734050418E+02 -0.66447805810E+02  0.24922858347E+03  0.28901027482E+03  0.12508937115E+03 0.  0.
         24    2    1    2    0    0  0.43496505772E+02  0.47620204207E+02  0.97519794882E+03  0.98264555221E+03  0.10208629702E+03 0.  0.
        -13    1    5    5    0    0  0.42214799221E+02  0.69041595375E+02  0.91790698114E+03  0.92146733919E+03  0.00000000000E+00 0.  1.
         14    1    5    5    0    0  0.12817065511E+01 -0.21421391167E+02  0.57290967678E+02  0.61178213023E+02  0.00000000000E+00 0. -1.
         13    1    3    3    0    0 -0.87631804596E+02  0.10141752735E+02 -0.15705304850E+04  0.15730061006E+04  0.00000000000E+00 0. -1.
        -14    1    3    3    0    0  0.74012484057E+01  0.86858488673E+01 -0.41463897770E+02  0.43005549256E+02  0.00000000000E+00 0.  1.
          5    1    4    4  501    0  0.34111088912E+02  0.32401148051E+02  0.86162182428E+02  0.98258815699E+02  0.41800000000E+01 0. -1.
         -5    1    4    4    0  501  0.26229615065E+01 -0.98848953861E+02  0.16306640104E+03  0.19075145912E+03  0.41800000000E+01 0. -1.
</event>
<event>
11    1  0.8299058E-009  0.1460081E+03  0.7561462E-02  0.1101029E+00
         22   -1    0    0    0    0  0.00000000000E+00  0.00000000000E+00  0.37859253985E+04  0.37859253985E+04  0.00000000000E+00 0. -1.
         22   -1    0    0    0    0 -0.00000000000E+00 -0.00000000000E+00 -0.15686070723E+03  0.15686070723E+03  0.00000000000E+00 0. -1.
        -24    2    1    2    0    0  0.31979337421E+02  0.68042281244E+02 -0.13287809778E+03  0.17261234488E+03  0.80535722991E+02 0.  0.
         25    2    1    2    0    0 -0.50092947313E+02 -0.71765633709E+02  0.18079975763E+04  0.18144317802E+04  0.12509132531E+03 0.  0.
         24    2    1    2    0    0  0.18113609893E+02  0.37233524648E+01  0.19539452128E+04  0.19557419807E+04  0.81748602930E+02 0.  0.
        -13    1    5    5    0    0 -0.23759446548E+02 -0.23464333448E+02  0.68126580760E+03  0.68208370956E+03  0.00000000000E+00 0.  1.
         14    1    5    5    0    0  0.41873056441E+02  0.27187685913E+02  0.12726794052E+04  0.12736582711E+04  0.00000000000E+00 0. -1.
         11    1    3    3    0    0 -0.71399366526E+00  0.65757531681E+02 -0.12106985647E+03  0.13777689540E+03  0.00000000000E+00 0. -1.
        -12    1    3    3    0    0  0.32693331086E+02  0.22847495628E+01 -0.11808241310E+02  0.34835449486E+02  0.00000000000E+00 0.  1.
          5    1    4    4  501    0 -0.59273383105E+01  0.17436894666E+02  0.47484657124E+02  0.51102286614E+02  0.41800000000E+01 0. -1.
         -5    1    4    4    0  501 -0.44165609003E+02 -0.89202528374E+02  0.17605129191E+04  0.17633294936E+04  0.41800000000E+01 0. -1.
</event>
<event>
11    1  0.8299058E-009  0.1383412E+03  0.7561462E-02  0.1109425E+00
         22   -1    0    0    0    0  0.00000000000E+00  0.00000000000E+00  0.45959451195E+03  0.45959451195E+03  0.00000000000E+00 0.  1.
         22   -1    0    0    0    0 -0.00000000000E+00 -0.00000000000E+00 -0.31352132664E+03  0.31352132664E+03  0.00000000000E+00 0.  1.
         24    2    1    2    0    0 -0.67735703094E+01  0.40737523100E+01 -0.26490911285E+03  0.27916574912E+03  0.87716593061E+02 0.  0.
         25    2    1    2    0    0 -0.52966661617E+02  0.60789038614E+01  0.10767883069E+03  0.17345218519E+03  0.12509400327E+03 0.  0.
        -24    2    1    2    0    0  0.59740231926E+02 -0.10152656171E+02  0.30330346748E+03  0.32049790428E+03  0.83987746300E+02 0.  0.
        -13    1    3    3    0    0 -0.24765706729E+02  0.40335701692E+02 -0.13204556894E+03  0.14027238266E+03  0.00000000000E+00 0.  1.
         14    1    3    3    0    0  0.17992136420E+02 -0.36261949382E+02 -0.13286354391E+03  0.13889336646E+03  0.00000000000E+00 0. -1.
         11    1    5    5    0    0 -0.11421468577E+02  0.17553063144E+01  0.34115512290E+01  0.12048640027E+02  0.00000000000E+00 0. -1.
        -12    1    5    5    0    0  0.71161700504E+02 -0.11907962486E+02  0.29989191625E+03  0.30844926426E+03  0.00000000000E+00 0.  1.
          5    1    4    4  501    0 -0.75271041384E+02  0.35300066528E+02  0.31939882874E+02  0.89159704384E+02  0.41800000000E+01 0. -1.
         -5    1    4    4    0  501  0.22304379767E+02 -0.29221162666E+02  0.75738947812E+02  0.84292480804E+02  0.41800000000E+01 0. -1.
</event>
<event>
11    1  0.8299058E-009  0.1855352E+03  0.7561462E-02  0.1065251E+00
         22   -1    0    0    0    0  0.00000000000E+00  0.00000000000E+00  0.30120024891E+03  0.30120024891E+03  0.00000000000E+00 0. -1.
         22   -1    0    0    0    0 -0.00000000000E+00 -0.00000000000E+00 -0.65453721126E+03  0.65453721126E+03  0.00000000000E+00 0.  1.
        -24    2    1    2    0    0  0.12321013710E+03 -0.66230792589E+02 -0.48085690138E+03  0.50720426636E+03  0.80408658932E+02 0.  0.
         25    2    1    2    0    0 -0.12616856353E+03  0.28300698108E+02 -0.98641294140E+02  0.20518353993E+03  0.12510293447E+03 0.  0.
         24    2    1    2    0    0  0.29584264281E+01  0.37930094481E+02  0.22616123317E+03  0.24334965388E+03  0.81380011680E+02 0.  0.
        -11    1    5    5    0    0  0.33568916404E+02  0.84426060770E+01  0.42389128460E+02  0.54726483146E+02  0.00000000000E+00 0.  1.
         12    1    5    5    0    0 -0.30610489975E+02  0.29487488404E+02  0.18377210471E+03  0.18862317074E+03  0.00000000000E+00 0. -1.
         13    1    3    3    0    0  0.36526926853E+02  0.41575736281E+01 -0.22583486437E+03  0.22880753434E+03  0.00000000000E+00 0. -1.
        -14    1    3    3    0    0  0.86683210246E+02 -0.70388366217E+02 -0.25502203701E+03  0.27839673202E+03  0.00000000000E+00 0.  1.
          5    1    4    4  501    0 -0.27653295353E+02  0.67039796217E+02 -0.27992526581E+02  0.77846598931E+02  0.41800000000E+01 0. -1.
         -5    1    4    4    0  501 -0.98515268174E+02 -0.38739098109E+02 -0.70648767558E+02  0.12733694100E+03  0.41800000000E+01 0. -1.
</event>
<event>
11    1  0.8299058E-009  0.2019275E+03  0.7561462E-02  0.1053169E+00
         22   -1    0    0    0    0  0.00000000000E+00  0.00000000000E+00  0.33869692143E+03  0.33869692143E+03  0.00000000000E+00 0.  1.
         22   -1    0    0    0    0 -0.00000000000E+00 -0.00000000000E+00 -0.35162151323E+03  0.35162151323E+03  0.00000000000E+00 0.  1.
        -24    2    1    2    0    0  0.23391404765E+02  0.15110877548E+02 -0.23246047520E+03  0.24765730174E+03  0.80751285670E+02 0.  0.
         25    2    1    2    0    0  0.10158615972E+03 -0.11748383802E+03  0.80779234234E+02  0.21516230922E+03  0.12508930643E+03 0.  0.
         24    2    1    2    0    0 -0.12497756449E+03  0.10237296047E+03  0.13875664916E+03  0.22749882369E+03  0.80016825949E+02 0.  0.
        -13    1    5    5    0    0 -0.72707451607E+02  0.88631689369E+02  0.12900297540E+03  0.17257959770E+03  0.00000000000E+00 0.  1.
         14    1    5    5    0    0 -0.52270112882E+02  0.13741271105E+02  0.97536737583E+01  0.54919225996E+02  0.00000000000E+00 0. -1.
         13    1    3    3    0    0 -0.80283194173E+00  0.34158039915E+02 -0.39377675845E+02  0.52134610241E+02  0.00000000000E+00 0. -1.
        -14    1    3    3    0    0  0.24194236707E+02 -0.19047162368E+02 -0.19308279935E+03  0.19552269150E+03  0.00000000000E+00 0.  1.
          5    1    4    4  501    0  0.10056784084E+03 -0.34812352716E+02  0.78569181903E+02  0.13234945885E+03  0.41800000000E+01 0.  1.
         -5    1    4    4    0  501  0.10183188837E+01 -0.82671485306E+02  0.22100523312E+01  0.82812850375E+02  0.41800000000E+01 0.  1.
</event>
<event>
11    1  0.8299058E-009  0.1445930E+03  0.7561462E-02  0.1102535E+00
         22   -1    0    0    0    0  0.00000000000E+00  0.00000000000E+00  0.48342143812E+03  0.48342143812E+03  0.00000000000E+00 0. -1.
         22   -1    0    0    0    0 -0.00000000000E+00 -0.00000000000E+00 -0.75159132111E+03  0.75159132111E+03  0.00000000000E+00 0.  1.
        -24    2    1    2    0    0 -0.54913999265E+02 -0.21280329603E+02 -0.69861183597E+03  0.70572036340E+03  0.80711425560E+02 0.  0.
         25    2    1    2    0    0  0.71307525934E+02 -0.50150504350E+02  0.10255489069E+03  0.18375021084E+03  0.12508716177E+03 0.  0.
         24    2    1    2    0    0 -0.16393526669E+02  0.71430833953E+02  0.32788706229E+03  0.34554218499E+03  0.80736387309E+02 0.  0.
        -11    1    5    5    0    0 -0.12137244164E+02  0.45094711897E+02  0.58577123201E+02  0.74914118158E+02  0.00000000000E+00 0.  1.
         12    1    5    5    0    0 -0.42562825045E+01  0.26336122056E+02  0.26930993909E+03  0.27062806683E+03  0.00000000000E+00 0. -1.
         11    1    3    3    0    0 -0.32381523768E+02 -0.50124396705E+02 -0.33523693968E+03  0.34050671646E+03  0.00000000000E+00 0. -1.
        -12    1    3    3    0    0 -0.22532475497E+02  0.28844067102E+02 -0.36337489629E+03  0.36521364694E+03  0.00000000000E+00 0.  1.
          5    1    4    4  501    0 -0.15715459415E+02 -0.59895262426E+02  0.25733422122E+02  0.67187048899E+02  0.41800000000E+01 0.  1.
         -5    1    4    4    0  501  0.87022985349E+02  0.97447580755E+01  0.76821468570E+02  0.11656316194E+03  0.41800000000E+01 0.  1.
</event>
<event>
11    1  0.8299058E-009  0.1309110E+03  0.7561462E-02  0.1118155E+00
         22   -1    0    0    0    0  0.00000000000E+00  0.00000000000E+00  0.33058583400E+03  0.33058583400E+03  0.00000000000E+00 0.  1.
         22   -1    0    0    0    0 -0.00000000000E+00 -0.00000000000E+00 -0.76863942625E+03  0.76863942625E+03  0.00000000000E+00 0. -1.
         24    2    1    2    0    0  0.14399948766E+02  0.39081817958E+02 -0.61468649050E+03  0.62139776208E+03  0.80999691929E+02 0.  0.
         25    2    1    2    0    0  0.18627300622E+02 -0.19608330410E+02 -0.11533199869E+03  0.17227967923E+03  0.12508938805E+03 0.  0.
        -24    2    1    2    0    0 -0.33027249388E+02 -0.19473487547E+02  0.29196489694E+03  0.30554781895E+03  0.81522712776E+02 0.  0.
        -13    1    3    3    0    0 -0.12991562426E+02  0.32447067983E+02 -0.99850132800E+02  0.10579055693E+03  0.00000000000E+00 0.  1.
         14    1    3    3    0    0  0.27391511192E+02  0.66347499750E+01 -0.51483635770E+03  0.51560720515E+03  0.00000000000E+00 0. -1.
         11    1    5    5    0    0  0.17501718597E+02 -0.12119083740E+02  0.21320704273E+02  0.30128969037E+02  0.00000000000E+00 0. -1.
        -12    1    5    5    0    0 -0.50528967985E+02 -0.73544038077E+01  0.27064419267E+03  0.27541884991E+03  0.00000000000E+00 0.  1.
          5    1    4    4  501    0  0.64287286031E+02 -0.40137131522E+02 -0.54807736098E+02  0.93622672512E+02  0.41800000000E+01 0.  1.
         -5    1    4    4    0  501 -0.45659985409E+02  0.20528801112E+02 -0.60524262595E+02  0.78657006715E+02  0.41800000000E+01 0.  1.
</event>
<event>
11    1  0.8299058E-009  0.2549745E+03  0.7561462E-02  0.1021282E+00
         22   -1    0    0    0    0  0.00000000000E+00  0.00000000000E+00  0.47173133649E+03  0.47173133649E+03  0.00000000000E+00 0. -1.
         22   -1    0    0    0    0 -0.00000000000E+00 -0.00000000000E+00 -0.31117225479E+03  0.31117225479E+03  0.00000000000E+00 0. -1.
        -24    2    1    2    0    0  0.73006573888E+02 -0.22792363254E+03 -0.15324399639E+03  0.29526925907E+03  0.80131584409E+02 0.  0.
         25    2    1    2    0    0 -0.74323205381E+02  0.16832130640E+03  0.84585209835E+02  0.23802839047E+03  0.12508739305E+03 0.  0.
         24    2    1    2    0    0  0.13166314930E+01  0.59602326142E+02  0.22921786825E+03  0.24960594175E+03  0.78791650765E+02 0.  0.
        -11    1    5    5    0    0  0.33037241679E+02  0.57652369152E+02  0.16719237469E+03  0.17991260423E+03  0.00000000000E+00 0.  1.
         12    1    5    5    0    0 -0.31720610186E+02  0.19499569900E+01  0.62025493562E+02  0.69693337519E+02  0.00000000000E+00 0. -1.
         11    1    3    3    0    0  0.20940488216E+02 -0.18040709684E+03 -0.10406115332E+03  0.20931781641E+03  0.00000000000E+00 0. -1.
        -12    1    3    3    0    0  0.52066085671E+02 -0.47516535696E+02 -0.49182843072E+02  0.85951442654E+02  0.00000000000E+00 0.  1.
          5    1    4    4  501    0  0.16033111052E+02 -0.69814405150E+01 -0.85206062621E+01  0.19896589978E+02  0.41800000000E+01 0.  1.
         -5    1    4    4    0  501 -0.90356316433E+02  0.17530274691E+03  0.93105816097E+02  0.21813180049E+03  0.41800000000E+01 0.  1.
</event>
<event>
11    1  0.8299058E-009  0.1652398E+03  0.7561462E-02  0.1082250E+00
         22   -1    0    0    0    0  0.00000000000E+00  0.00000000000E+00  0.10462251373E+03  0.10462251373E+03  0.00000000000E+00 0.  1.
         22   -1    0    0    0    0 -0.00000000000E+00 -0.00000000000E+00 -0.64390424867E+03  0.64390424867E+03  0.00000000000E+00 0.  1.
        -24    2    1    2    0    0  0.73149405862E+02 -0.71673756831E+02 -0.36592445440E+03  0.38855271364E+03  0.81145190563E+02 0.  0.
         25    2    1    2    0    0 -0.74067211896E+02  0.10124727629E+03 -0.20330983574E+03  0.26966514618E+03  0.12508972349E+03 0.  0.
         24    2    1    2    0    0  0.91780603379E+00 -0.29573519461E+02  0.29952555197E+02  0.90308902588E+02  0.79894348377E+02 0.  0.
        -13    1    5    5    0    0  0.23192950797E+02 -0.46914440358E+02  0.33071314923E+02  0.61907911866E+02  0.00000000000E+00 0.  1.
         14    1    5    5    0    0 -0.22275144763E+02  0.17340920897E+02 -0.31187597264E+01  0.28400990722E+02  0.00000000000E+00 0. -1.
         13    1    3    3    0    0  0.41043554900E+02 -0.75993684386E+02 -0.17789463629E+03  0.19775266139E+03  0.00000000000E+00 0. -1.
        -14    1    3    3    0    0  0.32105850963E+02  0.43199275551E+01 -0.18802981811E+03  0.19080005225E+03  0.00000000000E+00 0.  1.
          5    1    4    4  501    0 -0.37789868376E+02 -0.19494332503E+02 -0.91982939499E+02  0.10142207211E+03  0.41800000000E+01 0.  1.
         -5    1    4    4    0  501 -0.36277343520E+02  0.12074160880E+03 -0.11132689624E+03  0.16824307407E+03  0.41800000000E+01 0.  1.
</event>
<event>
11    1  0.8299058E-009  0.1904750E+03  0.7561462E-02  0.1061471E+00
         22   -1    0    0    0    0  0.00000000000E+00  0.00000000000E+00  0.12827666390E+04  0.12827666390E+04  0.00000000000E+00 0.  1.
         22   -1    0    0    0    0 -0.00000000000E+00 -0.00000000000E+00 -0.39186214728E+03  0.39186214728E+03  0.00000000000E+00 0. -1.
         24    2    1    2    0    0 -0.83186355959E+02 -0.84028850265E+01 -0.29928909416E+03  0.32080684019E+03  0.79702500161E+02 0.  0.
         25    2    1    2    0    0  0.19516664365E+03  0.89655422628E+02  0.12770195845E+03  0.27943631187E+03  0.12509495833E+03 0.  0.
        -24    2    1    2    0    0 -0.11198028769E+03 -0.81252537602E+02  0.10624916274E+04  0.10743856342E+04  0.79211570747E+02 0.  0.
        -11    1    3    3    0    0  0.10678080311E+02  0.40730799694E+01 -0.94470164547E+02  0.95158937410E+02  0.00000000000E+00 0.  1.
         12    1    3    3    0    0 -0.93864436270E+02 -0.12475964996E+02 -0.20481892962E+03  0.22564790278E+03  0.00000000000E+00 0. -1.
         13    1    5    5    0    0  0.31488482612E+01 -0.27411390652E+02  0.10797860242E+03  0.11144809628E+03  0.00000000000E+00 0. -1.
        -14    1    5    5    0    0 -0.11512913595E+03 -0.53841146950E+02  0.95451302503E+03  0.96293753795E+03  0.00000000000E+00 0.  1.
          5    1    4    4  501    0  0.98352980624E+01  0.57046700459E+02  0.46819144438E+02  0.74569188054E+02  0.41800000000E+01 0.  1.
         -5    1    4    4    0  501  0.18533134559E+03  0.32608722169E+02  0.80882814011E+02  0.20486712382E+03  0.41800000000E+01 0.  1.
</event>
<event>
11    1  0.8299058E-009  0.1293480E+03  0.7561462E-02  0.1120073E+00
         22   -1    0    0    0    0  0.00000000000E+00  0.00000000000E+00  0.35488800197E+03  0.35488800197E+03  0.00000000000E+00 0.  1.
         22   -1    0    0    0    0 -0.00000000000E+00 -0.00000000000E+00 -0.38665083082E+03  0.38665083082E+03  0.00000000000E+00 0.  1.
        -24    2    1    2    0    0 -0.18282749180E+02  0.20042579852E+02 -0.32149826599E+03  0.33268016180E+03  0.81110980110E+02 0.  0.
         25    2    1    2    0    0  0.41826091230E+02 -0.37960067532E+02  0.38173353902E+02  0.14246082788E+03  0.12508994323E+03 0.  0.
         24    2    1    2    0    0 -0.23543342050E+02  0.17917487680E+02  0.25156208324E+03  0.26639784311E+03  0.82516687830E+02 0.  0.
        -13    1    5    5    0    0 -0.50622984873E+02  0.12492311993E+02  0.21085514125E+03  0.21720643418E+03  0.00000000000E+00 0.  1.
         14    1    5    5    0    0  0.27079642823E+02  0.54251756871E+01  0.40706941989E+02  0.49191408932E+02  0.00000000000E+00 0. -1.
         13    1    3    3    0    0  0.23091414114E+02  0.14820014120E+02 -0.42534131966E+02  0.50616189173E+02  0.00000000000E+00 0. -1.
        -14    1    3    3    0    0 -0.41374163293E+02  0.52225657312E+01 -0.27896413402E+03  0.28206397263E+03  0.00000000000E+00 0.  1.
          5    1    4    4  501    0 -0.11423517773E+02 -0.32543531959E+02 -0.36564792682E+02  0.50438424782E+02  0.41800000000E+01 0. -1.
         -5    1    4    4    0  501  0.53249609002E+02 -0.54165355728E+01  0.74738146583E+02  0.92022403094E+02  0.41800000000E+01 0. -1.
</event>
<event>
11    1  0.8299058E-009  0.1280072E+03  0.7561462E-02  0.1121742E+00
         22   -1    0    0    0    0  0.00000000000E+00  0.00000000000E+00  0.25457208496E+03  0.25457208496E+03  0.00000000000E+00 0. -1.
         22   -1    0    0    0    0 -0.00000000000E+00 -0.00000000000E+00 -0.12071982152E+04  0.12071982152E+04  0.00000000000E+00 0. -1.
        -24    2    1    2    0    0  0.10158534280E+02 -0.32540572297E+02 -0.11180483206E+04  0.11214398957E+04  0.80207902768E+02 0.  0.
         25    2    1    2    0    0 -0.17216611594E+02  0.25573566482E+01 -0.24145030090E+02  0.12858289199E+03  0.12509047064E+03 0.  0.
         24    2    1    2    0    0  0.70580773135E+01  0.29983215648E+02  0.18956722049E+03  0.21174751250E+03  0.89176612914E+02 0.  0.
        -13    1    5    5    0    0 -0.27088959370E+02  0.14835830164E+02  0.17145158029E+02  0.35325203753E+02  0.00000000000E+00 0.  1.
         14    1    5    5    0    0  0.34147036683E+02  0.15147385485E+02  0.17242206246E+03  0.17642230875E+03  0.00000000000E+00 0. -1.
         11    1    3    3    0    0 -0.31702869849E+02 -0.32204122218E+02 -0.55373574210E+03  0.55557668194E+03  0.00000000000E+00 0. -1.
        -12    1    3    3    0    0  0.41861404129E+02 -0.33645007871E+00 -0.56431257855E+03  0.56586321374E+03  0.00000000000E+00 0.  1.
          5    1    4    4  501    0 -0.39044560094E+02  0.74767744397E+01  0.42388380067E+02  0.58263427582E+02  0.41800000000E+01 0.  1.
         -5    1    4    4    0  501  0.21827948500E+02 -0.49194177915E+01 -0.66533410156E+02  0.70319464405E+02  0.41800000000E+01 0.  1.
</event>
<event>
11    1  0.8299058E-009  0.1536889E+03  0.7561462E-02  0.1093168E+00
         22   -1    0    0    0    0  0.00000000000E+00  0.00000000000E+00  0.42924798558E+03  0.42924798558E+03  0.00000000000E+00 0. -1.
         22   -1    0    0    0    0 -0.00000000000E+00 -0.00000000000E+00 -0.54753486962E+03  0.54753486962E+03  0.00000000000E+00 0. -1.
        -24    2    1    2    0    0 -0.53861636432E+02 -0.79518425287E+02 -0.28177982385E+03  0.30851407752E+03  0.80974138223E+02 0.  0.
         25    2    1    2    0    0  0.20632963522E+02  0.78338830430E+02 -0.22520240896E+03  0.27005102661E+03  0.12509492569E+03 0.  0.
         24    2    1    2    0    0  0.33228672910E+02  0.11795948575E+01  0.38869534877E+03  0.39821775106E+03  0.79923506894E+02 0.  0.
        -13    1    5    5    0    0  0.23261457924E+02 -0.20431396718E+02  0.50839343862E+02  0.59524585517E+02  0.00000000000E+00 0.  1.
         14    1    5    5    0    0  0.99672149856E+01  0.21610991575E+02  0.33785600491E+03  0.33869316554E+03  0.00000000000E+00 0. -1.
         11    1    3    3    0    0 -0.71790731041E+02 -0.79850467847E+02 -0.24859379068E+03  0.27079305575E+03  0.00000000000E+00 0. -1.
        -12    1    3    3    0    0  0.17929094610E+02  0.33204256042E+00 -0.33186033170E+02  0.37721021769E+02  0.00000000000E+00 0.  1.
          5    1    4    4  501    0 -0.40364750285E+02  0.77503467385E+02 -0.12266987129E+03  0.15067007083E+03  0.41800000000E+01 0. -1.
         -5    1    4    4    0  501  0.60997713807E+02  0.83536304483E+00 -0.10253253767E+03  0.11938095578E+03  0.41800000000E+01 0. -1.
</event>
<event>
11    1  0.8299058E-009  0.1253894E+03  0.7561462E-02  0.1125067E+00
         22   -1    0    0    0    0  0.00000000000E+00  0.00000000000E+00  0.78715279860E+03  0.78715279860E+03  0.00000000000E+00 0.  1.
         22   -1    0    0    0    0 -0.00000000000E+00 -0.00000000000E+00 -0.36179811792E+03  0.36179811792E+03  0.00000000000E+00 0.  1.
        -24    2    1    2    0    0  0.49428863837E+01  0.73070925641E+01 -0.31378353112E+03  0.32732191354E+03  0.92745377000E+02 0.  0.
         25    2    1    2    0    0  0.12627599724E+02 -0.14761175096E+02  0.64781121630E+02  0.14220131478E+03  0.12508905484E+03 0.  0.
         24    2    1    2    0    0 -0.17570486108E+02  0.74540825314E+01  0.67435709018E+03  0.67942768819E+03  0.80623898976E+02 0.  0.
        -11    1    5    5    0    0  0.69907501719E+01  0.37354862731E+02  0.46304634122E+03  0.46460323985E+03  0.00000000000E+00 0.  1.
         12    1    5    5    0    0 -0.24561236280E+02 -0.29900780199E+02  0.21131074896E+03  0.21482444835E+03  0.00000000000E+00 0. -1.
         11    1    3    3    0    0  0.23955730382E+02  0.23514713035E+02 -0.39219336977E+02  0.51623397217E+02  0.00000000000E+00 0. -1.
        -12    1    3    3    0    0 -0.19012843999E+02 -0.16207620471E+02 -0.27456419415E+03  0.27569851633E+03  0.00000000000E+00 0.  1.
          5    1    4    4  501    0  0.24185786916E+01 -0.55442629732E+02  0.79942866406E+02  0.97406719499E+02  0.41800000000E+01 0.  1.
         -5    1    4    4    0  501  0.10209021033E+02  0.40681454636E+02 -0.15161744776E+02  0.44794595281E+02  0.41800000000E+01 0.  1.
</event>
<event>
11    1  0.8299058E-009  0.1417750E+03  0.7561462E-02  0.1105592E+00
         22   -1    0    0    0    0  0.00000000000E+00  0.00000000000E+00  0.13532551729E+04  0.13532551729E+04  0.00000000000E+00 0. -1.
         22   -1    0    0    0    0 -0.00000000000E+00 -0.00000000000E+00 -0.22761766491E+03  0.22761766491E+03  0.00000000000E+00 0. -1.
        -24    2    1    2    0    0  0.78315356240E+01  0.69194277071E+02 -0.19480364261E+03  0.22204587300E+03  0.80664301963E+02 0.  0.
         25    2    1    2    0    0  0.18123445575E+02 -0.17658326061E+02  0.22189269458E+03  0.25597754714E+03  0.12509141047E+03 0.  0.
         24    2    1    2    0    0 -0.25954981199E+02 -0.51535951010E+02  0.10985484561E+04  0.11028494177E+04  0.78348660222E+02 0.  0.
        -13    1    5    5    0    0 -0.21164490290E+02 -0.68930235428E+00  0.72461765881E+02  0.75492504936E+02  0.00000000000E+00 0.  1.
         14    1    5    5    0    0 -0.47904909098E+01 -0.50846648656E+02  0.10260866902E+04  0.10273569128E+04  0.00000000000E+00 0. -1.
         13    1    3    3    0    0  0.70934206527E+01  0.86008415056E+02 -0.13765516754E+03  0.16247064113E+03  0.00000000000E+00 0. -1.
        -14    1    3    3    0    0  0.73811497129E+00 -0.16814137985E+02 -0.57148475066E+02  0.59575231869E+02  0.00000000000E+00 0.  1.
          5    1    4    4  501    0  0.62872179296E+02 -0.38614610619E+00  0.18465339819E+03  0.19510871303E+03  0.41800000000E+01 0. -1.
         -5    1    4    4    0  501 -0.44748733721E+02 -0.17272179955E+02  0.37239296396E+02  0.60868834111E+02  0.41800000000E+01 0. -1.
</event>
<event>
11    1  0.8299058E-009  0.3949214E+03  0.7561462E-02  0.9664862E-01
         22   -1    0    0    0    0  0.00000000000E+00  0.00000000000E+00  0.58467059854E+03  0.58467059854E+03  0.00000000000E+00 0.  1.
         22   -1    0    0    0    0 -0.00000000000E+00 -0.00000000000E+00 -0.11610977695E+04  0.11610977695E+04  0.00000000000E+00 0.  1.
         24    2    1    2    0    0 -0.18189300208E+03 -0.33828415481E+03 -0.80753147652E+03  0.89788475654E+03  0.81047620902E+02 0.  0.
         25    2    1    2    0    0  0.58392188864E+02  0.35843329926E+03 -0.17009407098E+03  0.42007452470E+03  0.12508611266E+03 0.  0.
        -24    2    1    2    0    0  0.12350081322E+03 -0.20149144454E+02  0.40119837650E+03  0.42780908684E+03  0.80012740142E+02 0.  0.
        -11    1    3    3    0    0 -0.18424554028E+03 -0.28704127223E+03 -0.71038607268E+03  0.78802759046E+03  0.00000000000E+00 0.  1.
         12    1    3    3    0    0  0.23525381930E+01 -0.51242882577E+02 -0.97145403846E+02  0.10985716608E+03  0.00000000000E+00 0. -1.
         13    1    5    5    0    0  0.49008756802E+02  0.27820464968E+02  0.11257734036E+03  0.12589477382E+03  0.00000000000E+00 0. -1.
        -14    1    5    5    0    0  0.74492056418E+02 -0.47969609422E+02  0.28862103614E+03  0.30191431301E+03  0.00000000000E+00 0.  1.
          5    1    4    4  501    0  0.89404298625E+02  0.29292903004E+03 -0.16343992002E+03  0.34717520808E+03  0.41800000000E+01 0. -1.
         -5    1    4    4    0  501 -0.31012109761E+02  0.65504269227E+02 -0.66541509639E+01  0.72899316621E+02  0.41800000000E+01 0. -1.
</event>
<event>
11    1  0.8299058E-009  0.1579478E+03  0.7561462E-02  0.1089023E+00
         22   -1    0    0    0    0  0.00000000000E+00  0.00000000000E+00  0.40518490878E+03  0.40518490878E+03  0.00000000000E+00 0. -1.
         22   -1    0    0    0    0 -0.00000000000E+00 -0.00000000000E+00 -0.21275594965E+04  0.21275594965E+04  0.00000000000E+00 0. -1.
        -24    2    1    2    0    0 -0.59750546546E+01 -0.24944770609E+02 -0.20407314134E+04  0.20426060761E+04  0.83647698535E+02 0.  0.
         25    2    1    2    0    0 -0.49333432348E+02  0.10086066621E+03  0.23267380752E+02  0.16969849188E+03  0.12509814389E+03 0.  0.
         24    2    1    2    0    0  0.55308487002E+02 -0.75915895600E+02  0.29508944496E+03  0.32043983730E+03  0.82350815820E+02 0.  0.
        -13    1    5    5    0    0  0.43995819338E+01  0.17357822224E+02  0.56169770785E+02  0.58955012201E+02  0.00000000000E+00 0.  1.
         14    1    5    5    0    0  0.50908905068E+02 -0.93273717824E+02  0.23891967417E+03  0.26148482510E+03  0.00000000000E+00 0. -1.
         13    1    3    3    0    0 -0.98668764392E+01 -0.49165364309E+02 -0.17841674968E+04  0.17848720528E+04  0.00000000000E+00 0. -1.
        -14    1    3    3    0    0  0.38918217846E+01  0.24220593700E+02 -0.25656391668E+03  0.25773402332E+03  0.00000000000E+00 0.  1.
          5    1    4    4  501    0 -0.74535050773E+02  0.30549098904E+02  0.44252215309E+02  0.92002457561E+02  0.41800000000E+01 0.  1.
         -5    1    4    4    0  501  0.25201618425E+02  0.70311567306E+02 -0.20984834556E+02  0.77696034323E+02  0.41800000000E+01 0.  1.
</event>
<event>
11    1  0.8299058E-009  0.1374667E+03  0.7561462E-02  0.1110421E+00
         22   -1    0    0    0    0  0.00000000000E+00  0.00000000000E+00  0.76502435778E+03  0.76502435778E+03  0.00000000000E+00 0. -1.
         22   -1    0    0    0    0 -0.00000000000E+00 -0.00000000000E+00 -0.16387404205E+04  0.16387404205E+04  0.00000000000E+00 0.  1.
         24    2    1    2    0    0  0.37906133102E+02  0.36075207876E+02 -0.15672590990E+04  0.15700200478E+04  0.76964743468E+02 0.  0.
         25    2    1    2    0    0 -0.92881883596E+02 -0.30895396812E+02  0.28274084056E+02  0.16133362022E+03  0.12509014085E+03 0.  0.
        -24    2    1    2    0    0  0.54975750494E+02 -0.51798110630E+01  0.66526895222E+03  0.67241111021E+03  0.80652084670E+02 0.  0.
        -11    1    3    3    0    0  0.11192982575E+02  0.43570716607E+02 -0.13783989498E+04  0.13791328272E+04  0.00000000000E+00 0.  1.
         12    1    3    3    0    0  0.26713150527E+02 -0.74955087312E+01 -0.18886014919E+03  0.19088722067E+03  0.00000000000E+00 0. -1.
         13    1    5    5    0    0 -0.12532857748E+02  0.15728529004E+02  0.27945997933E+03  0.28018268896E+03  0.00000000000E+00 0. -1.
        -14    1    5    5    0    0  0.67508608242E+02 -0.20908340067E+02  0.38580897290E+03  0.39222842125E+03  0.00000000000E+00 0.  1.
          5    1    4    4  501    0 -0.28982550683E+01 -0.34799006225E+02  0.56762897777E+02  0.66774768294E+02  0.41800000000E+01 0.  1.
         -5    1    4    4    0  501 -0.89983628528E+02  0.39036094125E+01 -0.28488813721E+02  0.94558851922E+02  0.41800000000E+01 0.  1.
</event>
<event>
11    1  0.8299058E-009  0.1746452E+03  0.7561462E-02  0.1074059E+00
         22   -1    0    0    0    0  0.00000000000E+00  0.00000000000E+00  0.83345649850E+03  0.83345649850E+03  0.00000000000E+00 0. -1.
         22   -1    0    0    0    0 -0.00000000000E+00 -0.00000000000E+00 -0.10759718398E+03  0.10759718398E+03  0.00000000000E+00 0.  1.
        -24    2    1    2    0    0  0.43708805337E+02  0.57386430035E+02  0.21034078878E+02  0.11049979403E+03  0.81019195194E+02 0.  0.
         25    2    1    2    0    0 -0.15817906636E+03 -0.67816152532E+02  0.15454016152E+03  0.26296480922E+03  0.12509269279E+03 0.  0.
         24    2    1    2    0    0  0.11447026102E+03  0.10429722497E+02  0.55028507412E+03  0.56758907922E+03  0.78303769287E+02 0.  0.
        -13    1    5    5    0    0 -0.38797852972E+01  0.14422157289E+02  0.24996476215E+02  0.29118296275E+02  0.00000000000E+00 0.  1.
         14    1    5    5    0    0  0.11835004632E+03 -0.39924347928E+01  0.52528859791E+03  0.53847078295E+03  0.00000000000E+00 0. -1.
         13    1    3    3    0    0 -0.20292082483E+02  0.30351480224E+02 -0.38247372519E+01  0.36709802210E+02  0.00000000000E+00 0. -1.
        -14    1    3    3    0    0  0.64000887821E+02  0.27034949811E+02  0.24858816130E+02  0.73789991818E+02  0.00000000000E+00 0.  1.
          5    1    4    4  501    0 -0.10980340836E+03 -0.10008831077E+03  0.13684606880E+03  0.20203657438E+03  0.41800000000E+01 0.  1.
         -5    1    4    4    0  501 -0.48375657999E+02  0.32272158239E+02  0.17694092721E+02  0.60928234846E+02  0.41800000000E+01 0.  1.
</event>
<event>
11    1  0.8299058E-009  0.3293945E+03  0.7561462E-02  0.9884651E-01
         22   -1    0    0    0    0  0.00000000000E+00  0.00000000000E+00  0.40982881366E+03  0.40982881366E+03  0.00000000000E+00 0.  1.
         22   -1    0    0    0    0 -0.00000000000E+00 -0.00000000000E+00 -0.67877362506E+03  0.67877362506E+03  0.00000000000E+00 0.  1.
        -24    2    1    2    0    0 -0.38456254115E+03 -0.72796174199E+02 -0.36949613142E+03  0.54416522822E+03  0.80004833848E+02 0.  0.
         25    2    1    2    0    0  0.18640479090E+03  0.11840845089E+03 -0.74508977021E+02  0.26450996862E+03  0.12508648421E+03 0.  0.
         24    2    1    2    0    0  0.19815775025E+03 -0.45612276695E+02  0.17506029703E+03  0.27992724188E+03  0.79788341113E+02 0.  0.
        -13    1    5    5    0    0  0.16866165540E+03 -0.66442796849E+02  0.15564662323E+03  0.23892942594E+03  0.00000000000E+00 0.  1.
         14    1    5    5    0    0  0.29496094847E+02  0.20830520153E+02  0.19413673801E+02  0.40997815936E+02  0.00000000000E+00 0. -1.
         13    1    3    3    0    0 -0.13080961557E+03 -0.54267785248E+02 -0.98862504705E+02  0.17271347046E+03  0.00000000000E+00 0. -1.
        -14    1    3    3    0    0 -0.25375292558E+03 -0.18528388951E+02 -0.27063362671E+03  0.37145175776E+03  0.00000000000E+00 0.  1.
          5    1    4    4  501    0 -0.11438764133E+02  0.17402808492E+02  0.13906926807E+02  0.25388542327E+02  0.41800000000E+01 0. -1.
         -5    1    4    4    0  501  0.19784355503E+03  0.10100564240E+03 -0.88415903828E+02  0.23912142630E+03  0.41800000000E+01 0. -1.
</event>
<event>
11    1  0.8299058E-009  0.1948040E+03  0.7561462E-02  0.1058260E+00
         22   -1    0    0    0    0  0.00000000000E+00  0.00000000000E+00  0.45759100176E+03  0.45759100176E+03  0.00000000000E+00 0.  1.
         22   -1    0    0    0    0 -0.00000000000E+00 -0.00000000000E+00 -0.44971917983E+03  0.44971917983E+03  0.00000000000E+00 0.  1.
         24    2    1    2    0    0 -0.11476036509E+03 -0.92443863032E+02 -0.28317240273E+03  0.32919079494E+03  0.80400003734E+02 0.  0.
         25    2    1    2    0    0  0.14610967975E+03  0.64853797440E+02 -0.62587136652E+02  0.21240426273E+03  0.12507744638E+03 0.  0.
        -24    2    1    2    0    0 -0.31349314661E+02  0.27590065592E+02  0.35363136131E+03  0.36571512391E+03  0.83357188689E+02 0.  0.
        -11    1    3    3    0    0 -0.43815282698E+02 -0.20467256353E+02 -0.17323629466E+03  0.17985967133E+03  0.00000000000E+00 0.  1.
         12    1    3    3    0    0 -0.70945082388E+02 -0.71976606679E+02 -0.10993610807E+03  0.14933112362E+03  0.00000000000E+00 0. -1.
         13    1    5    5    0    0 -0.17822554531E+02 -0.22189496390E+02  0.48338120838E+02  0.56094483919E+02  0.00000000000E+00 0. -1.
        -14    1    5    5    0    0 -0.13526760130E+02  0.49779561982E+02  0.30529324047E+03  0.30962063999E+03  0.00000000000E+00 0.  1.
          5    1    4    4  501    0 -0.15733257898E+02  0.30379338357E+02  0.24636514838E+01  0.34554038574E+02  0.41800000000E+01 0. -1.
         -5    1    4    4    0  501  0.16184293765E+03  0.34474459082E+02 -0.65050788136E+02  0.17785022415E+03  0.41800000000E+01 0. -1.
</event>
<event>
11    1  0.8299058E-009  0.1594312E+03  0.7561462E-02  0.1087613E+00
         22   -1    0    0    0    0  0.00000000000E+00  0.00000000000E+00  0.94481466061E+03  0.94481466061E+03  0.00000000000E+00 0. -1.
         22   -1    0    0    0    0 -0.00000000000E+00 -0.00000000000E+00 -0.12670840478E+03  0.12670840478E+03  0.00000000000E+00 0.  1.
         24    2    1    2    0    0 -0.35690254746E+02 -0.26540578405E+02 -0.81624929981E+02  0.12203659078E+03  0.79070245416E+02 0.  0.
         25    2    1    2    0    0  0.11209550291E+03  0.65254101423E+02  0.44904859017E+03  0.48385463579E+03  0.12508865941E+03 0.  0.
        -24    2    1    2    0    0 -0.76405248164E+02 -0.38713523018E+02  0.45068259564E+03  0.46563183882E+03  0.79760319039E+02 0.  0.
        -11    1    3    3    0    0 -0.31969366091E+02 -0.41463463255E+02 -0.90298600882E+02  0.10437957882E+03  0.00000000000E+00 0.  1.
         12    1    3    3    0    0 -0.37208886551E+01  0.14922884851E+02  0.86736709006E+01  0.17657011965E+02  0.00000000000E+00 0. -1.
         11    1    5    5    0    0 -0.35253399951E+02 -0.34627837990E+02  0.38400337919E+03  0.38716983948E+03  0.00000000000E+00 0. -1.
        -12    1    5    5    0    0 -0.41151848212E+02 -0.40856850278E+01  0.66679216450E+02  0.78461999336E+02  0.00000000000E+00 0.  1.
          5    1    4    4  501    0  0.78339114202E+02 -0.22180073666E+02  0.15398235296E+03  0.17423263157E+03  0.41800000000E+01 0.  1.
         -5    1    4    4    0  501  0.33756388708E+02  0.87434175089E+02  0.29506623722E+03  0.30962200422E+03  0.41800000000E+01 0.  1.
</event>
<event>
11    1  0.8299058E-009  0.1276044E+03  0.7561462E-02  0.1122248E+00
         22   -1    0    0    0    0  0.00000000000E+00  0.00000000000E+00  0.21070479600E+03  0.21070479600E+03  0.00000000000E+00 0.  1.
         22   -1    0    0    0    0 -0.00000000000E+00 -0.00000000000E+00 -0.55208847872E+03  0.55208847872E+03  0.00000000000E+00 0.  1.
        -24    2    1    2    0    0  0.13103623896E+02  0.21377619634E+02 -0.40345764895E+03  0.41236662429E+03  0.81482824896E+02 0.  0.
         25    2    1    2    0    0 -0.87157007094E+00 -0.31675624416E+02 -0.10332980520E+03  0.16527624911E+03  0.12504033373E+03 0.  0.
         24    2    1    2    0    0 -0.12232053825E+02  0.10298004782E+02  0.16540377143E+03  0.18515040131E+03  0.81649197530E+02 0.  0.
        -13    1    5    5    0    0 -0.24539422756E+02 -0.40010466492E+01  0.16438715249E+03  0.16625681203E+03  0.00000000000E+00 0.  1.
         14    1    5    5    0    0  0.12307368932E+02  0.14299051431E+02  0.10166189486E+01  0.18893589281E+02  0.00000000000E+00 0. -1.
         11    1    3    3    0    0  0.12588995625E+02 -0.38444019728E+01 -0.66308223049E+01  0.14738725923E+02  0.00000000000E+00 0. -1.
        -12    1    3    3    0    0  0.51462827045E+00  0.25222021607E+02 -0.39682682665E+03  0.39762789837E+03  0.00000000000E+00 0.  1.
          5    1    4    4  501    0 -0.48210048674E+01 -0.63998518081E+02 -0.11388465317E+03  0.13079082167E+03  0.41800000000E+01 0. -1.
         -5    1    4    4    0  501  0.39494347964E+01  0.32322893665E+02  0.10554847970E+02  0.34485427441E+02  0.41800000000E+01 0. -1.
</event>
<event>
11    1  0.8299058E-009  0.1296416E+03  0.7561462E-02  0.1119710E+00
         22   -1    0    0    0    0  0.00000000000E+00  0.00000000000E+00  0.84546642441E+03  0.84546642441E+03  0.00000000000E+00 0. -1.
         22   -1    0    0    0    0 -0.00000000000E+00 -0.00000000000E+00 -0.79256120432E+02  0.79256120432E+02  0.00000000000E+00 0.  1.
         24    2    1    2    0    0  0.27150334608E+02 -0.25349011842E+02 -0.29779894637E+02  0.94980070593E+02  0.82186730161E+02 0.  0.
         25    2    1    2    0    0 -0.81574722478E+00  0.79828941979E+01  0.28071823981E+03  0.30743294855E+03  0.12509154906E+03 0.  0.
        -24    2    1    2    0    0 -0.26334587384E+02  0.17366117644E+02  0.51527195880E+03  0.52230952570E+03  0.79416349551E+02 0.  0.
        -13    1    3    3    0    0  0.13985081803E+02 -0.30855384979E+02 -0.55814547051E+02  0.65290894907E+02  0.00000000000E+00 0.  1.
         14    1    3    3    0    0  0.13165252806E+02  0.55063731372E+01  0.26034652415E+02  0.29689175686E+02  0.00000000000E+00 0. -1.
         13    1    5    5    0    0 -0.18406326578E+02  0.17200918921E+02  0.51358448021E+03  0.51420198636E+03  0.00000000000E+00 0. -1.
        -14    1    5    5    0    0 -0.79282608051E+01  0.16519872285E+00  0.16874785866E+01  0.81075393303E+01  0.00000000000E+00 0.  1.
          5    1    4    4  501    0 -0.59915826119E+02  0.19931900293E+02  0.11883012961E+03  0.13463008197E+03  0.41800000000E+01 0.  1.
         -5    1    4    4    0  501  0.59100078894E+02 -0.11949006095E+02  0.16188811021E+03  0.17280286658E+03  0.41800000000E+01 0.  1.
</event>
<event>
11    1  0.8299058E-009  0.1388229E+03  0.7561462E-02  0.1108880E+00
         22   -1    0    0    0    0  0.00000000000E+00  0.00000000000E+00  0.62133112446E+03  0.62133112446E+03  0.00000000000E+00 0.  1.
         22   -1    0    0    0    0 -0.00000000000E+00 -0.00000000000E+00 -0.20811414041E+03  0.20811414041E+03  0.00000000000E+00 0. -1.
        -24    2    1    2    0    0 -0.57465198251E+01  0.13240875420E+02 -0.70568231739E+02  0.10693303154E+03  0.79034515442E+02 0.  0.
         25    2    1    2    0    0  0.31045716352E+02  0.41779012945E+02 -0.75022670143E+02  0.15487140849E+03  0.12508968665E+03 0.  0.
         24    2    1    2    0    0 -0.25299196527E+02 -0.55019888364E+02  0.55880788593E+03  0.56764082484E+03  0.79262949648E+02 0.  0.
        -13    1    5    5    0    0 -0.30744195075E+02 -0.11274285361E+02  0.43478390110E+03  0.43601531590E+03  0.00000000000E+00 0.  1.
         14    1    5    5    0    0  0.54449985481E+01 -0.43745603004E+02  0.12402398483E+03  0.13162550894E+03  0.00000000000E+00 0. -1.
         13    1    3    3    0    0 -0.39201377081E+02  0.90190445245E+01 -0.58750577447E+02  0.71201976654E+02  0.00000000000E+00 0. -1.
        -14    1    3    3    0    0  0.33454857256E+02  0.42218308951E+01 -0.11817654292E+02  0.35731054884E+02  0.00000000000E+00 0.  1.
          5    1    4    4  501    0 -0.24668082779E+02  0.63492410021E+02 -0.64716393268E+02  0.94050435384E+02  0.41800000000E+01 0.  1.
         -5    1    4    4    0  501  0.55713799132E+02 -0.21713397076E+02 -0.10306276875E+02  0.60820973104E+02  0.41800000000E+01 0.  1.
</event>
<event>
11    1  0.8299058E-009  0.1526719E+03  0.7561462E-02  0.1094180E+00
         22   -1    0    0    0    0  0.00000000000E+00  0.00000000000E+00  0.39637325655E+03  0.39637325655E+03  0.00000000000E+00 0. -1.
         22   -1    0    0    0    0 -0.00000000000E+00 -0.00000000000E+00 -0.66910840471E+03  0.66910840471E+03  0.00000000000E+00 0. -1.
        -24    2    1    2    0    0  0.21181541479E+02  0.68842012851E+01 -0.51059214433E+03  0.51705131983E+03  0.78368868557E+02 0.  0.
         25    2    1    2    0    0  0.64365682493E+02 -0.30686235909E+02 -0.10877082996E+03  0.18045431600E+03  0.12509228815E+03 0.  0.
         24    2    1    2    0    0 -0.85547223972E+02  0.23802034623E+02  0.34662782612E+03  0.36797602544E+03  0.85852437797E+02 0.  0.
        -11    1    5    5    0    0  0.45292893443E+01  0.14219000708E+01 -0.34079780732E+01  0.58438494439E+01  0.00000000000E+00 0.  1.
         12    1    5    5    0    0 -0.90076513316E+02  0.22380134553E+02  0.35003580419E+03  0.36213217600E+03  0.00000000000E+00 0. -1.
         13    1    3    3    0    0  0.48571348759E+02 -0.22488967245E+01 -0.39156668789E+03  0.39457407989E+03  0.00000000000E+00 0. -1.
        -14    1    3    3    0    0 -0.27389807280E+02  0.91330980096E+01 -0.11902545644E+03  0.12247723994E+03  0.00000000000E+00 0.  1.
          5    1    4    4  501    0  0.15200737211E+02  0.29204979398E+02 -0.96301273803E+02  0.10185971220E+03  0.41800000000E+01 0.  1.
         -5    1    4    4    0  501  0.49164945282E+02 -0.59891215307E+02 -0.12469556158E+02  0.78594603799E+02  0.41800000000E+01 0.  1.
</event>
<event>
11    1  0.8299058E-009  0.1682212E+03  0.7561462E-02  0.1079590E+00
         22   -1    0    0    0    0  0.00000000000E+00  0.00000000000E+00  0.33104214285E+03  0.33104214285E+03  0.00000000000E+00 0. -1.
         22   -1    0    0    0    0 -0.00000000000E+00 -0.00000000000E+00 -0.33657249507E+03  0.33657249507E+03  0.00000000000E+00 0. -1.
        -24    2    1    2    0    0 -0.90065804719E+02 -0.32332244689E+02 -0.23196708502E+03  0.26369825907E+03  0.81060595109E+02 0.  0.
         25    2    1    2    0    0 -0.55085888218E+02  0.34029453100E+02  0.33315388095E+02  0.14474285602E+03  0.12509244792E+03 0.  0.
         24    2    1    2    0    0  0.14515169294E+03 -0.16972084109E+01  0.19312134471E+03  0.25917352283E+03  0.93825192102E+02 0.  0.
        -13    1    5    5    0    0  0.45782149840E+02 -0.26923990307E+02  0.17687949965E+02  0.55980086388E+02  0.00000000000E+00 0.  1.
         14    1    5    5    0    0  0.99369543098E+02  0.25226781896E+02  0.17543339474E+03  0.20319343644E+03  0.00000000000E+00 0. -1.
         11    1    3    3    0    0 -0.32494422832E+02 -0.54005566699E+02 -0.13285652036E+03  0.14704878018E+03  0.00000000000E+00 0. -1.
        -12    1    3    3    0    0 -0.57571381887E+02  0.21673322010E+02 -0.99110564656E+02  0.11664947889E+03  0.00000000000E+00 0.  1.
          5    1    4    4  501    0 -0.69870554196E-01  0.56744496845E+02 -0.24234285790E+02  0.61844286816E+02  0.41800000000E+01 0. -1.
         -5    1    4    4    0  501 -0.55016017664E+02 -0.22715043745E+02  0.57549673884E+02  0.82898569204E+02  0.41800000000E+01 0. -1.
</event>
<event>
11    1  0.8299058E-009  0.1444299E+03  0.7561462E-02  0.1102710E+00
         22   -1    0    0    0    0  0.00000000000E+00  0.00000000000E+00  0.68348399975E+03  0.68348399975E+03  0.00000000000E+00 0. -1.
         22   -1    0    0    0    0 -0.00000000000E+00 -0.00000000000E+00 -0.55861065154E+03  0.55861065154E+03  0.00000000000E+00 0. -1.
        -24    2    1    2    0    0  0.18651813203E+02  0.66946125940E+02 -0.45138159572E+03  0.46333530691E+03  0.78131861336E+02 0.  0.
         25    2    1    2    0    0 -0.81724046848E+02 -0.30285135408E+02 -0.36244905231E+02  0.15670788870E+03  0.12509060702E+03 0.  0.
         24    2    1    2    0    0  0.63072233645E+02 -0.36660990532E+02  0.61249984916E+03  0.62205145569E+03  0.80435150414E+02 0.  0.
        -11    1    5    5    0    0  0.53343039682E+02 -0.10127818645E+02  0.16591502679E+03  0.17457333332E+03  0.00000000000E+00 0.  1.
         12    1    5    5    0    0  0.97291939628E+01 -0.26533171887E+02  0.44658482238E+03  0.44747812237E+03  0.00000000000E+00 0. -1.
         13    1    3    3    0    0 -0.18813529748E+01  0.69083123807E+02 -0.42080523698E+03  0.42644233485E+03  0.00000000000E+00 0. -1.
        -14    1    3    3    0    0  0.20533166178E+02 -0.21369978669E+01 -0.30576358744E+02  0.36892972057E+02  0.00000000000E+00 0.  1.
          5    1    4    4  501    0 -0.48838019234E+02 -0.32545156755E+02  0.41606645517E+02  0.72061950446E+02  0.41800000000E+01 0. -1.
         -5    1    4    4    0  501 -0.32886027614E+02  0.22600213475E+01 -0.77851550747E+02  0.84645938251E+02  0.41800000000E+01 0. -1.
</event>
<event>
11    1  0.8299058E-009  0.2652742E+03  0.7561462E-02  0.1016063E+00
         22   -1    0    0    0    0  0.00000000000E+00  0.00000000000E+00  0.21781511874E+03  0.21781511874E+03  0.00000000000E+00 0.  1.
         22   -1    0    0    0    0 -0.00000000000E+00 -0.00000000000E+00 -0.16134640819E+04  0.16134640819E+04  0.00000000000E+00 0.  1.
         24    2    1    2    0    0 -0.24986833296E+03  0.24568773619E+02 -0.12470788999E+04  0.12746532998E+04  0.80606722490E+02 0.  0.
         25    2    1    2    0    0  0.18766373235E+03  0.38727405922E+02 -0.29151401436E+03  0.37060042951E+03  0.12508704720E+03 0.  0.
        -24    2    1    2    0    0  0.62204600606E+02 -0.63296179541E+02  0.14294395114E+03  0.18602547126E+03  0.79351648444E+02 0.  0.
        -11    1    3    3    0    0 -0.18070973259E+03 -0.39475234225E+01 -0.72248061206E+03  0.74474816226E+03  0.00000000000E+00 0.  1.
         12    1    3    3    0    0 -0.69158600372E+02  0.28516297041E+02 -0.52459828786E+03  0.52990513757E+03  0.00000000000E+00 0. -1.
         11    1    5    5    0    0  0.26563578560E+02  0.74826437015E+01  0.66810150222E+01  0.28394535115E+02  0.00000000000E+00 0. -1.
        -12    1    5    5    0    0  0.35641022046E+02 -0.70778823242E+02  0.13626293612E+03  0.15763093615E+03  0.00000000000E+00 0.  1.
          5    1    4    4  501    0  0.13782307047E+03  0.75614136959E+02 -0.25172059265E+03  0.29680536657E+03  0.41800000000E+01 0. -1.
         -5    1    4    4    0  501  0.49840661879E+02 -0.36886731037E+02 -0.39793421710E+02  0.73795062942E+02  0.41800000000E+01 0. -1.
</event>
<event>
11    1  0.8299058E-009  0.1667756E+03  0.7561462E-02  0.1080872E+00
         22   -1    0    0    0    0  0.00000000000E+00  0.00000000000E+00  0.33428821063E+03  0.33428821063E+03  0.00000000000E+00 0. -1.
         22   -1    0    0    0    0 -0.00000000000E+00 -0.00000000000E+00 -0.45834273478E+03  0.45834273478E+03  0.00000000000E+00 0. -1.
        -24    2    1    2    0    0 -0.49270632188E+02  0.99925475033E+01 -0.19397286254E+03  0.21509288168E+03  0.78179473961E+02 0.  0.
         25    2    1    2    0    0 -0.48133068365E+02  0.47791368046E+02 -0.21674365242E+03  0.25927933889E+03  0.12508859893E+03 0.  0.
         24    2    1    2    0    0  0.97403700553E+02 -0.57783915549E+02  0.28666199081E+03  0.31825872483E+03  0.79290965323E+02 0.  0.
        -13    1    5    5    0    0  0.68029987201E+02  0.53447764264E+01  0.13004247352E+03  0.14685942500E+03  0.00000000000E+00 0.  1.
         14    1    5    5    0    0  0.29373713352E+02 -0.63128691975E+02  0.15661951729E+03  0.17139929983E+03  0.00000000000E+00 0. -1.
         13    1    3    3    0    0 -0.14264175753E+01 -0.19899401053E+02 -0.12212324377E+03  0.12374210075E+03  0.00000000000E+00 0. -1.
        -14    1    3    3    0    0 -0.47844214613E+02  0.29891948556E+02 -0.71849618771E+02  0.91350780938E+02  0.00000000000E+00 0.  1.
          5    1    4    4  501    0 -0.71171035070E+02 -0.85254636279E+01 -0.16250388463E+03  0.17765974413E+03  0.41800000000E+01 0.  1.
         -5    1    4    4    0  501  0.23037966705E+02  0.56316831673E+02 -0.54239767786E+02  0.81619594762E+02  0.41800000000E+01 0.  1.
</event>
<event>
11    1  0.8299058E-009  0.5190562E+03  0.7561462E-02  0.9351920E-01
         22   -1    0    0    0    0  0.00000000000E+00  0.00000000000E+00  0.18008810186E+04  0.18008810186E+04  0.00000000000E+00 0. -1.
         22   -1    0    0    0    0 -0.00000000000E+00 -0.00000000000E+00 -0.15224192464E+04  0.15224192464E+04  0.00000000000E+00 0. -1.
         24    2    1    2    0    0 -0.57429711550E+02 -0.29683282830E+02 -0.12826919927E+04  0.12870643292E+04  0.84003393924E+02 0.  0.
         25    2    1    2    0    0 -0.23726198162E+03 -0.39214944951E+03  0.10062320770E+03  0.48564072430E+03  0.12508974578E+03 0.  0.
        -24    2    1    2    0    0  0.29469169317E+03  0.42183273234E+03  0.14605305572E+04  0.15505952115E+04  0.80062183730E+02 0.  0.
        -13    1    3    3    0    0 -0.31807280722E+02 -0.47951864208E+02 -0.43511174726E+03  0.43890012189E+03  0.00000000000E+00 0.  1.
         14    1    3    3    0    0 -0.25622430828E+02  0.18268581378E+02 -0.84758024547E+03  0.84816420730E+03  0.00000000000E+00 0. -1.
         11    1    5    5    0    0  0.17647706621E+03  0.19007716655E+03  0.78239873601E+03  0.82427014155E+03  0.00000000000E+00 0. -1.
        -12    1    5    5    0    0  0.11821462695E+03  0.23175556579E+03  0.67813182122E+03  0.72632506996E+03  0.00000000000E+00 0.  1.
          5    1    4    4  501    0 -0.31843943056E+02 -0.16762214267E+03  0.40554577584E+02  0.17542338951E+03  0.41800000000E+01 0.  1.
         -5    1    4    4    0  501 -0.20541803856E+03 -0.22452730684E+03  0.60068630119E+02  0.31021733479E+03  0.41800000000E+01 0.  1.
</event>
<event>
11    1  0.8299058E-009  0.2011345E+03  0.7561462E-02  0.1053724E+00
         22   -1    0    0    0    0  0.00000000000E+00  0.00000000000E+00  0.25043980434E+04  0.25043980434E+04  0.00000000000E+00 0. -1.
         22   -1    0    0    0    0 -0.00000000000E+00 -0.00000000000E+00 -0.13103811550E+04  0.13103811550E+04  0.00000000000E+00 0.  1.
         24    2    1    2    0    0  0.44735295177E+02 -0.23416641884E+02 -0.12078668040E+04  0.12115515515E+04  0.79783207182E+02 0.  0.
         25    2    1    2    0    0  0.11271059690E+03  0.12366313371E+01 -0.24792141108E+02  0.17020092754E+03  0.12509395494E+03 0.  0.
        -24    2    1    2    0    0 -0.15744589208E+03  0.22180010547E+02  0.24266758335E+04  0.24330267193E+04  0.74714484361E+02 0.  0.
        -11    1    3    3    0    0  0.45389916830E+02 -0.48954458026E+02 -0.97631865784E+03  0.97859843917E+03  0.00000000000E+00 0.  1.
         12    1    3    3    0    0 -0.65462165361E+00  0.25537816142E+02 -0.23154814615E+03  0.23295311238E+03  0.00000000000E+00 0. -1.
         11    1    5    5    0    0 -0.12809483771E+03  0.15560924341E+02  0.14063430822E+04  0.14122504362E+04  0.00000000000E+00 0. -1.
        -12    1    5    5    0    0 -0.29351054373E+02  0.66190862068E+01  0.10203327513E+04  0.10207762831E+04  0.00000000000E+00 0.  1.
          5    1    4    4  501    0  0.47603506659E+01  0.48915936975E+02 -0.15716158504E+02  0.51767749292E+02  0.41800000000E+01 0. -1.
         -5    1    4    4    0  501  0.10795024624E+03 -0.47679305638E+02 -0.90759826046E+01  0.11843317824E+03  0.41800000000E+01 0. -1.
</event>
<event>
11    1  0.8299058E-009  0.1352575E+03  0.7561462E-02  0.1112973E+00
         22   -1    0    0    0    0  0.00000000000E+00  0.00000000000E+00  0.72788700702E+03  0.72788700702E+03  0.00000000000E+00 0.  1.
         22   -1    0    0    0    0 -0.00000000000E+00 -0.00000000000E+00 -0.19499199562E+03  0.19499199562E+03  0.00000000000E+00 0.  1.
         24    2    1    2    0    0  0.38247933407E+02 -0.32646649364E+02 -0.14979432263E+03  0.17736257355E+03  0.80563237780E+02 0.  0.
         25    2    1    2    0    0 -0.61679235150E+02  0.30139536519E+02  0.15227527001E+03  0.20868159982E+03  0.12509009768E+03 0.  0.
        -24    2    1    2    0    0  0.23431301743E+02  0.25071128455E+01  0.53041406402E+03  0.53683482927E+03  0.79355170522E+02 0.  0.
        -13    1    3    3    0    0  0.51861937885E+02 -0.12807561809E+02 -0.14255609511E+03  0.15223644272E+03  0.00000000000E+00 0.  1.
         14    1    3    3    0    0 -0.13614004477E+02 -0.19839087555E+02 -0.72382275206E+01  0.25126130832E+02  0.00000000000E+00 0. -1.
         13    1    5    5    0    0  0.32457735063E+02  0.30179904316E+02  0.18661927661E+03  0.19181002475E+03  0.00000000000E+00 0. -1.
        -14    1    5    5    0    0 -0.90264333201E+01 -0.27672791471E+02  0.34379478741E+03  0.34502480452E+03  0.00000000000E+00 0.  1.
          5    1    4    4  501    0 -0.23774365030E+02 -0.19592543126E+02 -0.11637888970E+02  0.33196400985E+02  0.41800000000E+01 0.  1.
         -5    1    4    4    0  501 -0.37904870120E+02  0.49732079644E+02  0.16391315898E+03  0.17548519884E+03  0.41800000000E+01 0.  1.
</event>
<event>
11    1  0.8299058E-009  0.1844566E+03  0.7561462E-02  0.1066094E+00
         22   -1    0    0    0    0  0.00000000000E+00  0.00000000000E+00  0.34818145796E+03  0.34818145796E+03  0.00000000000E+00 0. -1.
         22   -1    0    0    0    0 -0.00000000000E+00 -0.00000000000E+00 -0.57720055144E+03  0.57720055144E+03  0.00000000000E+00 0. -1.
        -24    2    1    2    0    0  0.28353619111E+02  0.33882100016E+02 -0.43072372699E+03  0.44016888267E+03  0.79207271514E+02 0.  0.
         25    2    1    2    0    0  0.74756995822E+02  0.64779726778E+02 -0.65107250474E+02  0.17225164175E+03  0.12508658040E+03 0.  0.
         24    2    1    2    0    0 -0.10311061493E+03 -0.98661826794E+02  0.26681188397E+03  0.31296148498E+03  0.79939693998E+02 0.  0.
        -11    1    5    5    0    0 -0.86758742352E+02 -0.56403940778E+02  0.11580885494E+03  0.15530671200E+03  0.00000000000E+00 0.  1.
         12    1    5    5    0    0 -0.16351872581E+02 -0.42257886016E+02  0.15100302904E+03  0.15765477299E+03  0.00000000000E+00 0. -1.
         11    1    3    3    0    0  0.14678783126E+02 -0.20639568153E+01 -0.35433447855E+03  0.35464439835E+03  0.00000000000E+00 0. -1.
        -12    1    3    3    0    0  0.13674835986E+02  0.35946056831E+02 -0.76389248437E+02  0.85524484317E+02  0.00000000000E+00 0.  1.
          5    1    4    4  501    0  0.10268603475E+03  0.17494238367E+02 -0.39062930695E+02  0.11132769225E+03  0.41800000000E+01 0.  1.
         -5    1    4    4    0  501 -0.27929038924E+02  0.47285488411E+02 -0.26044319779E+02  0.60923949496E+02  0.41800000000E+01 0.  1.
</event>
<event>
11    1  0.8299058E-009  0.1674947E+03  0.7561462E-02  0.1080233E+00
         22   -1    0    0    0    0  0.00000000000E+00  0.00000000000E+00  0.75579847926E+03  0.75579847926E+03  0.00000000000E+00 0.  1.
         22   -1    0    0    0    0 -0.00000000000E+00 -0.00000000000E+00 -0.53539661474E+03  0.53539661474E+03  0.00000000000E+00 0. -1.
        -24    2    1    2    0    0 -0.63496510811E+02 -0.65315926445E+02 -0.46504844082E+03  0.47790169498E+03  0.61822331122E+02 0.  0.
         25    2    1    2    0    0  0.78304497356E+02  0.16629890334E+03  0.16463505941E+03  0.27665184857E+03  0.12507846725E+03 0.  0.
         24    2    1    2    0    0 -0.14807986545E+02 -0.10098297690E+03  0.52081524593E+03  0.53664155045E+03  0.79490849667E+02 0.  0.
        -11    1    5    5    0    0 -0.17066802904E+02 -0.98959919046E+02  0.52322110237E+03  0.53277074179E+03  0.00000000000E+00 0.  1.
         12    1    5    5    0    0  0.22588163590E+01 -0.20230578504E+01 -0.24058564428E+01  0.38708086537E+01  0.00000000000E+00 0. -1.
         13    1    3    3    0    0 -0.22834265382E+02 -0.23957818564E+02 -0.31970081033E+03  0.32140937895E+03  0.00000000000E+00 0. -1.
        -14    1    3    3    0    0 -0.40662245428E+02 -0.41358107880E+02 -0.14534763049E+03  0.15649231604E+03  0.00000000000E+00 0.  1.
          5    1    4    4  501    0  0.42841459252E+02 -0.36499273170E+01  0.59903595542E+02  0.73855438250E+02  0.41800000000E+01 0.  1.
         -5    1    4    4    0  501  0.35463038104E+02  0.16994883066E+03  0.10473146387E+03  0.20279641032E+03  0.41800000000E+01 0.  1.
</event>
<event>
11    1  0.8299058E-009  0.1752198E+03  0.7561462E-02  0.1073576E+00
         22   -1    0    0    0    0  0.00000000000E+00  0.00000000000E+00  0.83501061986E+02  0.83501061986E+02  0.00000000000E+00 0.  1.
         22   -1    0    0    0    0 -0.00000000000E+00 -0.00000000000E+00 -0.32303185573E+04  0.32303185573E+04  0.00000000000E+00 0. -1.
        -24    2    1    2    0    0 -0.10667909316E+03  0.64276050796E+02 -0.23952427532E+04  0.23997127696E+04  0.76952522043E+02 0.  0.
         25    2    1    2    0    0  0.50559986416E+02 -0.12708678656E+03 -0.77343368529E+03  0.79533280033E+03  0.12508890516E+03 0.  0.
         24    2    1    2    0    0  0.56119106741E+02  0.62810735768E+02  0.21858943140E+02  0.11877404930E+03  0.80838844145E+02 0.  0.
        -11    1    5    5    0    0  0.49773437084E+02  0.74784600586E+02 -0.36293730786E+01  0.89907195891E+02  0.00000000000E+00 0.  1.
         12    1    5    5    0    0  0.63456696575E+01 -0.11973864819E+02  0.25488316218E+02  0.28866853409E+02  0.00000000000E+00 0. -1.
         13    1    3    3    0    0 -0.91262853545E+02  0.23570727766E+02 -0.19686414092E+04  0.19708966198E+04  0.00000000000E+00 0. -1.
        -14    1    3    3    0    0 -0.15416239612E+02  0.40705323029E+02 -0.42660134391E+03  0.42881614987E+03  0.00000000000E+00 0.  1.
          5    1    4    4  501    0  0.72682050622E+01 -0.75261589999E+02 -0.65149992072E+03  0.65588623467E+03  0.41800000000E+01 0. -1.
         -5    1    4    4    0  501  0.43291781353E+02 -0.51825196565E+02 -0.12193376457E+03  0.13944656566E+03  0.41800000000E+01 0. -1.
</event>
<event>
11    1  0.8299058E-009  0.1927826E+03  0.7561462E-02  0.1059748E+00
         22   -1    0    0    0    0  0.00000000000E+00  0.00000000000E+00  0.92329262135E+03  0.92329262135E+03  0.00000000000E+00 0. -1.
         22   -1    0    0    0    0 -0.00000000000E+00 -0.00000000000E+00 -0.46557452868E+03  0.46557452868E+03  0.00000000000E+00 0. -1.
        -24    2    1    2    0    0 -0.70505644364E+02 -0.13967775478E+03 -0.39072179616E+03  0.42860539990E+03  0.80982379337E+02 0.  0.
         25    2    1    2    0    0  0.10411418362E+03  0.29020613717E+02  0.88638105317E+02  0.18757694962E+03  0.12508572686E+03 0.  0.
         24    2    1    2    0    0 -0.33608539258E+02  0.11065714107E+03  0.75980178351E+03  0.77268480051E+03  0.79802969528E+02 0.  0.
        -13    1    5    5    0    0  0.34518172163E+01 -0.11039843489E+02  0.10537453788E+03  0.10600748285E+03  0.00000000000E+00 0.  1.
         14    1    5    5    0    0 -0.37060356474E+02  0.12169698455E+03  0.65442724562E+03  0.66667731766E+03  0.00000000000E+00 0. -1.
         11    1    3    3    0    0 -0.80696236734E+02 -0.13746328564E+03 -0.38503922515E+03  0.41672921955E+03  0.00000000000E+00 0. -1.
        -12    1    3    3    0    0  0.10190592370E+02 -0.22144691404E+01 -0.56825710042E+01  0.11876180348E+02  0.00000000000E+00 0.  1.
          5    1    4    4  501    0 -0.40697288579E+01  0.47329038879E+02  0.20321356569E+01  0.47730520524E+02  0.41800000000E+01 0.  1.
         -5    1    4    4    0  501  0.10818391248E+03 -0.18308425161E+02  0.86605969660E+02  0.13984642910E+03  0.41800000000E+01 0.  1.
</event>
<event>
11    1  0.8299058E-009  0.1613969E+03  0.7561462E-02  0.1085771E+00
         22   -1    0    0    0    0  0.00000000000E+00  0.00000000000E+00  0.52874971934E+03  0.52874971934E+03  0.00000000000E+00 0.  1.
         22   -1    0    0    0    0 -0.00000000000E+00 -0.00000000000E+00 -0.88311923373E+03  0.88311923373E+03  0.00000000000E+00 0.  1.
         24    2    1    2    0    0  0.71839069647E+02  0.72818522381E+02 -0.80114326269E+03  0.81161185271E+03  0.80124172232E+02 0.  0.
         25    2    1    2    0    0 -0.82125797481E+02 -0.54913605010E+02  0.15217061429E+02  0.16012364651E+03  0.12509145688E+03 0.  0.
        -24    2    1    2    0    0  0.10286727834E+02 -0.17904917372E+02  0.43155668688E+03  0.44013345385E+03  0.83963565706E+02 0.  0.
        -11    1    3    3    0    0  0.72555644296E+02  0.86722274658E+02 -0.75481105925E+03  0.76323312926E+03  0.00000000000E+00 0.  1.
         12    1    3    3    0    0 -0.71657464913E+00 -0.13903752276E+02 -0.46332203446E+02  0.48378723451E+02  0.00000000000E+00 0. -1.
         11    1    5    5    0    0  0.45674067502E+01  0.33526956024E+02  0.14089524908E+03  0.14490130848E+03  0.00000000000E+00 0. -1.
        -12    1    5    5    0    0  0.57193210839E+01 -0.51431873396E+02  0.29066143780E+03  0.29523214537E+03  0.00000000000E+00 0.  1.
          5    1    4    4  501    0 -0.31700155665E+02 -0.23712151202E+02  0.69194786567E+02  0.79828296186E+02  0.41800000000E+01 0. -1.
         -5    1    4    4    0  501 -0.50425641816E+02 -0.31201453808E+02 -0.53977725139E+02  0.80295350322E+02  0.41800000000E+01 0. -1.
</event>
<event>
11    1  0.8299058E-009  0.1799936E+03  0.7561462E-02  0.1069648E+00
         22   -1    0    0    0    0  0.00000000000E+00  0.00000000000E+00  0.11986665784E+04  0.11986665784E+04  0.00000000000E+00 0. -1.
         22   -1    0    0    0    0 -0.00000000000E+00 -0.00000000000E+00 -0.72176981481E+02  0.72176981481E+02  0.00000000000E+00 0. -1.
        -24    2    1    2    0    0  0.11001964966E+03 -0.10463249148E+03  0.93885348490E+02  0.19215231069E+03  0.71103939818E+02 0.  0.
         25    2    1    2    0    0 -0.93517295325E+02 -0.30556722905E+01  0.36040902811E+03  0.39280745807E+03  0.12509280521E+03 0.  0.
         24    2    1    2    0    0 -0.16502354334E+02  0.10768816377E+03  0.67219522034E+03  0.68588379114E+03  0.81982268734E+02 0.  0.
        -11    1    5    5    0    0  0.49221750284E+00  0.60601124202E+01  0.28938165930E+03  0.28944552507E+03  0.00000000000E+00 0.  1.
         12    1    5    5    0    0 -0.16994571837E+02  0.10162805135E+03  0.38281356104E+03  0.39643826607E+03  0.00000000000E+00 0. -1.
         11    1    3    3    0    0  0.65714503368E+02 -0.86997336272E+02  0.94769429949E+02  0.14445822000E+03  0.00000000000E+00 0. -1.
        -12    1    3    3    0    0  0.44305146292E+02 -0.17635155209E+02 -0.88408145880E+00  0.47694090695E+02  0.00000000000E+00 0.  1.
          5    1    4    4  501    0 -0.77378663599E+02 -0.53080143567E+02  0.29007178344E+03  0.30490010031E+03  0.41800000000E+01 0.  1.
         -5    1    4    4    0  501 -0.16138631726E+02  0.50024471277E+02  0.70337244670E+02  0.87907357760E+02  0.41800000000E+01 0.  1.
</event>
<event>
11    1  0.8299058E-009  0.1324967E+03  0.7561462E-02  0.1116239E+00
         22   -1    0    0    0    0  0.00000000000E+00  0.00000000000E+00  0.13365264092E+04  0.13365264092E+04  0.00000000000E+00 0. -1.
         22   -1    0    0    0    0 -0.00000000000E+00 -0.00000000000E+00 -0.36010848109E+03  0.36010848109E+03  0.00000000000E+00 0. -1.
         24    2    1    2    0    0 -0.18608506862E+02 -0.28792669820E+02 -0.33964858750E+03  0.35046195256E+03  0.79291379340E+02 0.  0.
         25    2    1    2    0    0 -0.56645981298E+01  0.60550106100E+02  0.41898273649E+03  0.44146682703E+03  0.12509205757E+03 0.  0.
        -24    2    1    2    0    0  0.24273104992E+02 -0.31757436280E+02  0.89708377912E+03  0.90470611070E+03  0.11016406670E+03 0.  0.
        -11    1    3    3    0    0 -0.48937230404E+00  0.12362497655E+02 -0.59165606827E+01  0.13714099454E+02  0.00000000000E+00 0.  1.
         12    1    3    3    0    0 -0.18119134558E+02 -0.41155167476E+02 -0.33373202682E+03  0.33674785311E+03  0.00000000000E+00 0. -1.
         11    1    5    5    0    0  0.64505827179E+02 -0.28223234683E+02  0.69963689640E+03  0.70317091771E+03  0.00000000000E+00 0. -1.
        -12    1    5    5    0    0 -0.40232722187E+02 -0.35342015973E+01  0.19744688272E+03  0.20153519298E+03  0.00000000000E+00 0.  1.
          5    1    4    4  501    0 -0.38976846803E+02  0.31444228092E+02  0.53910089028E+02  0.73700096106E+02  0.41800000000E+01 0. -1.
         -5    1    4    4    0  501  0.33312248673E+02  0.29105878008E+02  0.36507264746E+03  0.36776673092E+03  0.41800000000E+01 0. -1.
</event>
<event>
11    1  0.8299058E-009  0.1553832E+03  0.7561462E-02  0.1091502E+00
         22   -1    0    0    0    0  0.00000000000E+00  0.00000000000E+00  0.31913404829E+03  0.31913404829E+03  0.00000000000E+00 0.  1.
         22   -1    0    0    0    0 -0.00000000000E+00 -0.00000000000E+00 -0.89546772092E+03  0.89546772092E+03  0.00000000000E+00 0.  1.
        -24    2    1    2    0    0  0.18255153831E+02  0.79056883123E+02 -0.73095986463E+03  0.74018051592E+03  0.83556154981E+02 0.  0.
         25    2    1    2    0    0 -0.75524607200E+02 -0.14279098578E+03 -0.73686068250E+02  0.21718820248E+03  0.12509135354E+03 0.  0.
         24    2    1    2    0    0  0.57269453369E+02  0.63734102657E+02  0.22831226025E+03  0.25723305082E+03  0.81856753666E+02 0.  0.
        -11    1    5    5    0    0  0.72469462653E+02  0.43772802589E+02  0.20923327976E+03  0.22571319550E+03  0.00000000000E+00 0.  1.
         12    1    5    5    0    0 -0.15200009284E+02  0.19961300068E+02  0.19078980494E+02  0.31519855319E+02  0.00000000000E+00 0. -1.
         11    1    3    3    0    0  0.32287967453E+02  0.77393303165E+01 -0.10783686449E+03  0.11283261682E+03  0.00000000000E+00 0. -1.
        -12    1    3    3    0    0 -0.14032813623E+02  0.71317552806E+02 -0.62312300015E+03  0.62734789910E+03  0.00000000000E+00 0.  1.
          5    1    4    4  501    0 -0.43728935980E+02 -0.10826345572E+03 -0.10783392461E+03  0.15899315515E+03  0.41800000000E+01 0.  1.
         -5    1    4    4    0  501 -0.31795671220E+02 -0.34527530059E+02  0.34147856360E+02  0.58195047334E+02  0.41800000000E+01 0.  1.
</event>
<event>
11    1  0.8299058E-009  0.1829305E+03  0.7561462E-02  0.1067297E+00
         22   -1    0    0    0    0  0.00000000000E+00  0.00000000000E+00  0.19005065515E+04  0.19005065515E+04  0.00000000000E+00 0.  1.
         22   -1    0    0    0    0 -0.00000000000E+00 -0.00000000000E+00 -0.25398685282E+03  0.25398685282E+03  0.00000000000E+00 0. -1.
        -24    2    1    2    0    0 -0.11856672608E+03 -0.64488665052E+02 -0.21342957357E+03  0.26442611839E+03  0.78435532498E+02 0.  0.
         25    2    1    2    0    0  0.11785074675E+03 -0.88137706107E+01  0.56829253712E+03  0.59377158142E+03  0.12506719032E+03 0.  0.
         24    2    1    2    0    0  0.71597933626E+00  0.73302435663E+02  0.12916567351E+04  0.12962957045E+04  0.81435081228E+02 0.  0.
        -11    1    5    5    0    0  0.73662632623E+01 -0.14965149141E+02  0.37615478896E+03  0.37652442521E+03  0.00000000000E+00 0.  1.
         12    1    5    5    0    0 -0.66502839260E+01  0.88267584803E+02  0.91550194619E+03  0.91977127933E+03  0.00000000000E+00 0. -1.
         11    1    3    3    0    0 -0.27276912635E+02 -0.44384076653E+02 -0.34301538249E+02  0.62374447889E+02  0.00000000000E+00 0. -1.
        -12    1    3    3    0    0 -0.91289813446E+02 -0.20104588399E+02 -0.17912803532E+03  0.20205167050E+03  0.00000000000E+00 0.  1.
          5    1    4    4  501    0  0.99292095372E+02 -0.59380209015E+02  0.33983873570E+03  0.35901638975E+03  0.41800000000E+01 0.  1.
         -5    1    4    4    0  501  0.18558651373E+02  0.50566438404E+02  0.22845380142E+03  0.23475519167E+03  0.41800000000E+01 0.  1.
</event>
<event>
11    1  0.8299058E-009  0.1325591E+03  0.7561462E-02  0.1116164E+00
         22   -1    0    0    0    0  0.00000000000E+00  0.00000000000E+00  0.10265840990E+04  0.10265840990E+04  0.00000000000E+00 0. -1.
         22   -1    0    0    0    0 -0.00000000000E+00 -0.00000000000E+00 -0.11272651344E+03  0.11272651344E+03  0.00000000000E+00 0. -1.
         24    2    1    2    0    0 -0.50184440312E+02 -0.11156926772E+01 -0.33008309214E+02  0.10097473239E+03  0.81158026621E+02 0.  0.
         25    2    1    2    0    0  0.23543736454E+02  0.24332444430E+02  0.53675174018E+02  0.14027091340E+03  0.12509408244E+03 0.  0.
        -24    2    1    2    0    0  0.26640703858E+02 -0.23216751753E+02  0.89319072072E+03  0.89806496660E+03  0.86500150288E+02 0.  0.
        -11    1    3    3    0    0  0.86362329437E+01  0.14109390352E+02  0.15924046502E+02  0.22961591247E+02  0.00000000000E+00 0.  1.
         12    1    3    3    0    0 -0.58820673256E+02 -0.15225083029E+02 -0.48932355716E+02  0.78013141146E+02  0.00000000000E+00 0. -1.
         13    1    5    5    0    0 -0.20751401391E+02 -0.10832634136E+02  0.62496495338E+03  0.62540319760E+03  0.00000000000E+00 0. -1.
        -14    1    5    5    0    0  0.47392105249E+02 -0.12384117617E+02  0.26822576734E+03  0.27266176900E+03  0.00000000000E+00 0.  1.
          5    1    4    4  501    0  0.38891734214E+02  0.22140093426E+02  0.89975648786E+02  0.10057753478E+03  0.41800000000E+01 0. -1.
         -5    1    4    4    0  501 -0.15347997760E+02  0.21923510043E+01 -0.36300474768E+02  0.39693378624E+02  0.41800000000E+01 0. -1.
</event>
<event>
11    1  0.8299058E-009  0.1331667E+03  0.7561462E-02  0.1115438E+00
         22   -1    0    0    0    0  0.00000000000E+00  0.00000000000E+00  0.43472079486E+03  0.43472079486E+03  0.00000000000E+00 0. -1.
         22   -1    0    0    0    0 -0.00000000000E+00 -0.00000000000E+00 -0.50621745093E+03  0.50621745093E+03  0.00000000000E+00 0. -1.
        -24    2    1    2    0    0  0.44181291209E+02  0.96863113975E+01 -0.47045589437E+03  0.47948340711E+03  0.80807041978E+02 0.  0.
         25    2    1    2    0    0 -0.63146588384E+02 -0.27397805249E+02  0.20466346706E+03  0.24954603007E+03  0.12509178637E+03 0.  0.
         24    2    1    2    0    0  0.18965297175E+02  0.17711493852E+02  0.19429577123E+03  0.21190880860E+03  0.80505384481E+02 0.  0.
        -11    1    5    5    0    0 -0.19923165194E+02 -0.54801049142E+01  0.13859202083E+03  0.14012391765E+03  0.00000000000E+00 0.  1.
         12    1    5    5    0    0  0.38888462368E+02  0.23191598766E+02  0.55703750408E+02  0.71784890947E+02  0.00000000000E+00 0. -1.
         11    1    3    3    0    0  0.24774291248E+02 -0.27040481705E+02 -0.35297439670E+03  0.35487445370E+03  0.00000000000E+00 0. -1.
        -12    1    3    3    0    0  0.19406999961E+02  0.36726793103E+02 -0.11748149766E+03  0.12460895342E+03  0.00000000000E+00 0.  1.
          5    1    4    4  501    0 -0.84189558387E+01 -0.40439693201E+02  0.18530925573E+03  0.18990323921E+03  0.41800000000E+01 0. -1.
         -5    1    4    4    0  501 -0.54727632545E+02  0.13041887951E+02  0.19354211332E+02  0.59642790860E+02  0.41800000000E+01 0. -1.
</event>
<event>
11    1  0.8299058E-009  0.1527300E+03  0.7561462E-02  0.1094121E+00
         22   -1    0    0    0    0  0.00000000000E+00  0.00000000000E+00  0.12157944021E+04  0.12157944021E+04  0.00000000000E+00 0. -1.
         22   -1    0    0    0    0 -0.00000000000E+00 -0.00000000000E+00 -0.14228101454E+03  0.14228101454E+03  0.00000000000E+00 0. -1.
        -24    2    1    2    0    0  0.33004455291E+02 -0.92769434039E+02 -0.60785036053E+02  0.14047467498E+03  0.79642022466E+02 0.  0.
         25    2    1    2    0    0 -0.58136314570E+02  0.11346332858E+01  0.88215413868E+02  0.16373632126E+03  0.12508599119E+03 0.  0.
         24    2    1    2    0    0  0.25131859279E+02  0.91634800753E+02  0.10460830097E+04  0.10538644204E+04  0.85510269722E+02 0.  0.
        -11    1    5    5    0    0 -0.20640907129E+02  0.14654446357E+02  0.48663733954E+03  0.48729529044E+03  0.00000000000E+00 0.  1.
         12    1    5    5    0    0  0.45772766408E+02  0.76980354397E+02  0.55944567017E+03  0.56656912992E+03  0.00000000000E+00 0. -1.
         11    1    3    3    0    0 -0.22609217000E+02 -0.10675786119E+02 -0.24161846485E+02  0.34769870983E+02  0.00000000000E+00 0. -1.
        -12    1    3    3    0    0  0.55613672291E+02 -0.82093647920E+02 -0.36623189569E+02  0.10570480400E+03  0.00000000000E+00 0.  1.
          5    1    4    4  501    0 -0.33834512951E+02  0.11491931494E+02 -0.27301999500E+02  0.45163152379E+02  0.41800000000E+01 0. -1.
         -5    1    4    4    0  501 -0.24301801619E+02 -0.10357298208E+02  0.11551741337E+03  0.11857316888E+03  0.41800000000E+01 0. -1.
</event>
<event>
11    1  0.8871667E-009  0.1644923E+03  0.7561462E-02  0.1082927E+00
         22   -1    0    0    0    0  0.00000000000E+00  0.00000000000E+00  0.85435926346E+03  0.85435926346E+03  0.00000000000E+00 0. -1.
         22   -1    0    0    0    0 -0.00000000000E+00 -0.00000000000E+00 -0.66513133984E+03  0.66513133984E+03  0.00000000000E+00 0. -1.
         24    2    1    2    0    0  0.35061003856E+01  0.65777162945E+02 -0.56688116975E+03  0.57661749224E+03  0.82429022984E+02 0.  0.
         25    2    1    2    0    0 -0.10989997629E+03 -0.68277238824E+02  0.49951192737E+01  0.18003321862E+03  0.12508885825E+03 0.  0.
        -24    2    1    2    0    0  0.10639387591E+03  0.25000758790E+01  0.75111397410E+03  0.76283989245E+03  0.80166029068E+02 0.  0.
        -11    1    3    3    0    0 -0.26079358533E+02 -0.37162201370E+01 -0.22232550768E+03  0.22388071511E+03  0.00000000000E+00 0.  1.
         12    1    3    3    0    0  0.29585458918E+02  0.69493383082E+02 -0.34455566207E+03  0.35273677712E+03  0.00000000000E+00 0. -1.
         11    1    5    5    0    0  0.77470365397E+02 -0.30610792221E+02  0.58936176919E+03  0.59521926472E+03  0.00000000000E+00 0. -1.
        -12    1    5    5    0    0  0.28923510509E+02  0.33110868100E+02  0.16175220491E+03  0.16762062773E+03  0.00000000000E+00 0.  1.
          5    1    4    4  501    0 -0.85312307988E+02 -0.99059412097E+02  0.28637141215E+02  0.13389740579E+03  0.41800000000E+01 0. -1.
         -5    1    4    4    0  501 -0.24587668304E+02  0.30782173273E+02 -0.23642021941E+02  0.46135812830E+02  0.41800000000E+01 0. -1.
</event>
<event>
11    1  0.8299058E-009  0.1545706E+03  0.7561462E-02  0.1092298E+00
         22   -1    0    0    0    0  0.00000000000E+00  0.00000000000E+00  0.49290605051E+03  0.49290605051E+03  0.00000000000E+00 0.  1.
         22   -1    0    0    0    0 -0.00000000000E+00 -0.00000000000E+00 -0.45095036791E+03  0.45095036791E+03  0.00000000000E+00 0. -1.
        -24    2    1    2    0    0  0.32615600509E+02  0.87001540867E+02 -0.36224401054E+03  0.38257726807E+03  0.80694469194E+02 0.  0.
         25    2    1    2    0    0 -0.60853451116E+01 -0.77724524828E+02 -0.52240997137E+00  0.14741929423E+03  0.12511611492E+03 0.  0.
         24    2    1    2    0    0 -0.26530255397E+02 -0.92770160394E+01  0.40472210312E+03  0.41385985613E+03  0.81792923222E+02 0.  0.
        -13    1    5    5    0    0 -0.41097080802E+02 -0.23913183718E+02  0.37293782199E+03  0.37595668564E+03  0.00000000000E+00 0.  1.
         14    1    5    5    0    0  0.14566825405E+02  0.14636167679E+02  0.31784281122E+02  0.37903170490E+02  0.00000000000E+00 0. -1.
         13    1    3    3    0    0  0.43656532047E+02  0.82423768926E+02 -0.35790959964E+03  0.36986328824E+03  0.00000000000E+00 0. -1.
        -14    1    3    3    0    0 -0.11040931539E+02  0.45777719416E+01 -0.43344109048E+01  0.12713979829E+02  0.00000000000E+00 0.  1.
          5    1    4    4  501    0 -0.33146756391E+02 -0.18790749462E+02 -0.51940598353E+02  0.64553062529E+02  0.41800000000E+01 0.  1.
         -5    1    4    4    0  501  0.27061411280E+02 -0.58933775366E+02  0.51418188382E+02  0.82866231698E+02  0.41800000000E+01 0.  1.
</event>
<event>
11    1  0.8299058E-009  0.1468891E+03  0.7561462E-02  0.1100101E+00
         22   -1    0    0    0    0  0.00000000000E+00  0.00000000000E+00  0.30407876451E+03  0.30407876451E+03  0.00000000000E+00 0. -1.
         22   -1    0    0    0    0 -0.00000000000E+00 -0.00000000000E+00 -0.89636175273E+03  0.89636175273E+03  0.00000000000E+00 0.  1.
        -24    2    1    2    0    0 -0.34808780388E+02  0.70323572381E+02 -0.83559161910E+03  0.84313059171E+03  0.80615040394E+02 0.  0.
         25    2    1    2    0    0  0.40874015469E+02 -0.23385797517E+02  0.51158380699E+02  0.14311471524E+03  0.12508821342E+03 0.  0.
         24    2    1    2    0    0 -0.60652350809E+01 -0.46937774864E+02  0.19215025018E+03  0.21419521030E+03  0.81962965313E+02 0.  0.
        -11    1    5    5    0    0  0.37948480244E+02 -0.20082959752E+02  0.93366045039E+02  0.10276492977E+03  0.00000000000E+00 0.  1.
         12    1    5    5    0    0 -0.44013715325E+02 -0.26854815112E+02  0.98784205143E+02  0.11143028052E+03  0.00000000000E+00 0. -1.
         13    1    3    3    0    0 -0.11907752161E+02 -0.88181131179E+01 -0.31298800283E+02  0.34629013552E+02  0.00000000000E+00 0. -1.
        -14    1    3    3    0    0 -0.22901028227E+02  0.79141685499E+02 -0.80429281882E+03  0.80850157816E+03  0.00000000000E+00 0.  1.
          5    1    4    4  501    0  0.80280797545E+02 -0.40524734222E+02  0.40052190017E+02  0.98533805689E+02  0.41800000000E+01 0.  1.
         -5    1    4    4    0  501 -0.39406782076E+02  0.17138936706E+02  0.11106190682E+02  0.44580909552E+02  0.41800000000E+01 0.  1.
</event>
<event>
11    1  0.8299058E-009  0.1255276E+03  0.7561462E-02  0.1124889E+00
         22   -1    0    0    0    0  0.00000000000E+00  0.00000000000E+00  0.31362817045E+04  0.31362817045E+04  0.00000000000E+00 0.  1.
         22   -1    0    0    0    0 -0.00000000000E+00 -0.00000000000E+00 -0.11903177575E+04  0.11903177575E+04  0.00000000000E+00 0.  1.
        -24    2    1    2    0    0  0.12270103116E+02  0.22516294265E+02 -0.11830153687E+04  0.11862342464E+04  0.83479254317E+02 0.  0.
         25    2    1    2    0    0 -0.34145457408E+01 -0.11497139545E+02  0.80646662730E+03  0.81619813915E+03  0.12508852097E+03 0.  0.
         24    2    1    2    0    0 -0.88555573753E+01 -0.11019154720E+02  0.23225126884E+04  0.23241670764E+04  0.86530738245E+02 0.  0.
        -13    1    5    5    0    0 -0.26826311631E+02  0.13895061470E+02  0.19921900796E+04  0.19924191419E+04  0.00000000000E+00 0.  1.
         14    1    5    5    0    0  0.17970754256E+02 -0.24914216190E+02  0.33032260884E+03  0.33174793457E+03  0.00000000000E+00 0. -1.
         11    1    3    3    0    0  0.22441087334E+02  0.36339127919E+02 -0.29725340881E+03  0.30030605000E+03  0.00000000000E+00 0. -1.
        -12    1    3    3    0    0 -0.10170984218E+02 -0.13822833654E+02 -0.88576195985E+03  0.88592819640E+03  0.00000000000E+00 0.  1.
          5    1    4    4  501    0 -0.49012373807E+02 -0.43996051319E+02  0.33835690460E+03  0.34473284237E+03  0.41800000000E+01 0.  1.
         -5    1    4    4    0  501  0.45597828066E+02  0.32498911774E+02  0.46810972269E+03  0.47146529678E+03  0.41800000000E+01 0.  1.
</event>
<event>
11    1  0.8299058E-009  0.1599850E+03  0.7561462E-02  0.1087091E+00
         22   -1    0    0    0    0  0.00000000000E+00  0.00000000000E+00  0.75892840477E+03  0.75892840477E+03  0.00000000000E+00 0. -1.
         22   -1    0    0    0    0 -0.00000000000E+00 -0.00000000000E+00 -0.55419633171E+03  0.55419633171E+03  0.00000000000E+00 0. -1.
         24    2    1    2    0    0 -0.98844426146E+01  0.19255454311E+02 -0.46962182087E+03  0.47718908214E+03  0.81830866698E+02 0.  0.
         25    2    1    2    0    0 -0.85230946683E+02 -0.50076647074E+02  0.10345806406E+02  0.15977122032E+03  0.12509125580E+03 0.  0.
        -24    2    1    2    0    0  0.95115389298E+02  0.30821192763E+02  0.66400808753E+03  0.67616443402E+03  0.79339260951E+02 0.  0.
        -11    1    3    3    0    0 -0.33598223127E+02  0.34479484468E+01 -0.84292064941E+02  0.90806834312E+02  0.00000000000E+00 0.  1.
         12    1    3    3    0    0  0.23713780513E+02  0.15807505864E+02 -0.38532975593E+03  0.38638224783E+03  0.00000000000E+00 0. -1.
         11    1    5    5    0    0  0.43367803913E+02 -0.24103324108E+02  0.20013936037E+03  0.20619772118E+03  0.00000000000E+00 0. -1.
        -12    1    5    5    0    0  0.51747585385E+02  0.54924516871E+02  0.46386872716E+03  0.46996671284E+03  0.00000000000E+00 0.  1.
          5    1    4    4  501    0  0.12586016385E+02 -0.58339083492E+01  0.44687557897E+02  0.46977574713E+02  0.41800000000E+01 0. -1.
         -5    1    4    4    0  501 -0.97816963069E+02 -0.44242738725E+02 -0.34341751491E+02  0.11279364561E+03  0.41800000000E+01 0. -1.
</event>
<event>
11    1  0.8299058E-009  0.1412156E+03  0.7561462E-02  0.1106209E+00
         22   -1    0    0    0    0  0.00000000000E+00  0.00000000000E+00  0.22350272896E+03  0.22350272896E+03  0.00000000000E+00 0.  1.
         22   -1    0    0    0    0 -0.00000000000E+00 -0.00000000000E+00 -0.88234459788E+03  0.88234459788E+03  0.00000000000E+00 0. -1.
        -24    2    1    2    0    0  0.67894107797E+02 -0.12177835293E+02 -0.75112445663E+03  0.75868414032E+03  0.81582877357E+02 0.  0.
         25    2    1    2    0    0 -0.34570463284E+02 -0.38597933474E+02 -0.72933624799E+02  0.15379789364E+03  0.12509820567E+03 0.  0.
         24    2    1    2    0    0 -0.33323644512E+02  0.50775768768E+02  0.16521621251E+03  0.19336529289E+03  0.80031841416E+02 0.  0.
        -11    1    5    5    0    0 -0.24617402687E+02  0.62128639161E+02  0.68874512162E+02  0.95967091987E+02  0.00000000000E+00 0.  1.
         12    1    5    5    0    0 -0.87062418251E+01 -0.11352870393E+02  0.96341700347E+02  0.97398200900E+02  0.00000000000E+00 0. -1.
         13    1    3    3    0    0  0.49226655979E+02 -0.12542275143E+01 -0.71416934715E+03  0.71586499646E+03  0.00000000000E+00 0. -1.
        -14    1    3    3    0    0  0.18667451818E+02 -0.10923607779E+02 -0.36955109479E+02  0.42819143860E+02  0.00000000000E+00 0.  1.
          5    1    4    4  501    0  0.39678863928E+02 -0.45299430778E+02 -0.38287538846E+02  0.71483275683E+02  0.41800000000E+01 0.  1.
         -5    1    4    4    0  501 -0.74249327213E+02  0.67014973040E+01 -0.34646085953E+02  0.82314617958E+02  0.41800000000E+01 0.  1.
</event>
<event>
11    1  0.8299058E-009  0.1507623E+03  0.7561462E-02  0.1096102E+00
         22   -1    0    0    0    0  0.00000000000E+00  0.00000000000E+00  0.50195515218E+03  0.50195515218E+03  0.00000000000E+00 0.  1.
         22   -1    0    0    0    0 -0.00000000000E+00 -0.00000000000E+00 -0.16188051206E+03  0.16188051206E+03  0.00000000000E+00 0. -1.
         24    2    1    2    0    0  0.36858291897E+02 -0.76072833885E+02 -0.10206478463E+03  0.15479334070E+03  0.79988426199E+02 0.  0.
         25    2    1    2    0    0 -0.65590392347E+02  0.57303317865E+02  0.19941580161E+03  0.25099890952E+03  0.12509204947E+03 0.  0.
        -24    2    1    2    0    0  0.28732100450E+02  0.18769516020E+02  0.24272362313E+03  0.25804341402E+03  0.80584229029E+02 0.  0.
        -13    1    3    3    0    0 -0.22887645739E+02 -0.15195698861E+02 -0.43056408819E+02  0.51074533103E+02  0.00000000000E+00 0.  1.
         14    1    3    3    0    0  0.59745937637E+02 -0.60877135024E+02 -0.59008375811E+02  0.10371880759E+03  0.00000000000E+00 0. -1.
         13    1    5    5    0    0  0.39533786176E+01 -0.23302218339E+01 -0.58011321604E+01  0.73967743396E+01  0.00000000000E+00 0. -1.
        -14    1    5    5    0    0  0.24778721832E+02  0.21099737854E+02  0.24852475529E+03  0.25064663968E+03  0.00000000000E+00 0.  1.
          5    1    4    4  501    0 -0.96384646113E+02  0.36755382005E+02  0.18336916962E+03  0.21043450972E+03  0.41800000000E+01 0. -1.
         -5    1    4    4    0  501  0.30794253766E+02  0.20547935860E+02  0.16046631995E+02  0.40564399804E+02  0.41800000000E+01 0. -1.
</event>
<event>
11    1  0.8299058E-009  0.1287929E+03  0.7561462E-02  0.1120761E+00
         22   -1    0    0    0    0  0.00000000000E+00  0.00000000000E+00  0.26300864064E+04  0.26300864064E+04  0.00000000000E+00 0.  1.
         22   -1    0    0    0    0 -0.00000000000E+00 -0.00000000000E+00 -0.95140958311E+02  0.95140958311E+02  0.00000000000E+00 0. -1.
        -24    2    1    2    0    0 -0.27712193470E+02 -0.11415702269E+02 -0.61311725453E+02  0.10596722529E+03  0.81065660012E+02 0.  0.
         25    2    1    2    0    0  0.44115268327E+02  0.64441877727E+01  0.39967949026E+03  0.42116372427E+03  0.12508998063E+03 0.  0.
         24    2    1    2    0    0 -0.16403074857E+02  0.49715144964E+01  0.21965776832E+04  0.21980964151E+04  0.79878374797E+02 0.  0.
        -13    1    5    5    0    0 -0.19442957953E+02  0.33070527479E+02  0.18401812505E+04  0.18405810830E+04  0.00000000000E+00 0.  1.
         14    1    5    5    0    0  0.30398830960E+01 -0.28099012982E+02  0.35639643274E+03  0.35751533211E+03  0.00000000000E+00 0. -1.
         11    1    3    3    0    0 -0.48556140714E+02 -0.52662123090E+01 -0.94643028177E+01  0.49749420308E+02  0.00000000000E+00 0. -1.
        -12    1    3    3    0    0  0.20843947244E+02 -0.61494899601E+01 -0.51847422636E+02  0.56217804986E+02  0.00000000000E+00 0.  1.
          5    1    4    4  501    0  0.38671568643E+02 -0.51823426553E+02  0.28586810026E+03  0.29311977229E+03  0.41800000000E+01 0.  1.
         -5    1    4    4    0  501  0.54436996838E+01  0.58267614326E+02  0.11381138999E+03  0.12804395198E+03  0.41800000000E+01 0.  1.
</event>
<event>
11    1  0.8299058E-009  0.1927918E+03  0.7561462E-02  0.1059741E+00
         22   -1    0    0    0    0  0.00000000000E+00  0.00000000000E+00  0.34484875431E+03  0.34484875431E+03  0.00000000000E+00 0.  1.
         22   -1    0    0    0    0 -0.00000000000E+00 -0.00000000000E+00 -0.11337483730E+04  0.11337483730E+04  0.00000000000E+00 0.  1.
        -24    2    1    2    0    0 -0.26802380004E+02 -0.84387656139E+01 -0.10079461220E+04  0.10116426039E+04  0.81705525180E+02 0.  0.
         25    2    1    2    0    0  0.95356568462E+02 -0.11974127915E+03  0.72809713118E+01  0.19781468493E+03  0.12508712143E+03 0.  0.
         24    2    1    2    0    0 -0.68554188458E+02  0.12818004476E+03  0.21176553200E+03  0.26913983849E+03  0.80385393488E+02 0.  0.
        -13    1    5    5    0    0 -0.38576009288E+02  0.76216871830E+02  0.55795807008E+02  0.10203083908E+03  0.00000000000E+00 0.  1.
         14    1    5    5    0    0 -0.29978179170E+02  0.51963172934E+02  0.15596972499E+03  0.16710899940E+03  0.00000000000E+00 0. -1.
         11    1    3    3    0    0  0.16227005034E+02  0.14519546572E+02 -0.97977315881E+02  0.10036776052E+03  0.00000000000E+00 0. -1.
        -12    1    3    3    0    0 -0.43029385038E+02 -0.22958312186E+02 -0.90996880610E+03  0.91127484336E+03  0.00000000000E+00 0.  1.
          5    1    4    4  501    0 -0.10019182880E+02 -0.50462687525E+02  0.42445355360E+02  0.66827744608E+02  0.41800000000E+01 0. -1.
         -5    1    4    4    0  501  0.10537575134E+03 -0.69278591625E+02 -0.35164384048E+02  0.13098694032E+03  0.41800000000E+01 0. -1.
</event>
<event>
11    1  0.8299058E-009  0.2405713E+03  0.7561462E-02  0.1029045E+00
         22   -1    0    0    0    0  0.00000000000E+00  0.00000000000E+00  0.11189571788E+04  0.11189571788E+04  0.00000000000E+00 0. -1.
         22   -1    0    0    0    0 -0.00000000000E+00 -0.00000000000E+00 -0.46176656923E+03  0.46176656923E+03  0.00000000000E+00 0. -1.
         24    2    1    2    0    0  0.19816726556E+02 -0.67301413826E+02 -0.13970458696E+03  0.17581641986E+03  0.80447864623E+02 0.  0.
         25    2    1    2    0    0  0.62386125762E+02 -0.12393664203E+03 -0.26253172860E+03  0.32221556131E+03  0.12509052522E+03 0.  0.
        -24    2    1    2    0    0 -0.82202852318E+02  0.19123805586E+03  0.10594269252E+04  0.10826917669E+04  0.80664424821E+02 0.  0.
        -11    1    3    3    0    0  0.18912700115E+02 -0.85280277619E+02 -0.10389883167E+03  0.13574013113E+03  0.00000000000E+00 0.  1.
         12    1    3    3    0    0  0.90402644084E+00  0.17978863793E+02 -0.35805755286E+02  0.40076288734E+02  0.00000000000E+00 0. -1.
         11    1    5    5    0    0 -0.83169718985E+02  0.18425942710E+03  0.10553783742E+04  0.10745660758E+04  0.00000000000E+00 0. -1.
        -12    1    5    5    0    0  0.96686666685E+00  0.69786287553E+01  0.40485509812E+01  0.81256910785E+01  0.00000000000E+00 0.  1.
          5    1    4    4  501    0 -0.35426483558E+02 -0.11022798262E+02 -0.50113735345E+02  0.62493173139E+02  0.41800000000E+01 0.  1.
         -5    1    4    4    0  501  0.97812609319E+02 -0.11291384377E+03 -0.21241799325E+03  0.25972238817E+03  0.41800000000E+01 0.  1.
</event>
<event>
11    1  0.8299058E-009  0.1266599E+03  0.7561462E-02  0.1123442E+00
         22   -1    0    0    0    0  0.00000000000E+00  0.00000000000E+00  0.14872394721E+04  0.14872394721E+04  0.00000000000E+00 0.  1.
         22   -1    0    0    0    0 -0.00000000000E+00 -0.00000000000E+00 -0.60253724486E+03  0.60253724486E+03  0.00000000000E+00 0.  1.
        -24    2    1    2    0    0 -0.21354179466E+02  0.12233127311E+02 -0.55937546652E+03  0.56564795694E+03  0.80318417943E+02 0.  0.
         25    2    1    2    0    0  0.35983182389E+02  0.82224756731E+00  0.70867510872E+02  0.14820565956E+03  0.12508896004E+03 0.  0.
         24    2    1    2    0    0 -0.14629002924E+02 -0.13055374879E+02  0.13732101829E+04  0.13759231005E+04  0.84105418458E+02 0.  0.
        -13    1    5    5    0    0 -0.48903160386E+02 -0.28815207874E+01  0.65878184114E+03  0.66060073908E+03  0.00000000000E+00 0.  1.
         14    1    5    5    0    0  0.34274157463E+02 -0.10173854091E+02  0.71442834178E+03  0.71532236139E+03  0.00000000000E+00 0. -1.
         11    1    3    3    0    0 -0.15826622559E+02  0.33712661673E+02 -0.11849300101E+03  0.12420795799E+03  0.00000000000E+00 0. -1.
        -12    1    3    3    0    0 -0.55275569067E+01 -0.21479534362E+02 -0.44088246551E+03  0.44143999895E+03  0.00000000000E+00 0.  1.
          5    1    4    4  501    0 -0.37026612313E+02 -0.32384760803E+02  0.20862271551E+02  0.53595237903E+02  0.41800000000E+01 0.  1.
         -5    1    4    4    0  501  0.73009794702E+02  0.33207008371E+02  0.50005239321E+02  0.94610421661E+02  0.41800000000E+01 0.  1.
</event>
<event>
11    1  0.8299058E-009  0.1252771E+03  0.7561462E-02  0.1125212E+00
         22   -1    0    0    0    0  0.00000000000E+00  0.00000000000E+00  0.23870196657E+03  0.23870196657E+03  0.00000000000E+00 0.  1.
         22   -1    0    0    0    0 -0.00000000000E+00 -0.00000000000E+00 -0.37336551598E+03  0.37336551598E+03  0.00000000000E+00 0. -1.
         24    2    1    2    0    0 -0.23849894309E+01  0.59739458959E+01 -0.28280572181E+03  0.29372858532E+03  0.79095065220E+02 0.  0.
         25    2    1    2    0    0  0.31941634543E+01 -0.92112629923E+01 -0.31708175240E+02  0.12941806576E+03  0.12509427374E+03 0.  0.
        -24    2    1    2    0    0 -0.80917402342E+00  0.32373170964E+01  0.17985034765E+03  0.18892083146E+03  0.57739051157E+02 0.  0.
        -13    1    3    3    0    0  0.17909643193E+02 -0.31177237654E+02 -0.10625513772E+03  0.11217365894E+03  0.00000000000E+00 0.  1.
         14    1    3    3    0    0 -0.20294632624E+02  0.37151183550E+02 -0.17655058409E+03  0.18155492638E+03  0.00000000000E+00 0. -1.
         11    1    5    5    0    0 -0.26868525046E+02  0.12409347813E+02  0.10666634326E+03  0.11069606287E+03  0.00000000000E+00 0. -1.
        -12    1    5    5    0    0  0.26059351023E+02 -0.91720307170E+01  0.73184004387E+02  0.78224768593E+02  0.00000000000E+00 0.  1.
          5    1    4    4  501    0 -0.54332693676E+02 -0.29750230875E+02 -0.27920953101E+02  0.68074737321E+02  0.41800000000E+01 0. -1.
         -5    1    4    4    0  501  0.57526857131E+02  0.20538967883E+02 -0.37872221387E+01  0.61343328444E+02  0.41800000000E+01 0. -1.
</event>
<event>
11    1  0.8299058E-009  0.1414473E+03  0.7561462E-02  0.1105953E+00
         22   -1    0    0    0    0  0.00000000000E+00  0.00000000000E+00  0.36880717459E+03  0.36880717459E+03  0.00000000000E+00 0. -1.
         22   -1    0    0    0    0 -0.00000000000E+00 -0.00000000000E+00 -0.67161940767E+03  0.67161940767E+03  0.00000000000E+00 0. -1.
        -24    2    1    2    0    0  0.74398856064E+02  0.10952025515E+02 -0.59233187586E+03  0.60247518266E+03  0.80399987070E+02 0.  0.
         25    2    1    2    0    0  0.10306683690E+01 -0.19194392242E+02 -0.16696699725E+01  0.12656915342E+03  0.12508987101E+03 0.  0.
         24    2    1    2    0    0 -0.75429524433E+02  0.82423667275E+01  0.29118931276E+03  0.31138224618E+03  0.80063334979E+02 0.  0.
        -13    1    5    5    0    0 -0.29155443571E+02  0.95982430148E+01  0.20846820251E+02  0.37104663769E+02  0.00000000000E+00 0.  1.
         14    1    5    5    0    0 -0.46274080862E+02 -0.13558762873E+01  0.27034249251E+03  0.27427758241E+03  0.00000000000E+00 0. -1.
         13    1    3    3    0    0  0.11148779306E+02 -0.29566080243E+02 -0.25066409489E+03  0.25264785146E+03  0.00000000000E+00 0. -1.
        -14    1    3    3    0    0  0.63250076758E+02  0.40518105758E+02 -0.34166778097E+03  0.34982733120E+03  0.00000000000E+00 0.  1.
          5    1    4    4  501    0  0.55920284780E+01 -0.67819619405E+02 -0.24564923254E+02  0.72468471856E+02  0.41800000000E+01 0. -1.
         -5    1    4    4    0  501 -0.45613601090E+01  0.48625227162E+02  0.22895253282E+02  0.54100681562E+02  0.41800000000E+01 0. -1.
</event>
<event>
11    1  0.8299058E-009  0.2695787E+03  0.7561462E-02  0.1013957E+00
         22   -1    0    0    0    0  0.00000000000E+00  0.00000000000E+00  0.16493895480E+03  0.16493895480E+03  0.00000000000E+00 0. -1.
         22   -1    0    0    0    0 -0.00000000000E+00 -0.00000000000E+00 -0.23783492502E+04  0.23783492502E+04  0.00000000000E+00 0. -1.
         24    2    1    2    0    0  0.20967325273E+02  0.10756854704E+03 -0.10286270829E+04  0.10376434758E+04  0.81361454277E+02 0.  0.
         25    2    1    2    0    0  0.10435351170E+03 -0.30317169680E+03 -0.12123533905E+04  0.12602579477E+04  0.12508644273E+03 0.  0.
        -24    2    1    2    0    0 -0.12532083698E+03  0.19560314975E+03  0.27570177959E+02  0.24538678150E+03  0.74085446931E+02 0.  0.
        -13    1    3    3    0    0  0.11880679639E+02  0.12253174333E+02 -0.30631077788E+02  0.35064993318E+02  0.00000000000E+00 0.  1.
         14    1    3    3    0    0  0.90866456344E+01  0.95315372712E+02 -0.99799600506E+03  0.10025784825E+04  0.00000000000E+00 0. -1.
         11    1    5    5    0    0 -0.12116186387E+03  0.20196629217E+03  0.29956200527E+02  0.23741936395E+03  0.00000000000E+00 0. -1.
        -12    1    5    5    0    0 -0.41589731118E+01 -0.63631424140E+01 -0.23860225678E+01  0.79674175502E+01  0.00000000000E+00 0.  1.
          5    1    4    4  501    0  0.79646653278E+02 -0.21531716213E+03 -0.10415230369E+04  0.10665330649E+04  0.41800000000E+01 0. -1.
         -5    1    4    4    0  501  0.24706858427E+02 -0.87854534662E+02 -0.17083035357E+03  0.19372488280E+03  0.41800000000E+01 0. -1.
</event>
<event>
11    1  0.8299058E-009  0.2056497E+03  0.7561462E-02  0.1050599E+00
         22   -1    0    0    0    0  0.00000000000E+00  0.00000000000E+00  0.32570638919E+03  0.32570638919E+03  0.00000000000E+00 0. -1.
         22   -1    0    0    0    0 -0.00000000000E+00 -0.00000000000E+00 -0.20431900037E+04  0.20431900037E+04  0.00000000000E+00 0.  1.
        -24    2    1    2    0    0 -0.54052225011E+01 -0.12977135375E+03 -0.18972639697E+04  0.19033659771E+04  0.79508813033E+02 0.  0.
         25    2    1    2    0    0 -0.15193476343E+03  0.13844697718E+03  0.48907116102E+02  0.24554404290E+03  0.12509289816E+03 0.  0.
         24    2    1    2    0    0  0.15733998593E+03 -0.86756234342E+01  0.13087323913E+03  0.21998637286E+03  0.80218837607E+02 0.  0.
        -13    1    5    5    0    0  0.13523490458E+03 -0.24671301331E+02  0.72188539857E+02  0.15526859893E+03  0.00000000000E+00 0.  1.
         14    1    5    5    0    0  0.22105081345E+02  0.15995677897E+02  0.58684699277E+02  0.64717773926E+02  0.00000000000E+00 0. -1.
         11    1    3    3    0    0 -0.81337406410E+01 -0.60876156709E+02 -0.41715733991E+03  0.42165425461E+03  0.00000000000E+00 0. -1.
        -12    1    3    3    0    0  0.27285181399E+01 -0.68895197037E+02 -0.14801066298E+04  0.14817117225E+04  0.00000000000E+00 0.  1.
          5    1    4    4  501    0 -0.13344372583E+02  0.27876938688E+02 -0.37082096822E+02  0.48453589082E+02  0.41800000000E+01 0.  1.
         -5    1    4    4    0  501 -0.13859039084E+03  0.11057003849E+03  0.85989212924E+02  0.19709045382E+03  0.41800000000E+01 0.  1.
</event>
<event>
11    1  0.8299058E-009  0.1638133E+03  0.7561462E-02  0.1083545E+00
         22   -1    0    0    0    0  0.00000000000E+00  0.00000000000E+00  0.32299881439E+03  0.32299881439E+03  0.00000000000E+00 0. -1.
         22   -1    0    0    0    0 -0.00000000000E+00 -0.00000000000E+00 -0.14620582833E+04  0.14620582833E+04  0.00000000000E+00 0.  1.
        -24    2    1    2    0    0 -0.39974140492E+02  0.10237377187E+03 -0.12577561319E+04  0.12649311285E+04  0.77601233473E+02 0.  0.
         25    2    1    2    0    0  0.17338332197E+02 -0.72886211013E+02 -0.16666345077E+03  0.22144179557E+03  0.12508695168E+03 0.  0.
         24    2    1    2    0    0  0.22635808295E+02 -0.29487560860E+02  0.28536011371E+03  0.29868417367E+03  0.79999656480E+02 0.  0.
        -11    1    5    5    0    0  0.47958023221E+02 -0.16823727821E+02  0.11153751881E+03  0.12257090973E+03  0.00000000000E+00 0.  1.
         12    1    5    5    0    0 -0.25322214926E+02 -0.12663833039E+02  0.17382259490E+03  0.17611326394E+03  0.00000000000E+00 0. -1.
         11    1    3    3    0    0  0.21673202357E+02  0.29432245274E+02 -0.24968076627E+03  0.25234196996E+03  0.00000000000E+00 0. -1.
        -12    1    3    3    0    0 -0.61647342849E+02  0.72941526600E+02 -0.10080753656E+04  0.10125891585E+04  0.00000000000E+00 0.  1.
          5    1    4    4  501    0  0.49749612106E+02 -0.50790519046E+02 -0.16747055446E+03  0.18198505362E+03  0.41800000000E+01 0.  1.
         -5    1    4    4    0  501 -0.32411279909E+02 -0.22095691968E+02  0.80710368461E+00  0.39456741949E+02  0.41800000000E+01 0.  1.
</event>
<event>
11    1  0.8299058E-009  0.6825850E+03  0.7561462E-02  0.9058369E-01
         22   -1    0    0    0    0  0.00000000000E+00  0.00000000000E+00  0.18195670141E+04  0.18195670141E+04  0.00000000000E+00 0.  1.
         22   -1    0    0    0    0 -0.00000000000E+00 -0.00000000000E+00 -0.78230267204E+03  0.78230267204E+03  0.00000000000E+00 0.  1.
        -24    2    1    2    0    0  0.63447300203E+03 -0.26960614751E+03 -0.50648406045E+03  0.85918521058E+03  0.80185145180E+02 0.  0.
         25    2    1    2    0    0 -0.56746935998E+03  0.83512208302E+02  0.10158149155E+04  0.11732533277E+04  0.12509062678E+03 0.  0.
         24    2    1    2    0    0 -0.67003642056E+02  0.18609393921E+03  0.52793348699E+03  0.56943114787E+03  0.80110069386E+02 0.  0.
        -11    1    5    5    0    0  0.94229154879E+01  0.84167715197E+01  0.86924164591E+01  0.15335953932E+02  0.00000000000E+00 0.  1.
         12    1    5    5    0    0 -0.76426557544E+02  0.17767716769E+03  0.51924107053E+03  0.55409519394E+03  0.00000000000E+00 0. -1.
         11    1    3    3    0    0  0.49231102644E+03 -0.17199373136E+03 -0.38652926059E+03  0.64912006568E+03  0.00000000000E+00 0. -1.
        -12    1    3    3    0    0  0.14216197560E+03 -0.97612416151E+02 -0.11995479986E+03  0.21006514490E+03  0.00000000000E+00 0.  1.
          5    1    4    4  501    0 -0.21657744923E+03  0.27932483120E+02  0.51319197008E+03  0.55773603585E+03  0.41800000000E+01 0.  1.
         -5    1    4    4    0  501 -0.35089191075E+03  0.55579725182E+02  0.50262294542E+03  0.61551729183E+03  0.41800000000E+01 0.  1.
</event>
<event>
11    1  0.8299058E-009  0.1705279E+03  0.7561462E-02  0.1077573E+00
         22   -1    0    0    0    0  0.00000000000E+00  0.00000000000E+00  0.33618642458E+03  0.33618642458E+03  0.00000000000E+00 0.  1.
         22   -1    0    0    0    0 -0.00000000000E+00 -0.00000000000E+00 -0.13358795078E+04  0.13358795078E+04  0.00000000000E+00 0. -1.
        -24    2    1    2    0    0  0.25706547871E+02 -0.12566926107E+03 -0.11833743955E+04  0.11934888640E+04  0.87104068930E+02 0.  0.
         25    2    1    2    0    0  0.67922414024E+00  0.39070825154E+02 -0.10342949137E+03  0.16694986040E+03  0.12509038924E+03 0.  0.
         24    2    1    2    0    0 -0.26385772012E+02  0.86598435920E+02  0.28711080370E+03  0.31162720789E+03  0.80519594061E+02 0.  0.
        -11    1    5    5    0    0 -0.20548660228E+02 -0.31594852906E+01  0.12056313082E+03  0.12234254492E+03  0.00000000000E+00 0.  1.
         12    1    5    5    0    0 -0.58371117841E+01  0.89757921210E+02  0.16654767289E+03  0.18928466298E+03  0.00000000000E+00 0. -1.
         11    1    3    3    0    0  0.12980219699E+02 -0.12076156981E+03 -0.73972592763E+03  0.74963076968E+03  0.00000000000E+00 0. -1.
        -12    1    3    3    0    0  0.12726328173E+02 -0.49076912628E+01 -0.44364846790E+03  0.44385809436E+03  0.00000000000E+00 0.  1.
          5    1    4    4  501    0 -0.52535524032E+02 -0.25968356822E+01 -0.78920252903E+02  0.94934733155E+02  0.41800000000E+01 0.  1.
         -5    1    4    4    0  501  0.53214748172E+02  0.41667660836E+02 -0.24509238462E+02  0.72015127248E+02  0.41800000000E+01 0.  1.
</event>
<event>
11    1  0.8299058E-009  0.3097632E+03  0.7561462E-02  0.9961419E-01
         22   -1    0    0    0    0  0.00000000000E+00  0.00000000000E+00  0.10265499666E+04  0.10265499666E+04  0.00000000000E+00 0. -1.
         22   -1    0    0    0    0 -0.00000000000E+00 -0.00000000000E+00 -0.45510909176E+03  0.45510909176E+03  0.00000000000E+00 0. -1.
        -24    2    1    2    0    0  0.24465492989E+03 -0.55442161746E+02 -0.20128691222E+03  0.33459191108E+03  0.92225039488E+02 0.  0.
         25    2    1    2    0    0 -0.46497385166E+03  0.13124366850E+01  0.19181572780E+03  0.51830815744E+03  0.12509063685E+03 0.  0.
         24    2    1    2    0    0  0.22031892177E+03  0.54129725061E+02  0.58091205922E+03  0.62875898980E+03  0.80053683760E+02 0.  0.
        -11    1    5    5    0    0  0.71606685207E+02  0.40785744462E+02  0.29387288708E+03  0.30520856488E+03  0.00000000000E+00 0.  1.
         12    1    5    5    0    0  0.14871223656E+03  0.13343980599E+02  0.28703917214E+03  0.32355042492E+03  0.00000000000E+00 0. -1.
         13    1    3    3    0    0  0.12182684722E+03 -0.45539587691E+02 -0.15647532728E+03  0.20347029955E+03  0.00000000000E+00 0. -1.
        -14    1    3    3    0    0  0.12282808267E+03 -0.99025740553E+01 -0.44811584940E+02  0.13112161153E+03  0.00000000000E+00 0.  1.
          5    1    4    4  501    0 -0.11482502206E+03  0.23501831112E+02 -0.23261113658E+01  0.11730304749E+03  0.41800000000E+01 0.  1.
         -5    1    4    4    0  501 -0.35014882959E+03 -0.22189394426E+02  0.19414183916E+03  0.40100510995E+03  0.41800000000E+01 0.  1.
</event>
<event>
11    1  0.8299058E-009  0.1535686E+03  0.7561462E-02  0.1093287E+00
         22   -1    0    0    0    0  0.00000000000E+00  0.00000000000E+00  0.35074959443E+03  0.35074959443E+03  0.00000000000E+00 0. -1.
         22   -1    0    0    0    0 -0.00000000000E+00 -0.00000000000E+00 -0.38668602267E+03  0.38668602267E+03  0.00000000000E+00 0.  1.
         24    2    1    2    0    0 -0.24052691316E+02  0.83283108360E+02 -0.29771472188E+03  0.32053807849E+03  0.81215737648E+02 0.  0.
         25    2    1    2    0    0  0.82841048499E+02 -0.93003020657E+02  0.51591319031E+02  0.18390742383E+03  0.12509226664E+03 0.  0.
        -24    2    1    2    0    0 -0.58788357183E+02  0.97199122965E+01  0.21018697461E+03  0.23299011477E+03  0.80964693858E+02 0.  0.
        -11    1    3    3    0    0  0.29147216642E+02  0.43145344363E+02 -0.13633729409E+03  0.14594155932E+03  0.00000000000E+00 0.  1.
         12    1    3    3    0    0 -0.53199907958E+02  0.40137763997E+02 -0.16137742779E+03  0.17459651917E+03  0.00000000000E+00 0. -1.
         13    1    5    5    0    0 -0.41755389730E+02 -0.29954908860E+02  0.15256075934E+03  0.16098321163E+03  0.00000000000E+00 0. -1.
        -14    1    5    5    0    0 -0.17032967453E+02  0.39674821156E+02  0.57626215266E+02  0.72006903141E+02  0.00000000000E+00 0.  1.
          5    1    4    4  501    0  0.16599596598E+02 -0.10668524423E+03  0.23669846143E+02  0.11061203352E+03  0.41800000000E+01 0.  1.
         -5    1    4    4    0  501  0.66241451901E+02  0.13682223575E+02  0.27921472888E+02  0.73295390306E+02  0.41800000000E+01 0.  1.
</event>
<event>
11    1  0.8299058E-009  0.1392941E+03  0.7561462E-02  0.1108349E+00
         22   -1    0    0    0    0  0.00000000000E+00  0.00000000000E+00  0.12317466151E+03  0.12317466151E+03  0.00000000000E+00 0. -1.
         22   -1    0    0    0    0 -0.00000000000E+00 -0.00000000000E+00 -0.15486677994E+04  0.15486677994E+04  0.00000000000E+00 0. -1.
        -24    2    1    2    0    0  0.24834638807E+02 -0.10766166388E+02 -0.13916020741E+04  0.13942911619E+04  0.82212176527E+02 0.  0.
         25    2    1    2    0    0 -0.42325529030E+02 -0.48409325807E+02 -0.84590551299E+02  0.16412671733E+03  0.12508838771E+03 0.  0.
         24    2    1    2    0    0  0.17490890224E+02  0.59175492195E+02  0.50699487458E+02  0.11342458171E+03  0.80542085831E+02 0.  0.
        -13    1    5    5    0    0  0.15950781146E+02  0.54810914988E+02 -0.52117300286E+01  0.57322124445E+02  0.00000000000E+00 0.  1.
         14    1    5    5    0    0  0.15401090779E+01  0.43645772065E+01  0.55911217486E+02  0.56102457263E+02  0.00000000000E+00 0. -1.
         13    1    3    3    0    0  0.47907906181E+02  0.12944835536E+02 -0.10245130308E+04  0.10257142324E+04  0.00000000000E+00 0. -1.
        -14    1    3    3    0    0 -0.23073267374E+02 -0.23711001923E+02 -0.36708904327E+03  0.36857692951E+03  0.00000000000E+00 0.  1.
          5    1    4    4  501    0 -0.80808934676E+02 -0.18493521360E+02 -0.24306172752E+02  0.86489055317E+02  0.41800000000E+01 0.  1.
         -5    1    4    4    0  501  0.38483405645E+02 -0.29915804447E+02 -0.60284378547E+02  0.77637662011E+02  0.41800000000E+01 0.  1.
</event>
<event>
11    1  0.8299058E-009  0.1860569E+03  0.7561462E-02  0.1064846E+00
         22   -1    0    0    0    0  0.00000000000E+00  0.00000000000E+00  0.21944299991E+04  0.21944299991E+04  0.00000000000E+00 0. -1.
         22   -1    0    0    0    0 -0.00000000000E+00 -0.00000000000E+00 -0.14624729923E+03  0.14624729923E+03  0.00000000000E+00 0. -1.
         24    2    1    2    0    0 -0.82905263602E+02  0.58437545956E+02 -0.75021529300E+02  0.14932540950E+03  0.79885033346E+02 0.  0.
         25    2    1    2    0    0  0.17799580232E+03  0.38260918718E+02  0.36911780279E+03  0.43016480885E+03  0.12508959543E+03 0.  0.
        -24    2    1    2    0    0 -0.95090538721E+02 -0.96698464674E+02  0.17540864264E+04  0.17611870800E+04  0.81042802932E+02 0.  0.
        -13    1    3    3    0    0 -0.69730321031E+00 -0.14931841852E+02  0.17215289108E+01  0.15046919773E+02  0.00000000000E+00 0.  1.
         14    1    3    3    0    0 -0.82207960392E+02  0.73369387808E+02 -0.76743058211E+02  0.13427848972E+03  0.00000000000E+00 0. -1.
         13    1    5    5    0    0 -0.78658523409E+02 -0.10584292372E+03  0.16606154929E+04  0.16658432408E+04  0.00000000000E+00 0. -1.
        -14    1    5    5    0    0 -0.16432015312E+02  0.91444590488E+01  0.93470933506E+02  0.95343839177E+02  0.00000000000E+00 0.  1.
          5    1    4    4  501    0  0.18999339076E+03  0.14134655750E+02  0.34313704766E+03  0.39250195273E+03  0.41800000000E+01 0. -1.
         -5    1    4    4    0  501 -0.11997588436E+02  0.24126262969E+02  0.25980755136E+02  0.37662856113E+02  0.41800000000E+01 0. -1.
</event>
<event>
11    1  0.8299058E-009  0.1538650E+03  0.7561462E-02  0.1092994E+00
         22   -1    0    0    0    0  0.00000000000E+00  0.00000000000E+00  0.97660792919E+02  0.97660792919E+02  0.00000000000E+00 0. -1.
         22   -1    0    0    0    0 -0.00000000000E+00 -0.00000000000E+00 -0.11309930805E+04  0.11309930805E+04  0.00000000000E+00 0.  1.
         24    2    1    2    0    0  0.62971072621E+02 -0.75226408392E+02 -0.89784893293E+03  0.90672071393E+03  0.79908561499E+02 0.  0.
         25    2    1    2    0    0 -0.26071009462E+02  0.37910308540E+02 -0.17175040941E+03  0.21739840853E+03  0.12508787260E+03 0.  0.
        -24    2    1    2    0    0 -0.36900063159E+02  0.37316099852E+02  0.36267054712E+02  0.10453475100E+03  0.82813700194E+02 0.  0.
        -13    1    3    3    0    0  0.82027782157E+02 -0.55281263634E+02 -0.70968599132E+03  0.71654642657E+03  0.00000000000E+00 0.  1.
         14    1    3    3    0    0 -0.19056709536E+02 -0.19945144758E+02 -0.18816294161E+03  0.19017428736E+03  0.00000000000E+00 0. -1.
         11    1    5    5    0    0 -0.36443132400E+02  0.59334095738E+02  0.42587345908E+02  0.81623028905E+02  0.00000000000E+00 0. -1.
        -12    1    5    5    0    0 -0.45693075826E+00 -0.22017995886E+02 -0.63202911964E+01  0.22911722095E+02  0.00000000000E+00 0.  1.
          5    1    4    4  501    0 -0.58182843866E+01 -0.15418347545E+02 -0.15754935412E+03  0.15846403143E+03  0.41800000000E+01 0. -1.
         -5    1    4    4    0  501 -0.20252725076E+02  0.53328656085E+02 -0.14201055288E+02  0.58934377100E+02  0.41800000000E+01 0. -1.
</event>
<event>
11    1  0.8299058E-009  0.2206160E+03  0.7561462E-02  0.1040832E+00
         22   -1    0    0    0    0  0.00000000000E+00  0.00000000000E+00  0.16535115385E+03  0.16535115385E+03  0.00000000000E+00 0. -1.
         22   -1    0    0    0    0 -0.00000000000E+00 -0.00000000000E+00 -0.23667775627E+04  0.23667775627E+04  0.00000000000E+00 0. -1.
        -24    2    1    2    0    0  0.49882883530E+02  0.92921777545E+02 -0.18504278308E+04  0.18551560726E+04  0.79988362396E+02 0.  0.
         25    2    1    2    0    0  0.31922002710E+02 -0.24497088031E+03 -0.39426016862E+03  0.48178660644E+03  0.12508999611E+03 0.  0.
         24    2    1    2    0    0 -0.81804886240E+02  0.15204910276E+03  0.43261590509E+02  0.19518603752E+03  0.80094038264E+02 0.  0.
        -13    1    5    5    0    0  0.13171696561E+02  0.32450729249E+02  0.21036443320E+02  0.40854318825E+02  0.00000000000E+00 0.  1.
         14    1    5    5    0    0 -0.94976582801E+02  0.11959837351E+03  0.22225147188E+02  0.15433171869E+03  0.00000000000E+00 0. -1.
         13    1    3    3    0    0  0.77049057403E+01  0.77678552546E+02 -0.14740990200E+04  0.14761643689E+04  0.00000000000E+00 0. -1.
        -14    1    3    3    0    0  0.42177977790E+02  0.15243224999E+02 -0.37632881078E+03  0.37899170379E+03  0.00000000000E+00 0.  1.
          5    1    4    4  501    0  0.12196560532E+02 -0.61711046902E+02 -0.21721236981E+03  0.22617624853E+03  0.41800000000E+01 0. -1.
         -5    1    4    4    0  501  0.19725442178E+02 -0.18325983340E+03 -0.17704779881E+03  0.25561035791E+03  0.41800000000E+01 0. -1.
</event>
<event>
11    1  0.8299058E-009  0.3291622E+03  0.7561462E-02  0.9885525E-01
         22   -1    0    0    0    0  0.00000000000E+00  0.00000000000E+00  0.62516966255E+02  0.62516966255E+02  0.00000000000E+00 0. -1.
         22   -1    0    0    0    0 -0.00000000000E+00 -0.00000000000E+00 -0.34267230809E+04  0.34267230809E+04  0.00000000000E+00 0.  1.
        -24    2    1    2    0    0 -0.51348695539E+01 -0.22288038931E+02 -0.11591957994E+04  0.11620476263E+04  0.78081118066E+02 0.  0.
         25    2    1    2    0    0 -0.28676655028E+03 -0.73737142779E+02 -0.17035946827E+04  0.17336537684E+04  0.12509326621E+03 0.  0.
         24    2    1    2    0    0  0.29190141983E+03  0.96025181709E+02 -0.50141563263E+03  0.59353865247E+03  0.80269676121E+02 0.  0.
        -11    1    5    5    0    0  0.15020923776E+02  0.26860985739E+02 -0.67488476106E+02  0.74174356169E+02  0.00000000000E+00 0.  1.
         12    1    5    5    0    0  0.27688049606E+03  0.69164195970E+02 -0.43392715653E+03  0.51936429630E+03  0.00000000000E+00 0. -1.
         13    1    3    3    0    0 -0.38833646207E+02 -0.62702801347E+00 -0.42928908653E+03  0.43104241677E+03  0.00000000000E+00 0. -1.
        -14    1    3    3    0    0  0.33698776653E+02 -0.21661010917E+02 -0.72990671282E+03  0.73100520953E+03  0.00000000000E+00 0.  1.
          5    1    4    4  501    0 -0.32334280400E+02 -0.45570170670E+02 -0.17453837653E+03  0.18331192931E+03  0.41800000000E+01 0. -1.
         -5    1    4    4    0  501 -0.25443226988E+03 -0.28166972109E+02 -0.15290563061E+04  0.15503418391E+04  0.41800000000E+01 0. -1.
</event>
